Title
82242
    1SAPS     N    1   0.686   0.406  11.040  0.7831  0.0034 -0.5330
    1SAPS   HN1    2   0.723   0.492  10.994 -0.2646  0.5606 -0.3526
    1SAPS   HN2    3   0.648   0.330  10.981 -1.4789 -1.3872  2.4488
    1SAPS   HN3    4   0.605   0.430  11.101  1.9570 -1.8368  1.8998
    1SAPS   C12    5   0.792   0.354  11.127  0.1216 -0.4753 -0.2975
    1SAPS  H12A    6   0.888   0.358  11.077  0.7405  4.3424  0.8069
    1SAPS   C13    7   0.814   0.424  11.265  0.3059  0.3886  0.1677
    1SAPS  O13A    8   0.761   0.539  11.291 -0.2770  0.0753 -0.5375
    1SAPS  O13B    9   0.894   0.375  11.347 -0.3406 -0.6480 -0.4634
    1SAPS   C11   10   0.774   0.200  11.147 -0.3938 -0.3081 -0.4481
    1SAPS  H11A   11   0.684   0.171  11.205  0.4728  0.5309  1.3889
    1SAPS  H11B   12   0.860   0.162  11.206  0.2026 -0.8525 -1.6289
    1SAPS     P   13   0.724  -0.013  10.998  0.3914 -0.0267  0.3007
    1SAPS   O13   14   0.816  -0.102  11.072  0.5244 -0.5724  0.2555
    1SAPS   O14   15   0.578  -0.016  11.024 -0.1004  0.4414  0.1560
    1SAPS   O12   16   0.767   0.141  11.021  0.0972 -0.1746  0.0758
    1SAPS   O11   17   0.755  -0.016  10.845 -0.1069  0.3552 -0.2916
    1SAPS    C1   18   0.851   0.064  10.775  0.0474 -0.3933 -0.1948
    1SAPS    HA   19   0.927   0.108  10.844 -0.8248  1.8403 -0.5631
    1SAPS    HB   20   0.904  -0.000  10.701  0.4411 -0.6103  0.2686
    1SAPS    C2   21   0.779   0.170  10.690 -0.6777  0.6291 -0.1646
    1SAPS    HS   22   0.723   0.233  10.763 -1.2021  1.2203 -1.0560
    1SAPS   O21   23   0.691   0.110  10.590 -0.7255 -0.6701  0.0132
    1SAPS   C21   24   0.606   0.196  10.548  0.0093 -0.5427 -0.2937
    1SAPS   O22   25   0.594   0.313  10.583 -0.4271  0.1889 -0.2542
    1SAPS   C22   26   0.511   0.128  10.456  0.5620  0.6427 -0.3733
    1SAPS   H2R   27   0.532   0.019  10.466  0.6376  0.7174  0.3337
    1SAPS   H2S   28   0.406   0.137  10.491 -0.5591 -2.5387 -2.4263
    1SAPS    C3   29   0.886   0.268  10.624 -0.0397  0.1969 -0.5165
    1SAPS    HX   30   0.938   0.314  10.711 -2.7264 -1.8196  2.4002
    1SAPS    HY   31   0.838   0.351  10.567 -1.1745 -0.7865 -1.0434
    1SAPS   O31   32   0.979   0.199  10.533 -0.1221  0.4873 -0.1277
    1SAPS   C31   33   0.957   0.205  10.408 -0.0886 -0.0559  0.2890
    1SAPS   O32   34   0.861   0.263  10.358  0.3659  0.2144  0.5711
    1SAPS   C32   35   1.071   0.122  10.350 -0.4729  0.9251 -0.3763
    1SAPS   H2X   36   1.080   0.033  10.416 -2.0586  0.8467 -0.2326
    1SAPS   H2Y   37   1.160   0.187  10.348  1.0127 -0.9500  1.0139
    1SAPS   C23   38   0.506   0.181  10.307 -0.7201 -0.0927 -0.4654
    1SAPS   H3R   39   0.597   0.169  10.244  0.4174 -0.6655  1.2168
    1SAPS   H3S   40   0.481   0.289  10.321 -0.0076  0.1773 -1.1907
    1SAPS   C24   41   0.395   0.114  10.225  0.1897  0.3433  0.2853
    1SAPS   H4R   42   0.400   0.159  10.123 -0.2048  0.6107  0.3781
    1SAPS   H4S   43   0.304   0.154  10.276  0.0113 -0.5221  0.6698
    1SAPS   C25   44   0.389  -0.040  10.209  0.4516 -0.1228 -0.3369
    1SAPS   H5R   45   0.372  -0.099  10.300  0.5046 -4.3650 -2.7783
    1SAPS   C26   46   0.413  -0.117  10.100  0.4178 -0.2358 -0.0077
    1SAPS   H6R   47   0.396  -0.225  10.114 -0.1228  0.0214  1.5286
    1SAPS   C27   48   0.446  -0.078   9.957  1.0706 -0.3431  0.3037
    1SAPS   H7R   49   0.524   0.002   9.960 -0.3171  1.1002  4.0488
    1SAPS   H7S   50   0.351  -0.044   9.911  0.4511 -0.5526  1.3965
    1SAPS   C28   51   0.499  -0.200   9.882  0.6435  0.1085 -0.2966
    1SAPS   H8R   52   0.457  -0.300   9.899  0.0183  0.5809  1.0509
    1SAPS   C29   53   0.590  -0.193   9.781 -0.2639  0.7756  0.4901
    1SAPS   H9R   54   0.637  -0.281   9.733 -1.3178  2.0658 -3.2831
    1SAPS  C210   55   0.656  -0.070   9.728 -0.0155  0.3464 -0.5014
    1SAPS  H10R   56   0.696  -0.002   9.806  0.2842  0.3900 -0.6926
    1SAPS  H10S   57   0.580  -0.014   9.671 -0.1169 -0.2345 -0.9468
    1SAPS  C211   58   0.773  -0.113   9.643 -0.3281  0.9594 -0.1283
    1SAPS  H11R   59   0.871  -0.111   9.693  0.2709  0.5447 -1.2663
    1SAPS  C212   60   0.778  -0.134   9.512  0.3036  0.6593 -0.2585
    1SAPS  H12R   61   0.871  -0.170   9.464 -0.7664 -0.8352 -1.3071
    1SAPS  C213   62   0.668  -0.108   9.414  0.4614 -0.0538 -0.3434
    1SAPS  H13R   63   0.584  -0.051   9.459  2.6882  1.4771  2.2121
    1SAPS  H13S   64   0.628  -0.207   9.383  1.2607 -0.3063 -0.5899
    1SAPS  C214   65   0.708  -0.011   9.304  1.0877  0.6446  0.5221
    1SAPS  H14R   66   0.714   0.092   9.341 -0.7348  0.6500  0.8952
    1SAPS  C215   67   0.699  -0.029   9.173  0.0358 -0.6984  0.0278
    1SAPS  H15R   68   0.741   0.046   9.105 -1.8056  1.7736  1.4888
    1SAPS  C216   69   0.659  -0.159   9.101  0.2867  0.2500  0.0349
    1SAPS  H16R   70   0.694  -0.250   9.155 -1.1217  0.3066  1.1249
    1SAPS  H16S   71   0.704  -0.150   9.000  0.0681  0.8592 -0.0130
    1SAPS  C217   72   0.503  -0.180   9.098  0.1443  0.0961  0.6950
    1SAPS  H17R   73   0.474  -0.180   9.205 -2.6191 -1.6919  0.0382
    1SAPS  H17S   74   0.481  -0.275   9.045  3.7782 -0.3443 -0.3146
    1SAPS  C218   75   0.416  -0.077   9.022 -0.5698  0.8133  0.4884
    1SAPS  H18R   76   0.423   0.023   9.070 -0.8564  1.1300 -0.1099
    1SAPS  H18S   77   0.310  -0.111   9.019  0.0507 -1.2502 -0.1400
    1SAPS  C219   78   0.456  -0.058   8.876 -0.0289  0.3269 -0.1752
    1SAPS  H19R   79   0.566  -0.043   8.868  0.3221 -2.3977 -1.5154
    1SAPS  H19S   80   0.405   0.034   8.841  2.2920  2.2658  1.2208
    1SAPS  C220   81   0.422  -0.172   8.782 -0.5855 -0.0530  0.6620
    1SAPS  H20R   82   0.470  -0.146   8.686  1.2640 -0.1334  1.5140
    1SAPS  H20S   83   0.314  -0.194   8.775 -0.5421  0.1031 -0.8345
    1SAPS  H20T   84   0.468  -0.267   8.815 -0.5557 -0.5955 -0.8882
    1SAPS   C33   85   1.032   0.071  10.209  0.7555  0.5721 -0.9384
    1SAPS   H3X   86   1.043   0.152  10.133  2.1072 -0.1216 -1.5165
    1SAPS   H3Y   87   0.924   0.045  10.216  0.9853 -0.0567  0.5593
    1SAPS   C34   88   1.117  -0.048  10.165  0.1760  0.5300 -0.3824
    1SAPS   H4X   89   1.132  -0.106  10.259  0.1233 -1.4099 -1.5118
    1SAPS   H4Y   90   1.219  -0.015  10.136 -0.0331  1.1683 -0.3864
    1SAPS   C35   91   1.055  -0.132  10.055  0.0396  0.4674 -0.0824
    1SAPS   H5X   92   0.982  -0.068  10.001 -0.8952 -1.3479 -1.0833
    1SAPS   H5Y   93   0.991  -0.213  10.096  2.2367 -1.2257  0.2159
    1SAPS   C36   94   1.170  -0.191   9.961  0.4221  0.7655 -0.7047
    1SAPS   H6X   95   1.115  -0.258   9.892  1.1551 -0.2330 -0.3416
    1SAPS   H6Y   96   1.235  -0.254  10.026  1.1121  1.4180 -0.7480
    1SAPS   C37   97   1.230  -0.083   9.872 -0.5866 -0.4105  0.2299
    1SAPS   H7X   98   1.316  -0.028   9.917  0.5644 -0.7986 -1.3697
    1SAPS   H7Y   99   1.159  -0.000   9.854  1.9771  1.9892  0.3648
    1SAPS   C38  100   1.271  -0.126   9.728  0.8898  0.5033 -0.4588
    1SAPS   H8X  101   1.214  -0.219   9.710  1.5399  0.1198 -0.5729
    1SAPS   H8Y  102   1.380  -0.146   9.738  1.0615  0.7997 -1.6194
    1SAPS   C39  103   1.253  -0.019   9.621  0.0692 -0.7225 -0.1235
    1SAPS   H9X  104   1.330   0.054   9.655  1.3210 -1.8454 -0.4974
    1SAPS   H9Y  105   1.154   0.032   9.620  0.8065  0.7808 -1.3996
    1SAPS  C310  106   1.293  -0.058   9.487  0.5772 -0.7566 -0.0032
    1SAPS  H10X  107   1.211  -0.112   9.436 -1.3587  1.9131  0.0908
    1SAPS  H10Y  108   1.392  -0.108   9.475  1.6220  0.7485  1.6686
    1SAPS  C311  109   1.297   0.062   9.388  0.5667  0.2392  0.6679
    1SAPS  H11X  110   1.369   0.142   9.415 -1.3732  1.9598  1.0214
    1SAPS  H11Y  111   1.196   0.109   9.394  0.0149 -1.0327  2.4186
    1SAPS  C312  112   1.337   0.012   9.250 -0.2780 -0.0881 -0.3391
    1SAPS  H12X  113   1.278  -0.077   9.220  0.2161 -0.4871 -0.1333
    1SAPS  H12Y  114   1.441  -0.027   9.245  0.3645  1.5764 -0.5516
    1SAPS  C313  115   1.332   0.121   9.140 -0.1894 -0.5475  0.5422
    1SAPS  H13X  116   1.413   0.196   9.146 -0.0096 -0.8205  2.1280
    1SAPS  H13Y  117   1.240   0.177   9.166  0.3343 -0.1737  1.6802
    1SAPS  C314  118   1.308   0.066   8.994 -0.2818  0.2075 -0.6659
    1SAPS  H14X  119   1.204   0.030   9.011 -0.2750  0.8352  0.8779
    1SAPS  H14Y  120   1.379  -0.015   8.969 -2.6253 -2.2645  0.2023
    1SAPS  C315  121   1.315   0.175   8.889  0.8576  0.4703  0.2613
    1SAPS  H15X  122   1.422   0.197   8.867  0.5759  0.4668 -1.2277
    1SAPS  H15Y  123   1.263   0.264   8.930 -1.0383 -0.5198  0.0875
    1SAPS  C316  124   1.238   0.131   8.759  0.0153 -0.6151  0.0395
    1SAPS  H16X  125   1.208   0.222   8.703 -0.4854 -0.2995  0.7929
    1SAPS  H16Y  126   1.158   0.062   8.793  0.3352 -1.5321 -1.0301
    1SAPS  C317  127   1.333   0.055   8.661  0.4782 -0.0445 -0.9906
    1SAPS  H17X  128   1.370  -0.036   8.713 -1.0583  0.4162  1.0639
    1SAPS  H17Y  129   1.420   0.124   8.659  0.8047 -0.3878  0.1527
    1SAPS  C318  130   1.269   0.031   8.523  0.6579 -0.2408  0.3674
    1SAPS  H18X  131   1.216   0.122   8.489  0.7606 -0.1007  0.5893
    1SAPS  H18Y  132   1.199  -0.056   8.525  1.0998 -0.6549 -0.9400
    1SAPS  H18Z  133   1.351  -0.003   8.456 -0.8647 -1.6323 -0.9275
    2SAPS     N  134   4.821   4.601  11.115 -0.4214  0.1948 -0.6012
    2SAPS   HN1  135   4.737   4.616  11.175  0.7156 -0.0500  1.1132
    2SAPS   HN2  136   4.794   4.545  11.031  0.1179 -0.9409 -0.0380
    2SAPS   HN3  137   4.886   4.540  11.168 -0.4528 -1.3196 -2.2043
    2SAPS   C12  138   4.891   4.729  11.073  0.5929 -0.5711  0.7874
    2SAPS  H12A  139   4.821   4.780  11.009  0.9839  0.1893  0.9473
    2SAPS   C13  140   4.927   4.822  11.191 -0.4470 -0.2794 -0.4085
    2SAPS  O13A  141   4.903   4.782  11.308 -0.0124  0.1763  0.5040
    2SAPS  O13B  142   4.996   4.928  11.175  0.3232  0.1541  0.2267
    2SAPS   C11  143   5.023   4.699  10.999 -0.7957  0.1532  0.4045
    2SAPS  H11A  144   5.110   4.673  11.062 -1.4175 -0.9700  0.8303
    2SAPS  H11B  145   5.055   4.790  10.943  1.0847 -1.8712 -2.0963
    2SAPS     P  146   5.104   4.572  10.780  0.1137  0.2617 -0.5687
    2SAPS   O13  147   5.172   4.695  10.741 -0.1310  0.2277 -0.4318
    2SAPS   O14  148   5.191   4.462  10.814 -0.0508 -0.3259 -0.5377
    2SAPS   O12  149   4.996   4.593  10.900 -0.6106  0.1130 -0.3392
    2SAPS   O11  150   5.005   4.519  10.666  0.2811  0.0626  0.1624
    2SAPS    C1  151   4.882   4.575  10.637  0.0194  1.0264 -0.0483
    2SAPS    HA  152   4.803   4.499  10.654  0.5350  0.7923  1.3537
    2SAPS    HB  153   4.864   4.664  10.700 -0.0127  1.3026 -0.4397
    2SAPS    C2  154   4.866   4.623  10.481 -0.0075 -0.0180 -0.0656
    2SAPS    HS  155   4.763   4.656  10.457  0.2419  0.6847 -0.1920
    2SAPS   O21  156   4.907   4.525  10.383  0.2805 -0.4433 -0.4427
    2SAPS   C21  157   4.814   4.426  10.372 -0.2393  0.0335  0.3163
    2SAPS   O22  158   4.705   4.430  10.424  0.5419 -0.1962  0.3102
    2SAPS   C22  159   4.868   4.317  10.283  0.2843  0.8478  0.3103
    2SAPS   H2R  160   4.979   4.317  10.296 -0.0494  0.5565  4.2736
    2SAPS   H2S  161   4.835   4.217  10.317  0.7965 -0.5041 -2.7521
    2SAPS    C3  162   4.957   4.749  10.470 -0.9671 -0.0874 -0.1147
    2SAPS    HX  163   5.055   4.701  10.492 -0.6359  0.8651  0.5442
    2SAPS    HY  164   4.948   4.834  10.540  0.6596 -0.1183  0.1702
    2SAPS   O31  165   4.971   4.799  10.334  0.0611  0.5675 -0.0457
    2SAPS   C31  166   4.867   4.862  10.292 -0.0750 -0.6073 -0.1058
    2SAPS   O32  167   4.777   4.902  10.368  0.2280  0.5820  0.3825
    2SAPS   C32  168   4.904   4.913  10.151  0.3675  0.0346 -0.1060
    2SAPS   H2X  169   4.955   4.836  10.089  1.6797  2.2975 -1.9873
    2SAPS   H2Y  170   4.978   4.995  10.162  0.7669 -0.4321  0.8111
    2SAPS   C23  171   4.834   4.325  10.134 -0.1840 -0.8787 -0.2109
    2SAPS   H3R  172   4.732   4.282  10.120 -0.1692 -0.8720 -0.3430
    2SAPS   H3S  173   4.895   4.252  10.076 -0.8979 -0.1128 -2.0184
    2SAPS   C24  174   4.843   4.469  10.079 -0.1188  0.7315  0.3930
    2SAPS   H4R  175   4.767   4.539  10.118 -1.1840 -0.7084  0.9948
    2SAPS   H4S  176   4.823   4.449   9.971  1.3321 -1.2828  0.4257
    2SAPS   C25  177   4.986   4.523  10.088  0.5601 -0.4010 -0.5527
    2SAPS   H5R  178   5.029   4.535  10.189  1.1157  2.4754 -1.0327
    2SAPS   C26  179   5.063   4.558   9.980  0.2816  0.2696 -0.6375
    2SAPS   H6R  180   5.166   4.594   9.998 -0.3434  0.7590  2.7572
    2SAPS   C27  181   5.024   4.550   9.835 -0.1334 -0.2916 -0.3535
    2SAPS   H7R  182   5.029   4.652   9.791  0.4894  0.4965  1.4541
    2SAPS   H7S  183   4.917   4.527   9.820 -0.4555 -0.7410  2.1787
    2SAPS   C28  184   5.106   4.445   9.765 -0.6770 -0.4463  0.2685
    2SAPS   H8R  185   5.167   4.379   9.828 -0.5818  0.7144  1.4448
    2SAPS   C29  186   5.079   4.397   9.646 -0.3542 -0.1366  0.2958
    2SAPS   H9R  187   5.148   4.334   9.588  0.7647  1.0830  0.2586
    2SAPS  C210  188   4.975   4.448   9.548 -0.8695  0.1119 -0.0339
    2SAPS  H10R  189   4.873   4.421   9.583 -0.3080  0.5080  2.0557
    2SAPS  H10S  190   4.991   4.394   9.452 -0.4557 -1.3671  0.8219
    2SAPS  C211  191   4.961   4.591   9.511  0.3725 -0.3769 -0.0759
    2SAPS  H11R  192   4.897   4.650   9.578  0.8569 -0.5537  0.5592
    2SAPS  C212  193   5.013   4.655   9.408 -0.1801 -0.3549  0.3861
    2SAPS  H12R  194   4.999   4.764   9.410 -0.4284 -0.3861  1.5421
    2SAPS  C213  195   5.108   4.600   9.310  0.2020 -0.4609  0.0553
    2SAPS  H13R  196   5.184   4.548   9.373 -0.6943 -0.2744  1.3501
    2SAPS  H13S  197   5.169   4.679   9.261  0.6829 -0.4165  0.7087
    2SAPS  C214  198   5.081   4.505   9.197  1.0676 -0.2163  0.3880
    2SAPS  H14R  199   5.077   4.397   9.219  0.2786 -0.7513 -2.0583
    2SAPS  C215  200   5.059   4.536   9.065 -0.2966 -0.4794 -0.2588
    2SAPS  H15R  201   5.025   4.457   8.997 -0.9758  1.5648 -2.4366
    2SAPS  C216  202   5.066   4.674   9.001  0.0637 -0.2463 -0.0008
    2SAPS  H16R  203   5.165   4.690   8.953  0.4384 -1.2791  0.4199
    2SAPS  H16S  204   5.061   4.751   9.081  0.8432  0.3711 -0.5316
    2SAPS  C217  205   4.956   4.695   8.901 -0.4764  0.3329  0.1820
    2SAPS  H17R  206   4.938   4.804   8.887  1.9545  0.5265 -2.2211
    2SAPS  H17S  207   4.860   4.646   8.930  0.3350 -2.7930 -1.9337
    2SAPS  C218  208   4.982   4.626   8.770 -0.6075 -0.4015 -0.2169
    2SAPS  H18R  209   5.001   4.517   8.786  1.7674 -0.0504 -0.3008
    2SAPS  H18S  210   5.073   4.675   8.730 -0.5268 -0.1282  0.2980
    2SAPS  C219  211   4.886   4.632   8.655  0.3689 -0.8160  0.1724
    2SAPS  H19R  212   4.871   4.740   8.633 -0.3580 -1.0726 -0.6637
    2SAPS  H19S  213   4.787   4.586   8.676 -0.9334  1.8996  0.5497
    2SAPS  C220  214   4.935   4.581   8.527 -0.5054  0.2744  0.4318
    2SAPS  H20R  215   4.910   4.474   8.508 -1.4064  0.7076 -0.9225
    2SAPS  H20S  216   5.046   4.585   8.530 -0.3342 -1.3168 -1.3564
    2SAPS  H20T  217   4.897   4.640   8.441  2.0670  0.5960 -0.5986
    2SAPS   C33  218   4.788   4.953  10.061 -0.1550 -0.3399  0.0914
    2SAPS   H3X  219   4.718   5.016  10.119  0.0204 -2.0107  2.2153
    2SAPS   H3Y  220   4.728   4.864  10.035 -1.3522  0.4806 -0.0226
    2SAPS   C34  221   4.833   5.038   9.943  0.3468  0.1099  0.5122
    2SAPS   H4X  222   4.850   5.139   9.986 -0.7398 -0.5976  2.7425
    2SAPS   H4Y  223   4.760   5.043   9.859  0.7957 -0.5881  0.0743
    2SAPS   C35  224   4.961   4.984   9.876  0.1256  0.0812 -0.2605
    2SAPS   H5X  225   4.944   4.874   9.875  1.4855 -0.1415 -0.3239
    2SAPS   H5Y  226   5.039   5.007   9.952  0.1476  1.1905 -0.6038
    2SAPS   C36  227   5.007   5.037   9.742  0.3255  0.2913 -0.4315
    2SAPS   H6X  228   5.017   5.147   9.749  1.0999  0.1320  1.4055
    2SAPS   H6Y  229   4.918   5.015   9.679  0.9515  0.7682 -1.5136
    2SAPS   C37  230   5.137   4.967   9.682  0.1542 -0.1342  0.5299
    2SAPS   H7X  231   5.115   4.859   9.686 -0.5968 -0.1326 -1.9440
    2SAPS   H7Y  232   5.228   4.988   9.741 -0.2883  1.8807  0.5799
    2SAPS   C38  233   5.158   5.019   9.536 -0.3416  0.2127  0.1640
    2SAPS   H8X  234   5.167   5.129   9.529 -1.6294  0.3468  0.4051
    2SAPS   H8Y  235   5.072   4.987   9.473  0.8639 -1.6871 -0.6153
    2SAPS   C39  236   5.269   4.949   9.453  0.4204 -0.2282 -0.1145
    2SAPS   H9X  237   5.259   4.838   9.444 -0.2998 -0.0838 -1.2245
    2SAPS   H9Y  238   5.368   4.973   9.497  0.1054  2.2761 -0.6268
    2SAPS  C310  239   5.260   4.997   9.306 -0.5684 -0.0792 -0.0434
    2SAPS  H10X  240   5.157   4.975   9.271 -0.9976  1.2817  0.3292
    2SAPS  H10Y  241   5.332   4.926   9.258 -0.7478 -1.1136  1.1336
    2SAPS  C311  242   5.290   5.142   9.271  0.8202 -0.0439 -0.1840
    2SAPS  H11X  243   5.396   5.162   9.298 -0.0720  1.9141  2.3453
    2SAPS  H11Y  244   5.229   5.218   9.324  1.7208 -0.0321  0.8746
    2SAPS  C312  245   5.279   5.174   9.125 -0.2607  0.0115  0.4199
    2SAPS  H12X  246   5.310   5.278   9.101  1.0789 -0.5907 -0.6304
    2SAPS  H12Y  247   5.176   5.164   9.086  0.0159  0.0315 -0.3379
    2SAPS  C313  248   5.357   5.086   9.020 -0.3848 -0.0294  0.2611
    2SAPS  H13X  249   5.328   5.122   8.920 -0.4359 -1.0593 -0.1063
    2SAPS  H13Y  250   5.326   4.979   9.023 -0.7006  0.0740  1.0693
    2SAPS  C314  251   5.511   5.101   9.024 -0.0910 -0.9669  0.1449
    2SAPS  H14X  252   5.543   5.072   9.126 -0.2632 -1.6321  0.0177
    2SAPS  H14Y  253   5.546   5.206   9.012  1.6488 -1.4398  0.8418
    2SAPS  C315  254   5.594   5.015   8.919  0.1660 -0.5288 -0.0747
    2SAPS  H15X  255   5.566   5.048   8.817 -2.6293  1.0798  1.0894
    2SAPS  H15Y  256   5.562   4.909   8.922  0.2544 -0.5681 -0.4762
    2SAPS  C316  257   5.746   5.023   8.943 -0.3752  0.0609 -0.0267
    2SAPS  H16X  258   5.775   4.996   9.047 -2.8680  1.2132  1.0614
    2SAPS  H16Y  259   5.783   5.124   8.917  0.1702 -0.7373 -2.6106
    2SAPS  C317  260   5.829   4.935   8.845 -0.5011 -1.2016  0.6886
    2SAPS  H17X  261   5.935   4.969   8.856  0.0032 -2.6882  0.6948
    2SAPS  H17Y  262   5.805   4.958   8.739  2.4057  1.4979  0.4760
    2SAPS  C318  263   5.836   4.788   8.878  0.5876 -0.0815 -0.2201
    2SAPS  H18X  264   5.913   4.743   8.811 -0.8327  0.4852 -2.3342
    2SAPS  H18Y  265   5.751   4.723   8.847  0.6168 -2.3882  3.7959
    2SAPS  H18Z  266   5.852   4.768   8.986  0.1858  0.4936 -0.0524
    3SAPS     N  267   0.678   1.240  11.210  0.5133  0.0352  0.5617
    3SAPS   HN1  268   0.627   1.161  11.255  0.6192 -1.2884 -1.4966
    3SAPS   HN2  269   0.769   1.201  11.178  1.1994  1.5767  0.5502
    3SAPS   HN3  270   0.690   1.323  11.270 -1.0750  1.0124 -0.4080
    3SAPS   C12  271   0.603   1.283  11.092  0.2930 -0.2787  0.2199
    3SAPS  H12A  272   0.502   1.244  11.102  1.1204 -2.3176  1.1598
    3SAPS   C13  273   0.589   1.440  11.064 -0.3623  0.3275 -0.1776
    3SAPS  O13A  274   0.637   1.519  11.147  0.0314  0.3263  0.3017
    3SAPS  O13B  275   0.524   1.482  10.963  0.0612 -0.1148 -0.4130
    3SAPS   C11  276   0.676   1.224  10.968 -0.4227 -1.0266  0.3495
    3SAPS  H11A  277   0.782   1.255  10.976 -0.6935  0.1144 -0.3416
    3SAPS  H11B  278   0.638   1.272  10.875  0.6374 -1.9956 -0.6220
    3SAPS     P  279   0.767   0.991  10.895 -0.1427 -0.2383  0.0236
    3SAPS   O13  280   0.901   1.047  10.922  0.3006  0.3903 -0.4957
    3SAPS   O14  281   0.738   0.849  10.922  0.2198  0.1079  0.7475
    3SAPS   O12  282   0.661   1.081  10.963 -0.2662 -0.2237  0.0270
    3SAPS   O11  283   0.729   1.024  10.743  0.6415  0.2548  0.2699
    3SAPS    C1  284   0.812   1.116  10.673 -0.4770  0.4876 -0.0591
    3SAPS    HA  285   0.811   1.218  10.717 -3.4388  1.3499 -1.8322
    3SAPS    HB  286   0.918   1.082  10.666 -0.1469  0.7003  2.7790
    3SAPS    C2  287   0.764   1.128  10.525  0.5679  0.0363  0.7789
    3SAPS    HS  288   0.843   1.182  10.469  0.2367 -0.4980 -0.2275
    3SAPS   O21  289   0.645   1.203  10.516  0.3750  0.4049 -0.6245
    3SAPS   C21  290   0.665   1.335  10.520 -0.6504 -0.3227  0.6371
    3SAPS   O22  291   0.770   1.392  10.548  0.3811 -0.1333 -0.2820
    3SAPS   C22  292   0.536   1.395  10.484 -0.2356 -0.0142 -0.3641
    3SAPS   H2R  293   0.459   1.323  10.448  0.0102 -0.8817  0.8016
    3SAPS   H2S  294   0.494   1.442  10.575  2.1513 -2.3882  2.1663
    3SAPS    C3  295   0.738   0.985  10.461  0.0501 -0.8884  0.5547
    3SAPS    HX  296   0.650   0.947  10.517 -0.2736 -0.0916  0.6009
    3SAPS    HY  297   0.831   0.927  10.477  1.6337  1.2181 -0.4599
    3SAPS   O31  298   0.731   1.000  10.322  0.0107  0.7491  0.6312
    3SAPS   C31  299   0.631   0.940  10.266 -0.3357  0.2761  0.3057
    3SAPS   O32  300   0.520   0.920  10.319 -0.0611 -0.0767 -0.8731
    3SAPS   C32  301   0.679   0.913  10.121 -0.2797 -0.0691  0.2028
    3SAPS   H2X  302   0.785   0.879  10.132 -0.7300 -0.7114  3.6089
    3SAPS   H2Y  303   0.680   1.003  10.057 -0.4791  0.6993  1.2577
    3SAPS   C23  304   0.551   1.489  10.359  0.3337 -0.2456 -1.5122
    3SAPS   H3R  305   0.590   1.591  10.383  0.0231 -0.6300  0.8682
    3SAPS   H3S  306   0.454   1.521  10.315  1.0895  1.7683 -1.8672
    3SAPS   C24  307   0.638   1.431  10.245 -0.4403  0.3131  0.1097
    3SAPS   H4R  308   0.740   1.409  10.282  0.7306  1.6509 -2.1560
    3SAPS   H4S  309   0.649   1.512  10.171 -1.7770 -0.5638 -1.1099
    3SAPS   C25  310   0.577   1.311  10.171 -0.2953  0.2176  0.1251
    3SAPS   H5R  311   0.562   1.224  10.237  0.6042  0.2224  0.3438
    3SAPS   C26  312   0.534   1.308  10.039 -0.3496  0.1798 -0.2277
    3SAPS   H6R  313   0.499   1.211   9.999  0.8694  0.1840 -1.3645
    3SAPS   C27  314   0.528   1.424   9.936  0.3980  0.1234 -0.0313
    3SAPS   H7R  315   0.494   1.522   9.975  1.4209  0.7195 -0.5793
    3SAPS   H7S  316   0.444   1.386   9.874  0.3073  0.7208 -0.2779
    3SAPS   C28  317   0.662   1.435   9.865 -0.0955 -0.6657 -0.1040
    3SAPS   H8R  318   0.748   1.448   9.932  0.3744 -0.1943 -0.7859
    3SAPS   C29  319   0.696   1.427   9.732 -0.3832 -0.1618 -0.8117
    3SAPS   H9R  320   0.802   1.436   9.705  0.9557 -0.8537  3.4341
    3SAPS  C210  321   0.597   1.422   9.619  0.4156  0.0854 -0.3271
    3SAPS  H10R  322   0.631   1.482   9.532 -0.9091  1.3705  0.0068
    3SAPS  H10S  323   0.500   1.466   9.651 -0.2490 -1.2880 -0.3516
    3SAPS  C211  324   0.560   1.278   9.589  0.1963 -0.1902 -0.2050
    3SAPS  H11R  325   0.510   1.229   9.673  0.2394 -0.1273 -0.1424
    3SAPS  C212  326   0.571   1.211   9.472 -0.5722  0.0557 -0.2159
    3SAPS  H12R  327   0.566   1.101   9.469  0.5834 -0.0246  0.2249
    3SAPS  C213  328   0.639   1.275   9.350 -0.1204  0.4444  0.7692
    3SAPS  H13R  329   0.718   1.207   9.312 -0.5069  1.2465 -1.6385
    3SAPS  H13S  330   0.690   1.371   9.374  1.4325 -0.1836  0.1174
    3SAPS  C214  331   0.543   1.315   9.237 -0.3952  0.9716 -0.0458
    3SAPS  H14R  332   0.459   1.380   9.267 -0.6163  0.7609 -0.2052
    3SAPS  C215  333   0.563   1.286   9.106 -0.0816 -0.2047  0.0958
    3SAPS  H15R  334   0.487   1.309   9.029  0.7738  1.8604 -0.2029
    3SAPS  C216  335   0.686   1.226   9.032 -0.1491  0.1252 -0.6310
    3SAPS  H16R  336   0.653   1.151   8.957 -2.5735 -2.1778  2.5078
    3SAPS  H16S  337   0.751   1.187   9.114 -0.4097  2.6246  0.8877
    3SAPS  C217  338   0.777   1.328   8.964  0.0345 -0.4740 -0.2241
    3SAPS  H17R  339   0.862   1.273   8.917 -0.8501 -2.6337  0.5571
    3SAPS  H17S  340   0.819   1.395   9.042  2.3663 -2.4777  0.3989
    3SAPS  C218  341   0.718   1.391   8.843 -0.0862 -0.1044  0.1011
    3SAPS  H18R  342   0.610   1.409   8.860 -0.4641  0.9797 -2.8050
    3SAPS  H18S  343   0.713   1.316   8.761 -1.0374  0.3386 -0.2645
    3SAPS  C219  344   0.786   1.519   8.803 -0.1231 -0.7668  0.0884
    3SAPS  H19R  345   0.742   1.575   8.719 -2.0967 -0.4870  1.2501
    3SAPS  H19S  346   0.891   1.485   8.788  0.4830  0.7315  0.6869
    3SAPS  C220  347   0.800   1.626   8.912 -0.4128  0.1394  0.0226
    3SAPS  H20R  348   0.721   1.620   8.990 -2.2535 -0.1439 -1.7815
    3SAPS  H20S  349   0.801   1.732   8.878 -0.4244  0.8727  2.1859
    3SAPS  H20T  350   0.898   1.609   8.962 -0.9538  0.4663  1.2362
    3SAPS   C33  351   0.593   0.804  10.049  0.5354  0.1293 -0.1463
    3SAPS   H3X  352   0.487   0.832  10.060  0.7899  0.5275  1.6253
    3SAPS   H3Y  353   0.612   0.706  10.098  1.3524  0.0995 -0.5008
    3SAPS   C34  354   0.606   0.786   9.897 -0.4124 -0.0467  0.6534
    3SAPS   H4X  355   0.527   0.716   9.864  1.2446 -1.7644  0.1874
    3SAPS   H4Y  356   0.701   0.739   9.864 -1.8352 -2.7645  0.1412
    3SAPS   C35  357   0.590   0.920   9.820  0.3878 -0.3979 -0.4374
    3SAPS   H5X  358   0.684   0.979   9.820  0.2696 -0.1811 -1.9685
    3SAPS   H5Y  359   0.510   0.980   9.869  0.5975 -0.7931  0.3994
    3SAPS   C36  360   0.549   0.885   9.676  0.1784  0.1204 -0.5323
    3SAPS   H6X  361   0.581   0.979   9.625  0.3716 -0.2091 -1.0158
    3SAPS   H6Y  362   0.439   0.879   9.660  0.1267  1.1692 -0.6491
    3SAPS   C37  363   0.623   0.761   9.611 -0.2964 -0.2620  0.3435
    3SAPS   H7X  364   0.624   0.669   9.674  1.4392  1.1606  2.5550
    3SAPS   H7Y  365   0.731   0.784   9.612 -0.6293  1.3925  0.7775
    3SAPS   C38  366   0.595   0.733   9.454  0.8963 -0.4854 -0.0094
    3SAPS   H8X  367   0.485   0.736   9.442  0.9660 -1.5981 -1.2817
    3SAPS   H8Y  368   0.613   0.625   9.433  1.0584 -0.0914 -2.1395
    3SAPS   C39  369   0.661   0.833   9.358  0.0081 -0.5128  0.3800
    3SAPS   H9X  370   0.771   0.818   9.360  0.5658  2.4048 -1.8943
    3SAPS   H9Y  371   0.643   0.940   9.382 -0.3239 -0.9017  1.9880
    3SAPS  C310  372   0.622   0.797   9.211 -0.3073 -0.3212 -0.6833
    3SAPS  H10X  373   0.640   0.688   9.198  3.2635  0.0713 -0.1946
    3SAPS  H10Y  374   0.688   0.851   9.139 -0.9646  2.7894  0.8919
    3SAPS  C311  375   0.480   0.851   9.182 -0.1218  0.4610 -0.6092
    3SAPS  H11X  376   0.473   0.951   9.228 -2.1952 -0.0015  0.2038
    3SAPS  H11Y  377   0.405   0.799   9.247  2.9391 -1.0425  2.0036
    3SAPS  C312  378   0.442   0.873   9.031  0.4066  0.1467 -0.6675
    3SAPS  H12X  379   0.530   0.927   8.990 -0.8274  1.6706 -1.4363
    3SAPS  H12Y  380   0.356   0.943   9.036  1.7136  1.7670  0.2161
    3SAPS  C313  381   0.413   0.744   8.951  0.1601 -0.2761 -0.2800
    3SAPS  H13X  382   0.340   0.767   8.871 -0.6121 -0.8361  0.2503
    3SAPS  H13Y  383   0.356   0.668   9.009  0.2829 -2.7351 -3.1145
    3SAPS  C314  384   0.529   0.677   8.887 -0.8057  1.0124 -0.9488
    3SAPS  H14X  385   0.597   0.648   8.971  0.2315 -0.0774 -2.1235
    3SAPS  H14Y  386   0.591   0.738   8.818 -2.7627  1.1449 -2.6761
    3SAPS  C315  387   0.500   0.554   8.802 -0.7386  0.2031 -0.5516
    3SAPS  H15X  388   0.419   0.586   8.734  0.3522  0.9045 -1.5611
    3SAPS  H15Y  389   0.474   0.472   8.872  2.0542 -0.0168  0.3849
    3SAPS  C316  390   0.623   0.503   8.725 -0.1170  0.3748  0.5928
    3SAPS  H16X  391   0.654   0.581   8.652  0.9717 -0.4518  0.1471
    3SAPS  H16Y  392   0.580   0.415   8.672 -0.0482  1.0696 -0.6346
    3SAPS  C317  393   0.744   0.447   8.810 -0.2324 -0.1476  0.7006
    3SAPS  H17X  394   0.782   0.532   8.871 -0.7988 -1.9927  3.8036
    3SAPS  H17Y  395   0.822   0.409   8.740 -0.3930  0.7054  0.0439
    3SAPS  C318  396   0.710   0.334   8.907  0.1366 -0.2804  0.0005
    3SAPS  H18X  397   0.639   0.256   8.873 -0.3990 -0.3859  1.2940
    3SAPS  H18Y  398   0.633   0.376   8.976  0.0845  0.8213 -0.7052
    3SAPS  H18Z  399   0.800   0.293   8.956  0.1246  0.1222  0.3743
    4SAPS     N  400   2.550   1.998  10.962  0.4636 -0.4211 -0.3848
    4SAPS   HN1  401   2.505   2.070  11.023 -0.1784 -0.7857 -0.4203
    4SAPS   HN2  402   2.651   2.018  10.946  0.1581  1.4846 -0.2681
    4SAPS   HN3  403   2.497   1.997  10.873 -1.8245 -1.8964  0.9011
    4SAPS   C12  404   2.535   1.864  11.036  0.3064  0.1345  0.2962
    4SAPS  H12A  405   2.579   1.875  11.134  3.5805 -3.4755 -0.5186
    4SAPS   C13  406   2.383   1.837  11.064  0.4422  0.3457 -0.0933
    4SAPS  O13A  407   2.297   1.924  11.032  0.0582  0.4590 -0.3251
    4SAPS  O13B  408   2.348   1.738  11.136  0.4371  0.8007 -0.4263
    4SAPS   C11  409   2.594   1.762  10.936 -0.2878  0.5829  0.3118
    4SAPS  H11A  410   2.528   1.768  10.848 -1.6185  3.3436  1.3726
    4SAPS  H11B  411   2.588   1.659  10.978  0.9555  1.1058  1.9050
    4SAPS     P  412   2.804   1.666  10.818  0.4015  0.3126  0.2988
    4SAPS   O13  413   2.948   1.682  10.821 -0.7602  0.4339 -0.3138
    4SAPS   O14  414   2.753   1.533  10.849  0.6719  0.2968  0.2862
    4SAPS   O12  415   2.733   1.779  10.902 -1.2291 -0.0576 -0.2434
    4SAPS   O11  416   2.748   1.706  10.677  0.1996 -0.0704 -0.1954
    4SAPS    C1  417   2.730   1.838  10.626 -0.3126  0.8028 -0.3973
    4SAPS    HA  418   2.625   1.860  10.597 -0.0790  1.0134 -1.1017
    4SAPS    HB  419   2.757   1.917  10.699 -2.0730  0.9684  0.1439
    4SAPS    C2  420   2.815   1.873  10.501  0.2628 -0.0092  0.4864
    4SAPS    HS  421   2.848   1.978  10.488  2.5086 -0.6453  0.5553
    4SAPS   O21  422   2.746   1.838  10.378  0.3592  0.3930  0.4512
    4SAPS   C21  423   2.670   1.928  10.323 -0.2299 -0.5023 -0.0517
    4SAPS   O22  424   2.662   2.040  10.370 -0.4807 -0.2151 -0.6562
    4SAPS   C22  425   2.584   1.881  10.209 -0.0239  0.1178 -0.1749
    4SAPS   H2R  426   2.495   1.944  10.192  0.0973  0.0942 -0.9475
    4SAPS   H2S  427   2.651   1.885  10.120 -0.8077 -0.0593 -0.7894
    4SAPS    C3  428   2.947   1.794  10.501  0.2404  0.1384 -0.1317
    4SAPS    HX  429   2.915   1.688  10.510  0.4307  0.1831  1.3659
    4SAPS    HY  430   3.007   1.809  10.594 -1.9018  2.2648  1.0454
    4SAPS   O31  431   3.028   1.823  10.386 -0.1060 -0.1396 -0.1489
    4SAPS   C31  432   3.106   1.930  10.405 -0.7491 -0.3544  0.7620
    4SAPS   O32  433   3.104   2.008  10.500 -0.2185 -0.4971  0.6009
    4SAPS   C32  434   3.224   1.940  10.295 -0.2623  0.2082 -0.4624
    4SAPS   H2X  435   3.183   1.920  10.194  0.1159 -3.7103 -0.0044
    4SAPS   H2Y  436   3.303   1.867  10.325 -2.9432 -1.7701  2.4911
    4SAPS   C23  437   2.539   1.728  10.206  0.0177 -0.5448  0.6478
    4SAPS   H3R  438   2.463   1.711  10.286 -0.6000  2.4418  0.8369
    4SAPS   H3S  439   2.626   1.663  10.231  0.6535 -0.9231 -2.2500
    4SAPS   C24  440   2.472   1.688  10.080 -0.2768  0.4915 -0.1932
    4SAPS   H4R  441   2.538   1.706   9.992 -1.5508  0.2153 -1.2530
    4SAPS   H4S  442   2.387   1.759  10.068  1.0595  3.0560  3.5481
    4SAPS   C25  443   2.432   1.539  10.091  0.1628 -0.0289  0.6348
    4SAPS   H5R  444   2.436   1.480  10.183  0.5771 -3.3622 -1.3393
    4SAPS   C26  445   2.395   1.470   9.981  0.7526  0.0444 -0.3072
    4SAPS   H6R  446   2.365   1.366   9.999 -1.3656  0.7613  0.6622
    4SAPS   C27  447   2.391   1.516   9.835  0.2076  0.8404 -0.1128
    4SAPS   H7R  448   2.467   1.475   9.764  0.9007  3.8139 -1.2531
    4SAPS   H7S  449   2.419   1.623   9.830  3.1518  0.4280  3.2259
    4SAPS   C28  450   2.262   1.485   9.765  0.0560 -0.4855 -0.5177
    4SAPS   H8R  451   2.178   1.465   9.833 -0.7928 -1.2391 -1.7338
    4SAPS   C29  452   2.232   1.484   9.637  0.3472  0.3538  0.3879
    4SAPS   H9R  453   2.128   1.449   9.629  0.5816 -0.1044 -0.9015
    4SAPS  C210  454   2.327   1.509   9.519 -0.1390 -0.5369 -0.4016
    4SAPS  H10R  455   2.341   1.415   9.461  0.9121  0.3670 -1.6673
    4SAPS  H10S  456   2.429   1.544   9.547  0.1915  1.5615 -3.7578
    4SAPS  C211  457   2.274   1.614   9.424 -0.9255  0.0860 -0.5931
    4SAPS  H11R  458   2.282   1.718   9.457 -2.8682 -0.4455  1.8911
    4SAPS  C212  459   2.194   1.598   9.317 -0.2577 -1.2159  0.0623
    4SAPS  H12R  460   2.163   1.686   9.259  0.3535 -0.3516  1.0066
    4SAPS  C213  461   2.143   1.465   9.275  0.7430  0.2463  0.2542
    4SAPS  H13R  462   2.191   1.376   9.323 -1.1607 -0.3823  1.0898
    4SAPS  H13S  463   2.163   1.458   9.166  1.8644 -1.1039  0.5043
    4SAPS  C214  464   1.995   1.461   9.317 -0.2601 -0.2865  0.5458
    4SAPS  H14R  465   1.977   1.422   9.418  1.1358 -0.4671  0.7468
    4SAPS  C215  466   1.889   1.493   9.241  0.2547  0.5745 -0.5814
    4SAPS  H15R  467   1.787   1.486   9.281  0.5913 -0.1131  0.1746
    4SAPS  C216  468   1.887   1.543   9.098  0.5944  0.0188 -0.1327
    4SAPS  H16R  469   1.832   1.466   9.041 -1.2661 -0.6315  2.3483
    4SAPS  H16S  470   1.983   1.551   9.044  0.8925 -0.9871  0.2393
    4SAPS  C217  471   1.824   1.683   9.088 -0.0735  0.2619 -0.1572
    4SAPS  H17R  472   1.800   1.703   8.981 -0.4571  0.2249 -0.0778
    4SAPS  H17S  473   1.895   1.762   9.118  2.0614 -0.9195 -1.7837
    4SAPS  C218  474   1.694   1.712   9.169 -1.0171  0.2911  0.3517
    4SAPS  H18R  475   1.717   1.716   9.278  0.0357  1.4013  0.1082
    4SAPS  H18S  476   1.633   1.621   9.150 -1.8269  0.3958  2.1815
    4SAPS  C219  477   1.624   1.842   9.132 -0.0094  0.1600 -0.0966
    4SAPS  H19R  478   1.700   1.915   9.168  0.6439 -0.7125  0.3395
    4SAPS  H19S  479   1.525   1.856   9.179 -0.4038  1.1814 -1.1881
    4SAPS  C220  480   1.588   1.859   8.987  0.2813 -0.2115  0.0599
    4SAPS  H20R  481   1.516   1.940   8.963  0.7696 -0.8414 -4.2231
    4SAPS  H20S  482   1.554   1.760   8.950 -0.0780 -0.2694  0.5302
    4SAPS  H20T  483   1.681   1.884   8.933  1.4982 -0.0449  2.1247
    4SAPS   C33  484   3.292   2.081  10.303 -0.2614 -0.5516  0.3726
    4SAPS   H3X  485   3.400   2.057  10.294  0.0237 -0.1447  2.2002
    4SAPS   H3Y  486   3.288   2.131  10.402  1.6660 -0.2363  0.3375
    4SAPS   C34  487   3.242   2.182  10.189 -0.8440 -0.3353 -0.1512
    4SAPS   H4X  488   3.133   2.201  10.199 -0.1948  3.3818  1.8450
    4SAPS   H4Y  489   3.264   2.128  10.095  2.8173  2.1010 -0.8885
    4SAPS   C35  490   3.322   2.311  10.169  0.7451  0.3662  0.3183
    4SAPS   H5X  491   3.432   2.294  10.163  0.4525 -2.1148  0.7885
    4SAPS   H5Y  492   3.312   2.370  10.263 -0.4138  0.4019  0.1836
    4SAPS   C36  493   3.266   2.395  10.055 -0.1244 -0.0656 -0.1020
    4SAPS   H6X  494   3.343   2.474  10.060  1.0267 -1.2327  2.4589
    4SAPS   H6Y  495   3.168   2.440  10.079 -0.7292 -0.3304 -1.8982
    4SAPS   C37  496   3.266   2.337   9.913  0.1789  0.1972  0.2834
    4SAPS   H7X  497   3.183   2.264   9.900  1.3869 -1.0753 -0.6381
    4SAPS   H7Y  498   3.362   2.287   9.889  0.3543  0.5237  0.2997
    4SAPS   C38  499   3.256   2.456   9.805  0.2620 -0.3356 -0.4786
    4SAPS   H8X  500   3.359   2.497   9.801  0.2412 -0.2307  0.0346
    4SAPS   H8Y  501   3.184   2.535   9.836 -0.4272 -1.7507  1.8547
    4SAPS   C39  502   3.242   2.405   9.659  0.0640  0.2384 -0.8683
    4SAPS   H9X  503   3.145   2.351   9.655  1.0931 -1.9685  1.4395
    4SAPS   H9Y  504   3.318   2.327   9.637  0.9102 -0.1185  2.7368
    4SAPS  C310  505   3.231   2.510   9.547 -0.0759 -0.3826  0.1723
    4SAPS  H10X  506   3.297   2.598   9.563  3.0790 -2.8381  1.8587
    4SAPS  H10Y  507   3.124   2.539   9.545 -0.0749 -0.1309  2.0906
    4SAPS  C311  508   3.258   2.441   9.414  0.0201  0.8209  0.5548
    4SAPS  H11X  509   3.202   2.345   9.415  1.6941 -0.1838  1.0310
    4SAPS  H11Y  510   3.365   2.414   9.405 -0.4204 -0.7753 -0.3479
    4SAPS  C312  511   3.205   2.512   9.286  0.3899 -0.0880  1.0344
    4SAPS  H12X  512   3.257   2.607   9.263 -2.3936  1.1894 -0.5947
    4SAPS  H12Y  513   3.099   2.538   9.307  0.3600  1.4806 -0.7989
    4SAPS  C313  514   3.204   2.413   9.173  0.6730  0.6690 -0.0990
    4SAPS  H13X  515   3.150   2.319   9.200  1.3054  0.5872  0.9353
    4SAPS  H13Y  516   3.309   2.388   9.149  1.0690 -0.5770  2.5074
    4SAPS  C314  517   3.123   2.456   9.045  0.4929 -0.2112  0.2259
    4SAPS  H14X  518   3.150   2.556   9.005 -2.7808  1.2334  1.3152
    4SAPS  H14Y  519   3.017   2.475   9.073  1.2071 -0.5049  3.5401
    4SAPS  C315  520   3.133   2.350   8.932  0.5782  0.1624  0.0972
    4SAPS  H15X  521   3.069   2.262   8.954 -0.8869  1.1089 -0.2601
    4SAPS  H15Y  522   3.239   2.319   8.920  0.8538 -0.2282  2.8857
    4SAPS  C316  523   3.091   2.405   8.796  0.2027 -0.6407  0.6158
    4SAPS  H16X  524   3.103   2.327   8.717  0.3114  0.0472 -0.0677
    4SAPS  H16Y  525   3.163   2.486   8.774  0.2296 -1.0396 -0.9282
    4SAPS  C317  526   2.944   2.468   8.795  0.6565 -0.1379  0.2259
    4SAPS  H17X  527   2.932   2.565   8.848 -2.3108 -1.3657  2.0617
    4SAPS  H17Y  528   2.882   2.394   8.851 -1.3388  0.7449 -0.7247
    4SAPS  C318  529   2.893   2.485   8.656  0.4375  0.0384 -0.6672
    4SAPS  H18X  530   2.885   2.592   8.627  0.7681 -0.4572 -2.6836
    4SAPS  H18Y  531   2.798   2.432   8.636 -0.5202  1.4777 -0.0952
    4SAPS  H18Z  532   2.970   2.453   8.583  1.6596  2.4361 -0.5384
    5SAPS     N  533   1.195   3.143  11.119 -0.1029 -0.0010  0.0990
    5SAPS   HN1  534   1.180   3.098  11.026 -1.1500  2.4350 -0.9905
    5SAPS   HN2  535   1.111   3.203  11.130 -0.5382 -0.3663 -1.1449
    5SAPS   HN3  536   1.274   3.209  11.102  0.2870 -0.8387 -1.5706
    5SAPS   C12  537   1.212   3.049  11.233  0.0808  0.2039 -0.2175
    5SAPS  H12A  538   1.313   3.014  11.217 -0.8600 -1.4279 -3.6016
    5SAPS   C13  539   1.189   3.117  11.379  1.1200  0.2393  0.3347
    5SAPS  O13A  540   1.160   3.242  11.388 -0.6566  0.5152 -0.7146
    5SAPS  O13B  541   1.180   3.044  11.480  0.6161  0.8898 -0.4923
    5SAPS   C11  542   1.108   2.934  11.203 -0.3079 -1.4191 -0.7768
    5SAPS  H11A  543   1.004   2.968  11.220  0.4514  0.6044  0.1560
    5SAPS  H11B  544   1.130   2.859  11.282  1.1434  0.5217  0.7620
    5SAPS     P  545   1.091   2.737  11.036 -0.0640 -0.0465 -0.1897
    5SAPS   O13  546   1.204   2.679  10.958  0.3002  0.2536 -0.3801
    5SAPS   O14  547   1.040   2.668  11.160 -0.3693  0.2338 -0.3489
    5SAPS   O12  548   1.123   2.883  11.073 -0.4429 -0.1392  0.0841
    5SAPS   O11  549   0.974   2.750  10.933  0.8190  0.2667 -0.2042
    5SAPS    C1  550   0.951   2.862  10.854 -0.0938 -0.1135  0.1790
    5SAPS    HA  551   0.860   2.911  10.895  0.4072  0.9616  0.0385
    5SAPS    HB  552   1.024   2.945  10.861  0.0132 -0.2357  0.5002
    5SAPS    C2  553   0.927   2.829  10.710  0.9834  0.1252 -0.3460
    5SAPS    HS  554   0.819   2.809  10.694  0.9380  1.2648 -1.6584
    5SAPS   O21  555   1.021   2.733  10.670  0.4033 -0.4033  0.0493
    5SAPS   C21  556   0.968   2.624  10.611 -0.1154 -0.1089 -0.6075
    5SAPS   O22  557   0.849   2.599  10.601  0.8511  0.3330  0.0802
    5SAPS   C22  558   1.078   2.537  10.538  0.2739 -0.2081  0.5980
    5SAPS   H2R  559   1.176   2.565  10.581 -0.6369  2.7384  0.9930
    5SAPS   H2S  560   1.051   2.430  10.547 -0.7136 -0.0194  0.1509
    5SAPS    C3  561   0.942   2.956  10.625  0.3972  0.2526 -0.7006
    5SAPS    HX  562   1.046   2.991  10.640  0.9371 -0.8835 -1.5905
    5SAPS    HY  563   0.858   3.024  10.651  0.4837  0.4446 -0.9244
    5SAPS   O31  564   0.922   2.912  10.487  0.4768 -0.3979  0.2446
    5SAPS   C31  565   0.831   2.973  10.408  0.2247 -0.1369 -0.3889
    5SAPS   O32  566   0.747   3.053  10.446  0.6134  0.6929  0.3910
    5SAPS   C32  567   0.842   2.905  10.272  0.0302  0.0502 -0.3347
    5SAPS   H2X  568   0.851   2.796  10.290  1.5467  0.5110  2.2534
    5SAPS   H2Y  569   0.935   2.950  10.229  0.5890 -1.0202 -0.2700
    5SAPS   C23  570   1.094   2.584  10.391  0.3133 -0.0284 -0.2506
    5SAPS   H3R  571   1.105   2.695  10.387 -0.9687  0.0826 -1.5456
    5SAPS   H3S  572   0.997   2.567  10.339  0.6990 -1.7995 -0.4311
    5SAPS   C24  573   1.219   2.536  10.312  0.0600 -0.0912 -0.1127
    5SAPS   H4R  574   1.309   2.578  10.363 -0.5651  1.2675 -0.0766
    5SAPS   H4S  575   1.216   2.581  10.211  0.8101  0.4295  0.0897
    5SAPS   C25  576   1.215   2.384  10.308  0.5776  0.5238 -0.2474
    5SAPS   H5R  577   1.244   2.331  10.400  0.5830 -1.8332 -1.5483
    5SAPS   C26  578   1.203   2.310  10.195  0.3289 -0.6738  0.6923
    5SAPS   H6R  579   1.227   2.204  10.207  0.1900 -0.9217 -0.9739
    5SAPS   C27  580   1.190   2.359  10.057  0.1129  0.0663 -0.2347
    5SAPS   H7R  581   1.280   2.319  10.006  1.7772  1.8036  1.1832
    5SAPS   H7S  582   1.190   2.470  10.043  0.9321  0.3631  1.8091
    5SAPS   C28  583   1.063   2.306   9.996  0.3381  0.5084 -1.1676
    5SAPS   H8R  584   0.975   2.330  10.058  0.0281 -0.5733 -1.1678
    5SAPS   C29  585   1.049   2.237   9.888  0.4145  0.5892  0.1127
    5SAPS   H9R  586   0.950   2.220   9.844  1.1196  0.8089 -1.6391
    5SAPS  C210  587   1.162   2.184   9.805  0.1595  0.1137 -0.0831
    5SAPS  H10R  588   1.160   2.073   9.803  2.1738  0.0095  1.0366
    5SAPS  H10S  589   1.261   2.202   9.851  1.2190 -0.5466 -1.9999
    5SAPS  C211  590   1.168   2.247   9.664 -0.5168 -0.2969 -0.2354
    5SAPS  H11R  591   1.130   2.350   9.671 -2.0248 -0.8254 -0.2347
    5SAPS  C212  592   1.224   2.212   9.550  0.0846  0.9850  0.2527
    5SAPS  H12R  593   1.218   2.277   9.462  0.7718 -0.0887 -0.6050
    5SAPS  C213  594   1.307   2.080   9.523 -0.8151 -0.3161 -0.4597
    5SAPS  H13R  595   1.262   2.001   9.586 -2.2847  0.4714 -0.4768
    5SAPS  H13S  596   1.413   2.082   9.557 -0.6764  0.3649 -0.9156
    5SAPS  C214  597   1.295   2.043   9.372  0.2374  0.6767  0.0758
    5SAPS  H14R  598   1.209   1.977   9.357 -0.9353  2.0739  0.4163
    5SAPS  C215  599   1.388   2.070   9.283  0.5377 -0.4890  0.1124
    5SAPS  H15R  600   1.356   2.040   9.182 -1.2113  0.0266  0.4792
    5SAPS  C216  601   1.515   2.141   9.296 -0.0546  0.6608 -0.6045
    5SAPS  H16R  602   1.603   2.079   9.265  1.3034  1.8302  0.7688
    5SAPS  H16S  603   1.532   2.179   9.398  2.5903  2.0970 -1.4932
    5SAPS  C217  604   1.528   2.255   9.198  0.1830 -0.4035  0.0891
    5SAPS  H17R  605   1.457   2.337   9.219  2.2220  1.4095  0.2339
    5SAPS  H17S  606   1.500   2.216   9.097  1.8104  0.2044 -0.6348
    5SAPS  C218  607   1.675   2.304   9.188  0.4042  0.1203 -0.3970
    5SAPS  H18R  608   1.688   2.366   9.279  1.0446  0.7698 -0.9226
    5SAPS  H18S  609   1.756   2.228   9.198  1.1905  0.8425 -1.2285
    5SAPS  C219  610   1.700   2.373   9.052  0.1442 -0.6815  0.3044
    5SAPS  H19R  611   1.631   2.460   9.044 -1.2837 -1.9037 -1.5443
    5SAPS  H19S  612   1.684   2.301   8.968  0.3849  0.4997 -0.7856
    5SAPS  C220  613   1.845   2.427   9.027 -0.2228  0.5213 -1.1017
    5SAPS  H20R  614   1.882   2.472   9.122  0.8943 -0.4951 -1.0272
    5SAPS  H20S  615   1.858   2.501   8.945  2.1668 -0.6789 -1.8793
    5SAPS  H20T  616   1.911   2.339   9.012 -1.7787 -1.1377  1.1357
    5SAPS   C33  617   0.721   2.932  10.191  0.3137  1.1338 -0.0153
    5SAPS   H3X  618   0.709   3.042  10.178 -1.2855  1.1175  1.0144
    5SAPS   H3Y  619   0.625   2.897  10.234  1.6194 -1.8368  0.7149
    5SAPS   C34  620   0.729   2.866  10.047 -0.2908 -0.2731  0.1881
    5SAPS   H4X  621   0.718   2.756  10.060 -1.0415 -0.7762 -3.4147
    5SAPS   H4Y  622   0.829   2.894  10.007 -0.8380 -0.7016 -1.5922
    5SAPS   C35  623   0.626   2.920   9.956 -0.1822  0.1275  0.0514
    5SAPS   H5X  624   0.661   3.026   9.953 -1.4358  0.6185  1.6529
    5SAPS   H5Y  625   0.524   2.904   9.997 -0.6934 -3.7118 -2.2217
    5SAPS   C36  626   0.627   2.852   9.818  0.0585  0.4002  0.5199
    5SAPS   H6X  627   0.602   2.744   9.827 -0.0457  0.2914 -0.8440
    5SAPS   H6Y  628   0.728   2.861   9.773 -0.2919  0.7102 -0.2318
    5SAPS   C37  629   0.504   2.900   9.729  0.3874 -0.4140 -0.2346
    5SAPS   H7X  630   0.521   3.007   9.703  1.0212 -0.1329  1.2512
    5SAPS   H7Y  631   0.410   2.908   9.787  1.6146  2.7788  1.5978
    5SAPS   C38  632   0.482   2.824   9.600 -0.6169 -0.1593 -0.7269
    5SAPS   H8X  633   0.394   2.866   9.547 -2.0393 -1.7527  0.2891
    5SAPS   H8Y  634   0.466   2.716   9.621  3.1371 -0.9230 -1.1139
    5SAPS   C39  635   0.603   2.817   9.508 -0.1179 -0.0452 -0.4809
    5SAPS   H9X  636   0.665   2.735   9.550  1.4389 -0.0051 -2.5249
    5SAPS   H9Y  637   0.666   2.908   9.511  0.2832 -0.3268 -0.2680
    5SAPS  C310  638   0.559   2.800   9.362  0.1993 -0.5387  0.5918
    5SAPS  H10X  639   0.519   2.895   9.322  1.2436 -0.4732 -0.3313
    5SAPS  H10Y  640   0.469   2.735   9.356  0.6149 -1.2716  1.8155
    5SAPS  C311  641   0.671   2.735   9.275 -0.2499  0.0494 -0.1743
    5SAPS  H11X  642   0.673   2.628   9.305 -1.7609  0.2839  0.8808
    5SAPS  H11Y  643   0.769   2.781   9.298 -0.8710  2.4330 -1.8247
    5SAPS  C312  644   0.626   2.750   9.132 -0.4791 -0.4034  0.4730
    5SAPS  H12X  645   0.595   2.852   9.102  0.7996 -0.2701 -0.4491
    5SAPS  H12Y  646   0.537   2.683   9.133 -1.1515  0.4078  3.4766
    5SAPS  C313  647   0.721   2.693   9.023  0.4674 -0.1865 -0.0314
    5SAPS  H13X  648   0.725   2.583   9.035 -1.4822 -0.4636 -1.5106
    5SAPS  H13Y  649   0.821   2.736   9.046  0.7186 -1.0246  0.5011
    5SAPS  C314  650   0.660   2.719   8.880 -0.3128 -0.3182 -0.3778
    5SAPS  H14X  651   0.556   2.750   8.899  0.5992  2.1099  1.1539
    5SAPS  H14Y  652   0.666   2.623   8.826  0.6909 -0.1895 -0.5149
    5SAPS  C315  653   0.718   2.829   8.789 -0.2894  0.0719  0.0269
    5SAPS  H15X  654   0.807   2.777   8.747  0.5220 -0.3008  2.0896
    5SAPS  H15Y  655   0.754   2.908   8.858  0.7035 -1.3975  1.2564
    5SAPS  C316  656   0.619   2.880   8.680 -0.1597 -0.6380 -0.5109
    5SAPS  H16X  657   0.560   2.968   8.715  2.1078  1.3710 -1.4659
    5SAPS  H16Y  658   0.541   2.802   8.666  0.2026 -1.0245 -0.3813
    5SAPS  C317  659   0.685   2.914   8.545  0.3172  0.6164 -0.9924
    5SAPS  H17X  660   0.601   2.937   8.475 -1.1345 -2.7762 -0.5819
    5SAPS  H17Y  661   0.726   2.824   8.495  0.4938  0.2507 -0.1857
    5SAPS  C318  662   0.779   3.029   8.562 -0.3463 -0.1462 -0.2688
    5SAPS  H18X  663   0.786   3.080   8.464  0.7034  2.0944  0.9005
    5SAPS  H18Y  664   0.880   2.993   8.591 -1.3025 -2.3157  0.5671
    5SAPS  H18Z  665   0.749   3.101   8.641  0.3568  1.8354 -1.7466
    6SAPS     N  666   6.017   6.583  10.826  0.1226 -0.1612 -0.4211
    6SAPS   HN1  667   6.015   6.612  10.727  1.7661  0.6085 -0.2589
    6SAPS   HN2  668   6.003   6.666  10.886  1.8503  0.3159 -0.6164
    6SAPS   HN3  669   6.107   6.544  10.862  0.2054  0.8760  0.5256
    6SAPS   C12  670   5.901   6.496  10.852  0.1092  0.3056  0.0614
    6SAPS  H12A  671   5.938   6.404  10.810 -0.1821  0.0094  0.4473
    6SAPS   C13  672   5.858   6.480  10.997 -0.3459 -0.5421 -0.6017
    6SAPS  O13A  673   5.913   6.548  11.091  0.0392  0.9438  0.3404
    6SAPS  O13B  674   5.749   6.414  11.011 -0.2200 -0.3947 -0.4384
    6SAPS   C11  675   5.788   6.550  10.759 -0.1763  0.4130  0.3929
    6SAPS  H11A  676   5.752   6.648  10.798 -0.4722 -0.7031  3.2002
    6SAPS  H11B  677   5.701   6.480  10.762 -0.5456  0.8291 -0.3220
    6SAPS     P  678   5.737   6.604  10.517  0.1545  0.0640  0.0149
    6SAPS   O13  679   5.809   6.638  10.393  0.3162 -0.1093 -0.5755
    6SAPS   O14  680   5.645   6.489  10.514  0.8685 -0.4309  0.3952
    6SAPS   O12  681   5.838   6.565  10.629  0.3412  0.5931  0.1356
    6SAPS   O11  682   5.669   6.738  10.577 -0.1744  0.1608 -0.3721
    6SAPS    C1  683   5.726   6.860  10.598 -0.3625  0.5036  0.3220
    6SAPS    HA  684   5.658   6.920  10.663 -0.4014  0.1256  0.6354
    6SAPS    HB  685   5.824   6.846  10.649 -1.0287  1.3135  1.8886
    6SAPS    C2  686   5.759   6.934  10.468  0.0392 -1.0430 -0.0548
    6SAPS    HS  687   5.827   6.872  10.406  1.1773  0.0744  0.0356
    6SAPS   O21  688   5.817   7.058  10.496  0.3962 -0.0183  0.2436
    6SAPS   C21  689   5.944   7.052  10.540  0.1451  0.2996 -0.0768
    6SAPS   O22  690   6.024   6.957  10.546  0.2620 -0.1766 -0.0734
    6SAPS   C22  691   5.969   7.192  10.605 -0.7733  0.7038 -0.5261
    6SAPS   H2R  692   5.915   7.263  10.539  0.9831  1.4769 -1.1929
    6SAPS   H2S  693   5.926   7.199  10.707  0.8005 -1.1174  0.3284
    6SAPS    C3  694   5.628   6.953  10.387 -0.0051  0.4896 -0.5387
    6SAPS    HX  695   5.548   6.997  10.449  0.5258  0.1218  0.4214
    6SAPS    HY  696   5.596   6.848  10.367  1.4338  0.1734 -1.3701
    6SAPS   O31  697   5.654   7.030  10.269 -0.0209  0.1299  0.0028
    6SAPS   C31  698   5.632   6.973  10.157  0.0652 -0.4335  0.5104
    6SAPS   O32  699   5.581   6.863  10.137 -0.1189 -0.3745  0.9430
    6SAPS   C32  700   5.663   7.058  10.038 -0.0736  0.5246 -0.1302
    6SAPS   H2X  701   5.772   7.082  10.034 -0.5616  2.8546 -0.8163
    6SAPS   H2Y  702   5.609   7.154  10.041  0.5350  0.9049 -0.9230
    6SAPS   C23  703   6.118   7.214  10.601  0.6491 -0.1352 -0.0680
    6SAPS   H3R  704   6.163   7.137  10.668  0.2386 -0.4155 -0.1123
    6SAPS   H3S  705   6.134   7.308  10.657 -1.1862 -0.1085  0.4633
    6SAPS   C24  706   6.171   7.240  10.457 -0.0828 -0.3054 -1.1088
    6SAPS   H4R  707   6.171   7.140  10.409 -0.8424 -0.1029 -1.5544
    6SAPS   H4S  708   6.274   7.275  10.480 -0.9351  1.8858 -0.4062
    6SAPS   C25  709   6.103   7.342  10.375  0.7779  0.8825  0.0740
    6SAPS   H5R  710   6.136   7.445  10.398 -0.5372  1.7360 -1.6281
    6SAPS   C26  711   6.044   7.317  10.260  0.4546 -0.2243 -0.3783
    6SAPS   H6R  712   6.003   7.404  10.206  1.3670  1.0983  0.9771
    6SAPS   C27  713   6.004   7.182  10.202  0.1278  0.2271 -0.3914
    6SAPS   H7R  714   5.898   7.194  10.169 -0.9879  0.1795  2.7570
    6SAPS   H7S  715   5.991   7.097  10.273 -5.1645  0.4815 -0.6484
    6SAPS   C28  716   6.089   7.123  10.098  0.3194  0.2810  0.1400
    6SAPS   H8R  717   6.141   7.033  10.134  0.8807 -0.7095 -2.8200
    6SAPS   C29  718   6.116   7.159   9.971  0.2305 -0.3331 -0.4005
    6SAPS   H9R  719   6.170   7.090   9.904 -1.5022  0.0970 -2.3310
    6SAPS  C210  720   6.066   7.286   9.904  0.0053 -0.2078 -0.4620
    6SAPS  H10R  721   6.054   7.372   9.974  1.2789 -0.4601  0.0933
    6SAPS  H10S  722   5.963   7.264   9.868  0.2023  0.4853 -1.4996
    6SAPS  C211  723   6.146   7.337   9.789 -0.0488 -0.1218  0.4989
    6SAPS  H11R  724   6.225   7.405   9.824 -0.3639  0.1244  0.7483
    6SAPS  C212  725   6.120   7.315   9.659  0.3352 -0.5219  0.6412
    6SAPS  H12R  726   6.185   7.368   9.588 -1.1311  1.8568  0.9533
    6SAPS  C213  727   6.001   7.230   9.607 -0.7797 -0.2229  0.7665
    6SAPS  H13R  728   5.912   7.293   9.587 -0.8567  0.0905  2.0229
    6SAPS  H13S  729   5.972   7.155   9.684  1.6398 -4.0880 -1.7268
    6SAPS  C214  730   6.031   7.171   9.478  0.0803  0.5950 -0.1338
    6SAPS  H14R  731   6.074   7.070   9.484 -0.7379  0.0323 -2.6570
    6SAPS  C215  732   6.023   7.219   9.351  0.1487 -0.4323  0.4343
    6SAPS  H15R  733   6.035   7.149   9.267 -1.6600 -0.5257  0.2225
    6SAPS  C216  734   5.961   7.351   9.317  0.8207  0.6742 -0.8105
    6SAPS  H16R  735   5.964   7.439   9.384  1.5338  2.6016 -3.2103
    6SAPS  H16S  736   5.854   7.330   9.296  0.7174  0.1822  0.1440
    6SAPS  C217  737   6.011   7.412   9.186 -0.1360  0.0119  0.3696
    6SAPS  H17R  738   5.998   7.332   9.109  1.4052  1.1388 -1.1535
    6SAPS  H17S  739   6.120   7.432   9.199 -0.2586  0.7272  0.3011
    6SAPS  C218  740   5.913   7.523   9.139  0.1747  0.2241 -1.0686
    6SAPS  H18R  741   5.924   7.594   9.224  2.8140 -0.2694 -0.8950
    6SAPS  H18S  742   5.812   7.479   9.125  0.5418 -0.2399 -2.4162
    6SAPS  C219  743   5.955   7.590   9.014  0.3270  0.1566  0.4961
    6SAPS  H19R  744   6.062   7.618   9.029  0.0058  0.1512  3.3534
    6SAPS  H19S  745   5.903   7.688   9.012 -0.7959 -0.4003 -2.0433
    6SAPS  C220  746   5.923   7.526   8.882  0.0752  0.4283  0.8251
    6SAPS  H20R  747   5.979   7.581   8.804  2.3543 -1.8223  0.7001
    6SAPS  H20S  748   5.815   7.539   8.864  0.2744 -0.7941 -1.8088
    6SAPS  H20T  749   5.957   7.420   8.870  0.4917  0.6667 -0.2662
    6SAPS   C33  750   5.642   6.981   9.901  0.2569 -0.1115  0.6689
    6SAPS   H3X  751   5.533   6.957   9.903  0.4002 -0.9930 -0.5224
    6SAPS   H3Y  752   5.697   6.885   9.893 -1.8996 -1.3245 -0.8107
    6SAPS   C34  753   5.666   7.065   9.777 -0.7255  0.1261  0.4575
    6SAPS   H4X  754   5.773   7.091   9.773 -1.3341  2.7367 -0.8104
    6SAPS   H4Y  755   5.634   7.170   9.795  0.0525  0.4818 -0.1897
    6SAPS   C35  756   5.616   7.021   9.641 -0.0335 -0.8663  1.2245
    6SAPS   H5X  757   5.507   7.003   9.646  0.1327 -1.9369  1.2447
    6SAPS   H5Y  758   5.651   6.918   9.618 -0.2810 -0.5915 -0.4626
    6SAPS   C36  759   5.649   7.116   9.526 -0.1955  0.1893 -0.3137
    6SAPS   H6X  760   5.760   7.126   9.529 -0.3121  1.3354  0.9339
    6SAPS   H6Y  761   5.610   7.218   9.546 -0.5059 -0.3748  2.2662
    6SAPS   C37  762   5.597   7.062   9.393 -0.7086  0.2654 -0.4793
    6SAPS   H7X  763   5.488   7.070   9.413 -0.8160 -0.7399 -0.6312
    6SAPS   H7Y  764   5.629   6.956   9.384  0.1033  0.5060 -0.5327
    6SAPS   C38  765   5.639   7.138   9.270 -0.1864  0.3289  0.8641
    6SAPS   H8X  766   5.744   7.109   9.250 -0.4197 -1.1032  1.5939
    6SAPS   H8Y  767   5.640   7.249   9.284  1.2360  0.4209  0.2229
    6SAPS   C39  768   5.544   7.111   9.146  0.4471 -0.0131  0.2768
    6SAPS   H9X  769   5.443   7.145   9.176  0.1407  0.6897 -1.4642
    6SAPS   H9Y  770   5.551   7.000   9.134  2.2152 -0.0839  1.4945
    6SAPS  C310  771   5.592   7.182   9.015 -0.3197 -0.6030 -0.3415
    6SAPS  H10X  772   5.694   7.141   8.998 -0.0170 -0.7062  1.5640
    6SAPS  H10Y  773   5.591   7.289   9.044  2.0500 -1.2418  2.5043
    6SAPS  C311  774   5.521   7.162   8.886  0.1289  0.1988  0.2897
    6SAPS  H11X  775   5.413   7.187   8.892  0.2717  1.2525 -1.1341
    6SAPS  H11Y  776   5.522   7.055   8.856 -1.2404  0.2586 -0.0611
    6SAPS  C312  777   5.594   7.242   8.766  0.4824 -0.4653 -0.4870
    6SAPS  H12X  778   5.702   7.218   8.769  0.2286 -1.6934  1.8103
    6SAPS  H12Y  779   5.593   7.352   8.781  1.5238 -0.6875  1.6354
    6SAPS  C313  780   5.538   7.204   8.628  0.8461 -0.4012 -0.4946
    6SAPS  H13X  781   5.433   7.243   8.623  0.8996 -0.0426  0.7540
    6SAPS  H13Y  782   5.540   7.093   8.621  0.7299 -0.3815 -0.9089
    6SAPS  C314  783   5.612   7.267   8.507  0.3437 -0.2014 -0.0436
    6SAPS  H14X  784   5.562   7.238   8.412  1.4616 -1.2262 -0.3544
    6SAPS  H14Y  785   5.716   7.226   8.503  0.6576  0.6366 -1.5651
    6SAPS  C315  786   5.613   7.424   8.508  0.0700  0.4246  0.1712
    6SAPS  H15X  787   5.665   7.464   8.597 -0.6133 -0.8102  1.1526
    6SAPS  H15Y  788   5.510   7.453   8.536 -0.1870 -1.6366  1.5696
    6SAPS  C316  789   5.656   7.479   8.365 -0.0773 -0.5236 -0.3681
    6SAPS  H16X  790   5.649   7.589   8.353  2.0720 -0.1836  0.9413
    6SAPS  H16Y  791   5.591   7.434   8.286 -0.6610  1.5081 -1.0919
    6SAPS  C317  792   5.800   7.446   8.317 -0.0577  0.0295  0.2946
    6SAPS  H17X  793   5.809   7.336   8.334  1.5962  0.2219  0.8883
    6SAPS  H17Y  794   5.869   7.496   8.389 -0.9231  2.5417 -0.5319
    6SAPS  C318  795   5.833   7.476   8.175  1.1259 -0.2316 -0.1785
    6SAPS  H18X  796   5.763   7.410   8.119 -0.9251  1.4241  0.3279
    6SAPS  H18Y  797   5.939   7.448   8.157  1.8546 -0.1187  3.1861
    6SAPS  H18Z  798   5.817   7.583   8.151  1.1770 -0.1072  0.3349
    7SAPS     N  799   3.037   0.920  11.074 -0.6627 -0.8182 -0.2920
    7SAPS   HN1  800   3.035   0.922  11.178  0.9883 -0.0514 -0.2327
    7SAPS   HN2  801   3.012   1.016  11.040  1.5535 -0.2686 -0.5551
    7SAPS   HN3  802   2.978   0.842  11.040 -0.0170 -0.3783 -2.6725
    7SAPS   C12  803   3.177   0.904  11.030 -0.3303 -0.3997  0.0345
    7SAPS  H12A  804   3.240   0.954  11.102  1.1903 -0.7990 -0.9719
    7SAPS   C13  805   3.228   0.763  11.012  0.6242 -0.0972  0.2332
    7SAPS  O13A  806   3.147   0.663  10.996  0.1202 -0.1139  0.2408
    7SAPS  O13B  807   3.353   0.743  11.021 -0.0168 -0.0220  0.5939
    7SAPS   C11  808   3.190   0.964  10.889  0.0954  1.0655 -0.5605
    7SAPS  H11A  809   3.139   0.890  10.823  2.2573 -1.9578  0.8813
    7SAPS  H11B  810   3.299   0.960  10.867  0.1205 -1.3277 -0.3584
    7SAPS     P  811   3.221   1.224  10.864  0.1777 -0.1130  0.2220
    7SAPS   O13  812   3.140   1.339  10.819 -0.5646  0.3308 -0.0578
    7SAPS   O14  813   3.276   1.256  10.992 -0.1689 -0.5815 -0.2673
    7SAPS   O12  814   3.128   1.093  10.881  0.1608  0.3703 -0.3594
    7SAPS   O11  815   3.331   1.176  10.765 -0.2484 -0.3248  0.6775
    7SAPS    C1  816   3.349   1.232  10.635 -0.1261  0.0193  0.6943
    7SAPS    HA  817   3.339   1.342  10.631 -0.1429 -0.0095 -1.8687
    7SAPS    HB  818   3.450   1.201  10.602  0.0816  1.4708 -0.0919
    7SAPS    C2  819   3.248   1.156  10.542  0.2987  0.7400 -0.9350
    7SAPS    HS  820   3.143   1.186  10.560  0.0595 -1.1481  1.4017
    7SAPS   O21  821   3.269   1.013  10.558  0.5949 -0.6597 -0.0990
    7SAPS   C21  822   3.157   0.944  10.532  0.2928 -0.2829 -0.8445
    7SAPS   O22  823   3.044   0.988  10.523 -0.2285  0.3824  0.3246
    7SAPS   C22  824   3.180   0.794  10.511  0.2794 -0.0256  0.4930
    7SAPS   H2R  825   3.240   0.745  10.591 -1.7957 -2.9359  0.4513
    7SAPS   H2S  826   3.083   0.745  10.536  0.6983 -0.7425  0.7588
    7SAPS    C3  827   3.276   1.192  10.389  0.1165 -1.0256  0.4826
    7SAPS    HX  828   3.230   1.121  10.317 -1.1592 -0.7043  0.9537
    7SAPS    HY  829   3.383   1.183  10.360  0.0320 -2.8744  0.6300
    7SAPS   O31  830   3.238   1.329  10.366 -0.6070 -0.1369  0.2564
    7SAPS   C31  831   3.104   1.359  10.362  0.6131  0.3468 -0.1861
    7SAPS   O32  832   3.014   1.280  10.376  0.0202 -0.0205  0.1206
    7SAPS   C32  833   3.082   1.502  10.311 -0.1710  1.2046  0.1245
    7SAPS   H2X  834   3.168   1.531  10.247 -0.5303  0.2205 -0.8384
    7SAPS   H2Y  835   3.073   1.558  10.406 -1.8272  1.6674 -0.2717
    7SAPS   C23  836   3.241   0.768  10.368  0.0858  0.5872 -0.8920
    7SAPS   H3R  837   3.348   0.795  10.366  0.8743 -0.4927  5.4353
    7SAPS   H3S  838   3.168   0.822  10.304 -0.3709  0.7296 -0.2652
    7SAPS   C24  839   3.230   0.620  10.316  0.0227 -0.5969 -0.4144
    7SAPS   H4R  840   3.256   0.628  10.209  2.4481 -0.0207  0.1622
    7SAPS   H4S  841   3.128   0.583  10.341 -0.3212 -1.7039 -3.0950
    7SAPS   C25  842   3.345   0.539  10.369  0.4065  0.5925 -0.0556
    7SAPS   H5R  843   3.340   0.534  10.479  1.4417  0.0631 -0.0200
    7SAPS   C26  844   3.458   0.485  10.320 -0.6525 -0.4959 -0.2649
    7SAPS   H6R  845   3.530   0.433  10.384 -1.5361  0.8947  2.0084
    7SAPS   C27  846   3.509   0.491  10.182  0.1252  0.1228  0.1292
    7SAPS   H7R  847   3.583   0.574  10.174 -0.0654  0.2734 -0.0925
    7SAPS   H7S  848   3.432   0.522  10.108 -1.1055  1.2919  1.8139
    7SAPS   C28  849   3.581   0.367  10.141 -0.1273  0.0917  0.3777
    7SAPS   H8R  850   3.600   0.287  10.214 -0.5044 -1.1702 -0.8520
    7SAPS   C29  851   3.607   0.328  10.014  0.6836  0.0643  0.2873
    7SAPS   H9R  852   3.660   0.233   9.995  1.9951  0.7564  0.3595
    7SAPS  C210  853   3.570   0.406   9.887 -0.0960 -0.2414 -0.8378
    7SAPS  H10R  854   3.665   0.429   9.835 -1.1852  1.9192 -2.0005
    7SAPS  H10S  855   3.536   0.507   9.916 -2.7350 -1.6667  1.6022
    7SAPS  C211  856   3.453   0.351   9.809 -0.0211 -0.8642  0.0745
    7SAPS  H11R  857   3.358   0.342   9.864 -0.4786  0.2555 -0.4944
    7SAPS  C212  858   3.467   0.319   9.679  0.3546  0.3667  0.1492
    7SAPS  H12R  859   3.376   0.271   9.639  1.3875 -0.4385 -1.3191
    7SAPS  C213  860   3.588   0.327   9.595  0.4710  0.3247  0.4843
    7SAPS  H13R  861   3.638   0.424   9.615  0.8665  0.2160  0.0306
    7SAPS  H13S  862   3.562   0.331   9.487  0.0215  0.3700  0.5915
    7SAPS  C214  863   3.686   0.215   9.613 -0.5241 -0.6685 -0.2615
    7SAPS  H14R  864   3.665   0.155   9.702  1.4889  0.7657  1.2462
    7SAPS  C215  865   3.791   0.181   9.539  0.6529 -0.1356  0.3407
    7SAPS  H15R  866   3.844   0.093   9.578 -0.2078 -1.0501 -0.4631
    7SAPS  C216  867   3.830   0.249   9.412 -0.2669  0.0785 -0.7286
    7SAPS  H16R  868   3.941   0.242   9.400  0.1429  3.2108  0.2734
    7SAPS  H16S  869   3.813   0.359   9.421 -0.1795 -0.0171  0.9048
    7SAPS  C217  870   3.752   0.193   9.294 -0.4387 -0.3443 -0.1846
    7SAPS  H17R  871   3.763   0.269   9.213 -1.0746  0.1342  0.1621
    7SAPS  H17S  872   3.645   0.192   9.324  0.5062 -0.2888  3.6697
    7SAPS  C218  873   3.787   0.051   9.266 -0.4906  0.4574 -0.0544
    7SAPS  H18R  874   3.785  -0.020   9.352 -1.2595  0.6259  0.0729
    7SAPS  H18S  875   3.891   0.043   9.227  0.3410 -1.1662  2.2812
    7SAPS  C219  876   3.698  -0.015   9.164  0.0725 -0.1604  0.3540
    7SAPS  H19R  877   3.724   0.039   9.070  0.2957  0.1097  0.5689
    7SAPS  H19S  878   3.593   0.002   9.193  0.7322  0.3173  2.6536
    7SAPS  C220  879   3.712  -0.165   9.153  0.2454  0.9095 -0.0742
    7SAPS  H20R  880   3.712  -0.224   9.247  0.1865  1.4993  0.3051
    7SAPS  H20S  881   3.806  -0.194   9.102  0.6024 -0.0890  1.1119
    7SAPS  H20T  882   3.626  -0.211   9.100 -1.1300  0.4881  2.3506
    7SAPS   C33  883   2.956   1.531  10.230  0.5591 -0.7877 -0.0974
    7SAPS   H3X  884   2.939   1.641  10.228 -0.6842 -0.9716 -1.1650
    7SAPS   H3Y  885   2.866   1.483  10.275  0.6908 -0.6900  0.2689
    7SAPS   C34  886   2.970   1.484  10.084  0.6184 -0.5399  0.0192
    7SAPS   H4X  887   2.929   1.381  10.076  1.3520 -0.7286 -1.7600
    7SAPS   H4Y  888   3.078   1.493  10.057  0.8365  0.4839  1.1806
    7SAPS   C35  889   2.879   1.575   9.992 -0.9198  0.4835  0.0347
    7SAPS   H5X  890   2.783   1.565  10.048 -0.6898  1.9214  0.7377
    7SAPS   H5Y  891   2.887   1.508   9.904 -1.3211  1.6221 -0.8978
    7SAPS   C36  892   2.930   1.720   9.958 -0.0543 -0.0322  0.4522
    7SAPS   H6X  893   3.033   1.717   9.916 -0.4234 -0.3692 -0.4771
    7SAPS   H6Y  894   2.928   1.783  10.049 -0.0886  2.6742 -1.3236
    7SAPS   C37  895   2.843   1.788   9.853  0.1157  0.1454 -0.3612
    7SAPS   H7X  896   2.882   1.892   9.842 -0.3734  0.3549 -0.1179
    7SAPS   H7Y  897   2.740   1.803   9.892 -0.0146 -0.8003 -0.3236
    7SAPS   C38  898   2.832   1.710   9.722  0.0609  0.3207  0.0846
    7SAPS   H8X  899   2.793   1.606   9.728  1.8834 -0.5798 -2.2475
    7SAPS   H8Y  900   2.934   1.691   9.681  0.0794 -0.7751  0.6226
    7SAPS   C39  901   2.749   1.782   9.617  0.5246 -0.5914 -0.0174
    7SAPS   H9X  902   2.788   1.885   9.603 -0.5849 -0.0883  0.3839
    7SAPS   H9Y  903   2.655   1.801   9.674  1.2741  0.7828  0.8196
    7SAPS  C310  904   2.740   1.713   9.485  0.5162 -0.4990  0.6032
    7SAPS  H10X  905   2.652   1.647   9.492  0.2383 -0.1485  0.4484
    7SAPS  H10Y  906   2.821   1.638   9.475  0.8047  0.0035 -1.3112
    7SAPS  C311  907   2.723   1.810   9.367 -0.9888 -0.3447  0.1384
    7SAPS  H11X  908   2.813   1.869   9.340 -0.6333 -1.8752 -2.3387
    7SAPS  H11Y  909   2.647   1.887   9.394 -1.2318 -0.5568  0.0581
    7SAPS  C312  910   2.709   1.720   9.244  0.0615  0.3900 -0.1152
    7SAPS  H12X  911   2.627   1.646   9.253  1.1324 -0.9790 -1.2120
    7SAPS  H12Y  912   2.801   1.659   9.231  0.5399  1.3334 -1.4452
    7SAPS  C313  913   2.709   1.793   9.107 -0.1913  0.0001  0.8090
    7SAPS  H13X  914   2.707   1.717   9.026 -2.6730  0.2899  0.5053
    7SAPS  H13Y  915   2.803   1.850   9.092 -0.7833  1.0842  1.0748
    7SAPS  C314  916   2.586   1.881   9.082 -0.3781  0.1740 -0.1112
    7SAPS  H14X  917   2.603   1.954   9.000 -0.5140  0.8942  0.4874
    7SAPS  H14Y  918   2.564   1.943   9.172 -1.5775  0.8091 -0.8207
    7SAPS  C315  919   2.471   1.797   9.038 -0.3225 -0.2641  0.2055
    7SAPS  H15X  920   2.380   1.860   9.032  0.0205  0.2273  0.0790
    7SAPS  H15Y  921   2.440   1.717   9.109 -0.8762  1.9635  2.6299
    7SAPS  C316  922   2.479   1.739   8.895 -0.2554 -0.3010  0.0506
    7SAPS  H16X  923   2.568   1.673   8.891  0.7715  0.9624  1.1530
    7SAPS  H16Y  924   2.488   1.823   8.822 -0.6652 -0.2007  0.1134
    7SAPS  C317  925   2.345   1.662   8.859  0.1855 -0.0709 -0.4893
    7SAPS  H17X  926   2.264   1.732   8.888  1.5505  0.1608  3.3174
    7SAPS  H17Y  927   2.339   1.572   8.924  0.2359  0.0046 -0.3792
    7SAPS  C318  928   2.340   1.617   8.713  0.5120 -0.5626  0.0657
    7SAPS  H18X  929   2.416   1.538   8.694  0.0867 -1.0085  0.1963
    7SAPS  H18Y  930   2.356   1.707   8.650  1.9335  0.2522  1.5087
    7SAPS  H18Z  931   2.240   1.577   8.690 -0.6955  2.3342 -0.1225
    8SAPS     N  932   4.121   4.506  10.828 -0.3076  0.0939 -0.3220
    8SAPS   HN1  933   4.170   4.495  10.737  2.0905  2.2239  0.5958
    8SAPS   HN2  934   4.044   4.435  10.831  0.0584 -0.2872  0.1367
    8SAPS   HN3  935   4.088   4.604  10.829 -1.8298 -0.3948  0.2692
    8SAPS   C12  936   4.211   4.496  10.943  0.0453  0.5158 -0.0684
    8SAPS  H12A  937   4.145   4.493  11.028  0.1956  0.2062  0.0400
    8SAPS   C13  938   4.296   4.364  10.951 -0.4418  0.6142 -0.1551
    8SAPS  O13A  939   4.290   4.279  10.858  0.1310  0.0924  0.0278
    8SAPS  O13B  940   4.373   4.345  11.050 -0.3214  0.1437 -0.2146
    8SAPS   C11  941   4.307   4.614  10.953 -0.4901 -0.5470 -0.1076
    8SAPS  H11A  942   4.369   4.612  10.861 -1.2453  1.5791 -0.7191
    8SAPS  H11B  943   4.382   4.597  11.034 -0.2836  0.4231 -0.0835
    8SAPS     P  944   4.332   4.881  10.936  0.2488 -0.0108  0.0282
    8SAPS   O13  945   4.251   5.003  10.961  0.3692  0.5391 -0.3103
    8SAPS   O14  946   4.447   4.856  11.028 -0.1223 -0.2972  0.1586
    8SAPS   O12  947   4.244   4.746  10.962  0.1886 -0.0994 -0.0858
    8SAPS   O11  948   4.372   4.878  10.782  0.4870 -0.0124 -0.4556
    8SAPS    C1  949   4.278   4.852  10.682  0.5019  0.6785  0.5470
    8SAPS    HA  950   4.278   4.745  10.653 -1.4371  0.4013  1.3641
    8SAPS    HB  951   4.174   4.879  10.710  0.6864  0.3553  1.6041
    8SAPS    C2  952   4.303   4.941  10.553  0.0492  0.1715  0.0900
    8SAPS    HS  953   4.206   4.946  10.499 -1.6695  0.3442  2.9326
    8SAPS   O21  954   4.407   4.893  10.459 -0.1516 -0.1966 -0.4314
    8SAPS   C21  955   4.385   4.776  10.411  0.0499  0.2257 -0.0073
    8SAPS   O22  956   4.280   4.714  10.423  0.3324 -0.1820 -0.2675
    8SAPS   C22  957   4.507   4.718  10.346 -0.6542 -0.4499  0.0450
    8SAPS   H2R  958   4.598   4.761  10.393 -0.9583  0.8085 -0.5033
    8SAPS   H2S  959   4.510   4.607  10.360  0.4651 -0.6813 -1.7888
    8SAPS    C3  960   4.342   5.084  10.593  0.2102  0.0064 -0.0534
    8SAPS    HX  961   4.444   5.109  10.631  0.4028  0.9137 -1.0976
    8SAPS    HY  962   4.283   5.102  10.686  3.0169 -1.2543  2.1334
    8SAPS   O31  963   4.310   5.178  10.486  0.7692  0.7064  0.2561
    8SAPS   C31  964   4.399   5.225  10.404 -0.4039 -0.1725  0.3982
    8SAPS   O32  965   4.522   5.209  10.412  0.4503  0.3402 -0.0511
    8SAPS   C32  966   4.329   5.299  10.289 -0.4215 -0.0658 -1.3528
    8SAPS   H2X  967   4.401   5.361  10.232  0.4717 -0.7066 -0.9490
    8SAPS   H2Y  968   4.255   5.367  10.336 -0.2852  0.1032 -1.3816
    8SAPS   C23  969   4.515   4.747  10.194  0.2105 -0.1279  0.5651
    8SAPS   H3R  970   4.618   4.725  10.160  0.4970  1.3201  0.4608
    8SAPS   H3S  971   4.505   4.856  10.178  0.5647  0.3788  3.3143
    8SAPS   C24  972   4.406   4.677  10.106 -0.1994  1.1441 -0.8139
    8SAPS   H4R  973   4.418   4.710  10.000  1.4187  2.0085 -0.3942
    8SAPS   H4S  974   4.311   4.724  10.139 -0.9341 -0.5236 -0.4177
    8SAPS   C25  975   4.398   4.530  10.130 -0.0968  0.0875 -0.3739
    8SAPS   H5R  976   4.339   4.507  10.220 -0.2349 -0.2783 -0.5565
    8SAPS   C26  977   4.448   4.434  10.046 -0.2352 -0.5024  0.1449
    8SAPS   H6R  978   4.430   4.329  10.074 -0.3618 -0.8618 -1.1973
    8SAPS   C27  979   4.524   4.462   9.920 -0.1597  0.5024 -0.7557
    8SAPS   H7R  980   4.610   4.392   9.918  0.6102  1.2397  1.9831
    8SAPS   H7S  981   4.576   4.560   9.921 -1.8178  1.4961 -3.0464
    8SAPS   C28  982   4.451   4.456   9.791 -0.1716 -0.3033  0.5352
    8SAPS   H8R  983   4.366   4.386   9.795  0.5110 -1.0952  1.7500
    8SAPS   C29  984   4.499   4.508   9.675  0.6825 -0.4110  0.0462
    8SAPS   H9R  985   4.435   4.516   9.586 -2.7197 -0.3889  2.3344
    8SAPS  C210  986   4.628   4.575   9.654  0.1926 -0.0733 -0.2257
    8SAPS  H10R  987   4.663   4.571   9.548 -1.0051 -0.2487 -0.6353
    8SAPS  H10S  988   4.698   4.529   9.727 -0.6514 -2.7927 -1.0090
    8SAPS  C211  989   4.623   4.724   9.689 -0.0064 -0.0225  0.7802
    8SAPS  H11R  990   4.596   4.743   9.794  3.0448 -0.1448  1.6869
    8SAPS  C212  991   4.650   4.840   9.615  0.2969  0.3733  0.2917
    8SAPS  H12R  992   4.635   4.940   9.660 -2.2453 -1.0045  2.8127
    8SAPS  C213  993   4.698   4.856   9.474 -0.2501  0.1698  0.3795
    8SAPS  H13R  994   4.701   4.761   9.417 -3.1207  0.7183 -0.8875
    8SAPS  H13S  995   4.802   4.894   9.481  0.2190 -1.0481  0.1981
    8SAPS  C214  996   4.611   4.944   9.379  0.1808  0.3611  0.1770
    8SAPS  H14R  997   4.516   4.890   9.370  0.5218 -0.3464  0.7126
    8SAPS  C215  998   4.644   5.056   9.318  0.3393 -0.6847  0.3917
    8SAPS  H15R  999   4.564   5.103   9.259 -0.2335 -1.4700  0.5346
    8SAPS  C216 1000   4.780   5.118   9.321  0.0048 -0.3167  0.5054
    8SAPS  H16R 1001   4.813   5.161   9.224 -0.1927  0.0371  0.5928
    8SAPS  H16S 1002   4.844   5.032   9.348 -1.9780 -0.8699  4.0425
    8SAPS  C217 1003   4.791   5.230   9.426  0.5824 -0.0572  0.0614
    8SAPS  H17R 1004   4.764   5.325   9.375  0.2443 -1.2133 -1.9939
    8SAPS  H17S 1005   4.902   5.228   9.436  0.8277  0.0316 -2.2572
    8SAPS  C218 1006   4.720   5.219   9.573 -0.3709 -0.1432  0.2393
    8SAPS  H18R 1007   4.749   5.123   9.622 -0.4152  0.5761  1.7218
    8SAPS  H18S 1008   4.610   5.208   9.557 -0.4892  1.0368  0.1755
    8SAPS  C219 1009   4.740   5.354   9.651  0.0584 -0.4433  0.3763
    8SAPS  H19R 1010   4.678   5.430   9.598  0.3518  0.6242  1.5353
    8SAPS  H19S 1011   4.846   5.384   9.638  0.3004 -0.7960  1.4473
    8SAPS  C220 1012   4.699   5.357   9.800 -0.3670 -0.2271 -0.4331
    8SAPS  H20R 1013   4.778   5.314   9.865  1.8165  2.4629 -1.1250
    8SAPS  H20S 1014   4.605   5.300   9.815 -0.8403  0.4345 -0.8456
    8SAPS  H20T 1015   4.680   5.462   9.829  0.4142 -0.3612  0.6093
    8SAPS   C33 1016   4.269   5.201  10.190  0.4916 -0.4103 -0.1697
    8SAPS   H3X 1017   4.195   5.266  10.137 -0.0119 -0.7748  0.0749
    8SAPS   H3Y 1018   4.212   5.117  10.236 -1.1136  1.1840  0.8957
    8SAPS   C34 1019   4.369   5.146  10.089  0.0037 -0.3646  0.2721
    8SAPS   H4X 1020   4.455   5.107  10.146  1.4047  0.7079 -1.0090
    8SAPS   H4Y 1021   4.409   5.227  10.023  1.0301  1.5087  3.0054
    8SAPS   C35 1022   4.308   5.035  10.006  0.0043 -0.3218  0.0334
    8SAPS   H5X 1023   4.208   5.065   9.967 -0.5684 -0.9942  0.9390
    8SAPS   H5Y 1024   4.299   4.942  10.067 -0.5865  0.5334  1.2864
    8SAPS   C36 1025   4.386   5.001   9.879  0.4176  0.0792 -0.4882
    8SAPS   H6X 1026   4.357   4.899   9.845  1.5982  0.3942 -2.5973
    8SAPS   H6Y 1027   4.497   4.993   9.890  0.2136 -0.8832  1.2699
    8SAPS   C37 1028   4.368   5.093   9.759 -0.8371  0.4287  1.0318
    8SAPS   H7X 1029   4.468   5.119   9.716 -0.9917  1.6219  1.3438
    8SAPS   H7Y 1030   4.332   5.196   9.779 -2.8726 -0.2313  0.9137
    8SAPS   C38 1031   4.287   5.025   9.649 -0.5376 -0.2036 -0.4630
    8SAPS   H8X 1032   4.182   5.007   9.682 -1.1331  1.4394 -1.3490
    8SAPS   H8Y 1033   4.329   4.923   9.632  0.1084 -0.1520  0.7578
    8SAPS   C39 1034   4.289   5.110   9.523 -1.2320 -0.3704  1.1800
    8SAPS   H9X 1035   4.393   5.121   9.486 -0.6480 -1.0074  2.5492
    8SAPS   H9Y 1036   4.247   5.208   9.556 -1.0197  0.2313 -0.2599
    8SAPS  C310 1037   4.197   5.066   9.408  0.0052 -0.4396 -0.2447
    8SAPS  H10X 1038   4.091   5.045   9.435 -0.5737  1.2867 -1.0638
    8SAPS  H10Y 1039   4.242   4.972   9.368 -0.1661 -0.0624 -1.3738
    8SAPS  C311 1040   4.197   5.169   9.295  0.3824 -0.1190  0.3239
    8SAPS  H11X 1041   4.293   5.225   9.292  0.7447 -0.7831 -0.7563
    8SAPS  H11Y 1042   4.114   5.239   9.321  0.5890  0.6249 -0.9160
    8SAPS  C312 1043   4.161   5.112   9.157  0.1022 -0.0409 -0.7763
    8SAPS  H12X 1044   4.138   5.189   9.081  0.9069 -0.6772 -1.6930
    8SAPS  H12Y 1045   4.072   5.047   9.167  0.6248 -0.4041  3.2722
    8SAPS  C313 1046   4.277   5.042   9.092  0.2871  0.1604 -1.0269
    8SAPS  H13X 1047   4.307   4.956   9.156 -0.6179 -0.6098 -1.6077
    8SAPS  H13Y 1048   4.362   5.112   9.077  0.7701 -0.4658 -1.3062
    8SAPS  C314 1049   4.245   4.982   8.945  0.2321  0.3512  0.2866
    8SAPS  H14X 1050   4.223   5.062   8.872 -2.3870 -0.5073  0.0530
    8SAPS  H14Y 1051   4.156   4.918   8.960  0.7754 -0.7728 -1.0117
    8SAPS  C315 1052   4.361   4.899   8.888 -0.2710 -0.1780 -0.2568
    8SAPS  H15X 1053   4.317   4.846   8.801 -2.2380  0.7304  0.1349
    8SAPS  H15Y 1054   4.390   4.820   8.960 -0.9665 -0.7410 -0.5831
    8SAPS  C316 1055   4.492   4.977   8.842  0.0281  0.1234 -0.2711
    8SAPS  H16X 1056   4.552   4.913   8.775  1.2559 -1.0418  1.8239
    8SAPS  H16Y 1057   4.551   4.995   8.934  1.0077 -0.7841 -0.7061
    8SAPS  C317 1058   4.477   5.111   8.776 -0.0200 -0.3126  0.2055
    8SAPS  H17X 1059   4.429   5.191   8.837  0.5714 -0.2608  0.6152
    8SAPS  H17Y 1060   4.407   5.111   8.690 -0.6632  2.1590  0.6587
    8SAPS  C318 1061   4.606   5.177   8.733 -0.7428 -0.2058 -0.0894
    8SAPS  H18X 1062   4.588   5.285   8.711 -1.2939 -0.3272 -0.2349
    8SAPS  H18Y 1063   4.653   5.122   8.649  0.1817 -0.6262  0.6871
    8SAPS  H18Z 1064   4.668   5.182   8.825 -0.5938 -0.5341 -0.1694
    9SAPS     N 1065   3.226   6.229   6.499 -0.6156  0.0763  0.0367
    9SAPS   HN1 1066   3.192   6.169   6.577  3.3390 -2.3109  0.2142
    9SAPS   HN2 1067   3.330   6.233   6.501 -0.6193  0.4377 -0.3655
    9SAPS   HN3 1068   3.204   6.325   6.534  0.9831  1.2643 -1.9663
    9SAPS   C12 1069   3.176   6.190   6.367 -0.2650  0.7501 -0.0573
    9SAPS  H12A 1070   3.070   6.169   6.372 -0.0989 -0.0850  0.0990
    9SAPS   C13 1071   3.201   6.288   6.254  0.1349 -0.3318 -0.7084
    9SAPS  O13A 1072   3.262   6.402   6.272 -0.2202 -0.0447  0.3990
    9SAPS  O13B 1073   3.178   6.243   6.139 -0.8272  0.2492  0.0985
    9SAPS   C11 1074   3.246   6.064   6.328 -0.3000 -0.4447  0.0571
    9SAPS  H11A 1075   3.352   6.089   6.306 -0.1788 -1.0009 -0.0162
    9SAPS  H11B 1076   3.203   6.026   6.232  2.4883  0.4117 -1.6784
    9SAPS     P 1077   3.266   5.815   6.408 -0.5162 -0.0539 -0.0738
    9SAPS   O13 1078   3.313   5.798   6.270  0.0897  0.1286 -0.1709
    9SAPS   O14 1079   3.362   5.767   6.511  0.1954  0.3533  0.0987
    9SAPS   O12 1080   3.230   5.967   6.432  0.9366  0.3402  0.8869
    9SAPS   O11 1081   3.128   5.739   6.411  0.3479 -0.5124 -0.1943
    9SAPS    C1 1082   3.020   5.785   6.494  0.5606  0.5442 -0.1263
    9SAPS    HA 1083   2.992   5.892   6.477  0.1507  0.5970  0.8224
    9SAPS    HB 1084   2.929   5.725   6.472 -0.4296  1.4715  1.2386
    9SAPS    C2 1085   3.042   5.751   6.646 -0.5109 -0.4263 -0.1391
    9SAPS    HS 1086   3.126   5.813   6.683 -0.1627 -0.4115 -0.9200
    9SAPS   O21 1087   3.059   5.609   6.658  0.7243 -0.0139 -0.4042
    9SAPS   C21 1088   3.143   5.578   6.750  0.3745  0.2352 -0.6510
    9SAPS   O22 1089   3.204   5.665   6.816 -0.2658 -0.4422 -0.4870
    9SAPS   C22 1090   3.159   5.431   6.777 -0.7055  0.0649  0.7039
    9SAPS   H2R 1091   3.063   5.378   6.760 -0.2397 -0.6334  0.1783
    9SAPS   H2S 1092   3.224   5.375   6.707 -2.4787 -1.8895  0.5113
    9SAPS    C3 1093   2.913   5.794   6.728 -0.3726  0.0038 -0.1284
    9SAPS    HX 1094   2.826   5.746   6.678  0.5036 -1.1290 -0.6106
    9SAPS    HY 1095   2.892   5.902   6.731  1.4755  0.3843  1.9446
    9SAPS   O31 1096   2.924   5.749   6.864 -0.1711 -0.0663 -0.6862
    9SAPS   C31 1097   2.975   5.840   6.948 -0.6973 -0.0130  0.3699
    9SAPS   O32 1098   3.017   5.949   6.920  0.1641  0.3566  0.4483
    9SAPS   C32 1099   2.963   5.787   7.091  0.2105 -0.5476 -0.3713
    9SAPS   H2X 1100   2.976   5.677   7.095  0.5393 -0.5046 -0.2173
    9SAPS   H2Y 1101   2.863   5.813   7.132  0.6958 -1.8122  1.7878
    9SAPS   C23 1102   3.210   5.392   6.918 -0.1195 -0.5947 -0.0321
    9SAPS   H3R 1103   3.293   5.460   6.944 -0.0889 -0.0556 -1.4509
    9SAPS   H3S 1104   3.265   5.295   6.915 -0.6141 -0.8744 -0.2893
    9SAPS   C24 1105   3.106   5.392   7.024 -0.4663  0.2581  0.1838
    9SAPS   H4R 1106   3.019   5.360   6.963 -0.9575 -1.4969  1.7233
    9SAPS   H4S 1107   3.075   5.486   7.075 -1.9647 -0.6582  1.0431
    9SAPS   C25 1108   3.132   5.282   7.123  0.1702  0.1996 -0.5520
    9SAPS   H5R 1109   3.125   5.181   7.081  0.2883 -0.0972  0.1317
    9SAPS   C26 1110   3.173   5.293   7.254 -0.3193  0.7186  0.5240
    9SAPS   H6R 1111   3.180   5.198   7.310 -0.5257  0.2130 -0.2867
    9SAPS   C27 1112   3.199   5.414   7.334  0.0584  0.1524 -0.8280
    9SAPS   H7R 1113   3.221   5.502   7.269 -0.3491 -0.7691 -2.2660
    9SAPS   H7S 1114   3.294   5.396   7.388 -1.5513  0.2979  2.2346
    9SAPS   C28 1115   3.094   5.449   7.435  0.3541 -0.2295 -0.3710
    9SAPS   H8R 1116   3.001   5.494   7.397 -0.8149  1.2238  3.7008
    9SAPS   C29 1117   3.109   5.431   7.563 -0.1279 -0.2194  0.3703
    9SAPS   H9R 1118   3.022   5.452   7.627 -2.3106 -0.1736 -2.4190
    9SAPS  C210 1119   3.232   5.375   7.634 -0.2145  0.5155 -0.0513
    9SAPS  H10R 1120   3.269   5.455   7.702  2.4133  0.9411 -1.8086
    9SAPS  H10S 1121   3.331   5.351   7.588 -0.0638 -0.2747  0.6648
    9SAPS  C211 1122   3.199   5.253   7.717 -0.7586  0.5085 -0.0019
    9SAPS  H11R 1123   3.221   5.160   7.664  1.2472  1.7338 -1.4673
    9SAPS  C212 1124   3.149   5.251   7.844  0.4363  0.1667  0.3125
    9SAPS  H12R 1125   3.123   5.153   7.885 -1.7185 -0.1199 -1.5109
    9SAPS  C213 1126   3.109   5.371   7.917 -0.0331 -0.3390  0.5708
    9SAPS  H13R 1127   3.018   5.350   7.977 -1.2482  0.4140 -0.9461
    9SAPS  H13S 1128   3.061   5.447   7.853 -1.5867 -0.0421  2.0042
    9SAPS  C214 1129   3.208   5.425   8.007 -0.4013  0.3537 -0.2501
    9SAPS  H14R 1130   3.272   5.500   7.960  2.6128 -0.6240  1.9147
    9SAPS  C215 1131   3.241   5.373   8.125 -0.1443 -0.5006  0.1258
    9SAPS  H15R 1132   3.316   5.435   8.176 -0.3641  0.0930 -0.2686
    9SAPS  C216 1133   3.181   5.250   8.202 -0.8584  0.6664 -0.1371
    9SAPS  H16R 1134   3.090   5.220   8.147  0.5425  0.5821 -2.5748
    9SAPS  H16S 1135   3.144   5.277   8.303 -1.9241 -2.6653  0.4862
    9SAPS  C217 1136   3.289   5.139   8.203  0.0857 -0.7576  0.2962
    9SAPS  H17R 1137   3.270   5.049   8.266 -0.2971  0.0539  1.3706
    9SAPS  H17S 1138   3.389   5.178   8.230  0.0554 -1.8968  2.2892
    9SAPS  C218 1139   3.312   5.077   8.066 -0.0296 -0.7828 -0.7809
    9SAPS  H18R 1140   3.355   5.153   7.997 -1.9852 -0.8646 -2.1617
    9SAPS  H18S 1141   3.221   5.037   8.017 -0.2522 -2.0391  0.5687
    9SAPS  C219 1142   3.389   4.942   8.076 -1.1403 -0.0473 -0.4292
    9SAPS  H19R 1143   3.329   4.871   8.137 -0.4998 -0.7501 -0.5984
    9SAPS  H19S 1144   3.487   4.957   8.127 -0.0013  1.3575 -2.8644
    9SAPS  C220 1145   3.425   4.886   7.934  0.3204  0.0590 -0.1439
    9SAPS  H20R 1146   3.330   4.854   7.886  0.8968 -0.5583 -0.8870
    9SAPS  H20S 1147   3.486   4.794   7.945 -0.4494 -0.2867  1.6903
    9SAPS  H20T 1148   3.485   4.955   7.871  0.4608 -0.4185 -0.5315
    9SAPS   C33 1149   3.063   5.863   7.185 -0.6448 -0.3507  0.0537
    9SAPS   H3X 1150   3.036   5.969   7.205 -2.5093 -0.8792  0.5280
    9SAPS   H3Y 1151   3.164   5.851   7.140 -0.7675 -1.0729 -0.0419
    9SAPS   C34 1152   3.081   5.788   7.322  0.1202  0.9308  0.2702
    9SAPS   H4X 1153   3.100   5.680   7.304  1.3390  0.8574  1.8462
    9SAPS   H4Y 1154   2.988   5.791   7.382 -0.4286 -0.9949 -0.4032
    9SAPS   C35 1155   3.191   5.849   7.413  0.1383 -0.9851 -0.4441
    9SAPS   H5X 1156   3.149   5.946   7.445  0.6059 -1.7438  2.7868
    9SAPS   H5Y 1157   3.282   5.867   7.352 -0.9801  0.9839 -1.6275
    9SAPS   C36 1158   3.215   5.769   7.539  0.0229  0.3854 -0.2629
    9SAPS   H6X 1159   3.269   5.678   7.504  1.8041  1.4674 -0.4304
    9SAPS   H6Y 1160   3.126   5.730   7.594  1.3542 -1.4927  0.6959
    9SAPS   C37 1161   3.317   5.832   7.642 -0.6900  0.2856 -0.4186
    9SAPS   H7X 1162   3.285   5.938   7.654 -0.7828  0.2981 -0.7460
    9SAPS   H7Y 1163   3.420   5.837   7.601 -1.3764  1.1452 -2.1448
    9SAPS   C38 1164   3.302   5.765   7.781  0.3015  0.0392  0.5984
    9SAPS   H8X 1165   3.319   5.655   7.769 -0.5806 -0.1270  0.8143
    9SAPS   H8Y 1166   3.202   5.780   7.825  0.9220 -0.1885  2.1654
    9SAPS   C39 1167   3.410   5.819   7.873 -0.7588  0.3338  0.6964
    9SAPS   H9X 1168   3.413   5.929   7.856  0.2924  0.2537  0.2946
    9SAPS   H9Y 1169   3.509   5.780   7.843 -0.8390 -0.0053  0.8667
    9SAPS  C310 1170   3.380   5.790   8.022 -0.1283 -0.0964 -0.2404
    9SAPS  H10X 1171   3.468   5.825   8.079  1.3102 -0.7538 -1.9561
    9SAPS  H10Y 1172   3.364   5.681   8.038  3.9413 -0.7590  0.2981
    9SAPS  C311 1173   3.249   5.870   8.066 -0.3887 -0.3027  0.1505
    9SAPS  H11X 1174   3.157   5.824   8.024 -1.2774  0.5210  1.1397
    9SAPS  H11Y 1175   3.261   5.976   8.036 -1.0735  0.4987  2.4347
    9SAPS  C312 1176   3.218   5.879   8.215 -0.0803 -0.1352  0.1862
    9SAPS  H12X 1177   3.123   5.929   8.243  0.3812  0.0072  1.6176
    9SAPS  H12Y 1178   3.294   5.944   8.265  1.5957 -0.5215 -1.7136
    9SAPS  C313 1179   3.223   5.747   8.299  0.1029 -0.6735 -0.2099
    9SAPS  H13X 1180   3.327   5.708   8.294  1.4404  2.5200 -0.1268
    9SAPS  H13Y 1181   3.147   5.676   8.259 -0.9359 -1.3862  2.7970
    9SAPS  C314 1182   3.202   5.769   8.441  0.2864  0.3744 -0.8458
    9SAPS  H14X 1183   3.105   5.821   8.456 -0.4251 -1.8503  4.2216
    9SAPS  H14Y 1184   3.287   5.827   8.483 -0.1832 -0.5383  1.5019
    9SAPS  C315 1185   3.193   5.648   8.538  0.1396 -0.5957  0.1833
    9SAPS  H15X 1186   3.089   5.608   8.544 -1.1022  2.6011  2.0651
    9SAPS  H15Y 1187   3.232   5.677   8.638  1.9824 -1.5877 -0.2016
    9SAPS  C316 1188   3.282   5.529   8.494 -0.3317  0.3757  0.1650
    9SAPS  H16X 1189   3.385   5.566   8.478 -0.4675  0.3585 -0.8013
    9SAPS  H16Y 1190   3.253   5.489   8.395  0.9094 -0.9384  0.3031
    9SAPS  C317 1191   3.277   5.408   8.589 -0.3726 -0.8910 -0.2181
    9SAPS  H17X 1192   3.310   5.443   8.689  1.5169 -1.4580 -0.6182
    9SAPS  H17Y 1193   3.346   5.330   8.550 -0.0719 -0.3340 -0.8245
    9SAPS  C318 1194   3.150   5.333   8.604  0.3025 -1.1062 -0.0156
    9SAPS  H18X 1195   3.097   5.294   8.515  0.4794 -1.1278 -0.1113
    9SAPS  H18Y 1196   3.080   5.407   8.649  0.4378 -0.9379 -0.0822
    9SAPS  H18Z 1197   3.156   5.244   8.670  2.1920  0.0670  1.5230
   10SAPS     N 1198   1.852   5.704   6.260  1.0935  0.9645 -0.2321
   10SAPS   HN1 1199   1.937   5.744   6.304  1.1154 -0.1400  0.7858
   10SAPS   HN2 1200   1.809   5.638   6.328  0.6921  1.3055 -0.1473
   10SAPS   HN3 1201   1.868   5.652   6.171 -1.0714 -1.9618  0.9025
   10SAPS   C12 1202   1.739   5.802   6.250  0.3094  0.0398  0.8263
   10SAPS  H12A 1203   1.725   5.839   6.350  1.0276  1.9167  0.2883
   10SAPS   C13 1204   1.773   5.929   6.169 -0.5383 -0.4591  0.2302
   10SAPS  O13A 1205   1.888   5.943   6.119  0.4596  0.7464  0.5773
   10SAPS  O13B 1206   1.702   6.025   6.196 -0.3084 -0.4933  0.0089
   10SAPS   C11 1207   1.613   5.729   6.202 -0.7705 -0.1138 -0.9231
   10SAPS  H11A 1208   1.641   5.655   6.123 -3.0486 -2.6291  0.4587
   10SAPS  H11B 1209   1.551   5.810   6.159  0.0928  0.6913 -0.6631
   10SAPS     P 1210   1.443   5.738   6.400  0.3581  0.3640  0.2722
   10SAPS   O13 1211   1.502   5.850   6.476  0.7162  0.0418  0.3558
   10SAPS   O14 1212   1.333   5.757   6.308  0.0073  0.3897 -0.1683
   10SAPS   O12 1213   1.551   5.659   6.315 -0.3363  0.0174  0.5741
   10SAPS   O11 1214   1.402   5.624   6.499  0.3360  0.0076 -0.4823
   10SAPS    C1 1215   1.303   5.630   6.606  0.5611 -0.4489 -0.0018
   10SAPS    HA 1216   1.220   5.700   6.585  1.2832 -0.3815 -3.1216
   10SAPS    HB 1217   1.254   5.530   6.599 -0.3881 -0.0090  0.2402
   10SAPS    C2 1218   1.377   5.654   6.742 -0.4005 -0.3200 -0.4625
   10SAPS    HS 1219   1.406   5.761   6.752 -0.4473 -0.3010 -0.5262
   10SAPS   O21 1220   1.493   5.567   6.752  0.4975  0.2111 -0.0123
   10SAPS   C21 1221   1.597   5.618   6.813 -0.0631  0.6330 -0.3873
   10SAPS   O22 1222   1.615   5.737   6.835 -0.1313 -0.3723  0.2448
   10SAPS   C22 1223   1.703   5.506   6.824  0.0819  0.2486  0.6009
   10SAPS   H2R 1224   1.653   5.413   6.858 -2.0653  0.8430 -0.7660
   10SAPS   H2S 1225   1.737   5.479   6.722 -2.2502  1.2782 -0.5168
   10SAPS    C3 1226   1.287   5.622   6.857  0.2152  0.1210  0.9385
   10SAPS    HX 1227   1.239   5.527   6.827 -4.6341  1.3824  3.7208
   10SAPS    HY 1228   1.195   5.683   6.854 -1.6227 -2.5025 -2.1839
   10SAPS   O31 1229   1.333   5.644   6.993  0.2489 -0.4399 -0.2016
   10SAPS   C31 1230   1.361   5.535   7.060  0.0437  0.4624 -0.6708
   10SAPS   O32 1231   1.344   5.422   7.024 -0.8189  0.4023 -0.1994
   10SAPS   C32 1232   1.405   5.572   7.210  0.8132 -0.0454  0.7417
   10SAPS   H2X 1233   1.316   5.607   7.266 -0.1948  2.0599 -1.9717
   10SAPS   H2Y 1234   1.477   5.657   7.209 -1.5411  2.0378  0.1526
   10SAPS   C23 1235   1.816   5.546   6.923  0.6087  0.0430  0.2196
   10SAPS   H3R 1236   1.881   5.632   6.895 -1.8057  1.6559 -0.8258
   10SAPS   H3S 1237   1.874   5.451   6.928 -1.5129 -1.3348  0.0047
   10SAPS   C24 1238   1.765   5.581   7.069  0.0373 -0.0661 -0.5196
   10SAPS   H4R 1239   1.701   5.498   7.107 -0.4758  0.1447 -0.9102
   10SAPS   H4S 1240   1.707   5.674   7.083  0.0066 -0.3571  1.5525
   10SAPS   C25 1241   1.891   5.605   7.159  0.2741 -0.2787  0.6004
   10SAPS   H5R 1242   1.986   5.560   7.126  0.9090  0.2025  1.7462
   10SAPS   C26 1243   1.893   5.675   7.276 -0.1488  0.5736 -0.3608
   10SAPS   H6R 1244   1.989   5.683   7.330  0.4780 -1.0688 -1.1571
   10SAPS   C27 1245   1.781   5.739   7.344  1.7297 -0.0213 -0.0904
   10SAPS   H7R 1246   1.686   5.710   7.296  0.2244 -1.1068  3.2315
   10SAPS   H7S 1247   1.795   5.848   7.328  1.8738  0.0482  0.4860
   10SAPS   C28 1248   1.762   5.708   7.495 -0.1221  0.1513  0.1773
   10SAPS   H8R 1249   1.755   5.602   7.526  1.3527  0.4730  1.7327
   10SAPS   C29 1250   1.774   5.797   7.598 -0.2611 -0.9285  0.2843
   10SAPS   H9R 1251   1.726   5.779   7.695  1.9689 -0.4389  1.5476
   10SAPS  C210 1252   1.800   5.951   7.578  0.2989  0.2986  0.4899
   10SAPS  H10R 1253   1.730   5.992   7.502  0.0271  1.9977  1.6000
   10SAPS  H10S 1254   1.907   5.965   7.553  0.0223  0.3531 -0.6938
   10SAPS  C211 1255   1.762   6.025   7.709  0.4400  0.1762 -0.2572
   10SAPS  H11R 1256   1.677   5.980   7.763  0.6052 -0.8666 -0.8416
   10SAPS  C212 1257   1.811   6.140   7.754 -0.2284 -0.4970 -0.5831
   10SAPS  H12R 1258   1.776   6.181   7.850 -0.2437 -0.4428 -0.6119
   10SAPS  C213 1259   1.920   6.213   7.671  0.5542  0.0058 -0.7277
   10SAPS  H13R 1260   1.939   6.186   7.565  2.5381  1.2294 -0.7432
   10SAPS  H13S 1261   2.021   6.196   7.714  0.8084  0.5374 -1.1123
   10SAPS  C214 1262   1.892   6.362   7.683  0.2928 -0.0556 -0.2154
   10SAPS  H14R 1263   1.915   6.407   7.780 -1.6023 -0.1174  0.2831
   10SAPS  C215 1264   1.831   6.434   7.583 -0.4490  0.7436  0.1405
   10SAPS  H15R 1265   1.802   6.536   7.612 -1.5525  0.4538  0.1439
   10SAPS  C216 1266   1.796   6.380   7.446  0.4079 -0.4107  0.1249
   10SAPS  H16R 1267   1.864   6.299   7.415  0.8433 -0.3945  1.0134
   10SAPS  H16S 1268   1.799   6.461   7.370 -1.8311  0.4825  0.8695
   10SAPS  C217 1269   1.654   6.325   7.443  0.5487 -0.5406  0.2054
   10SAPS  H17R 1270   1.586   6.413   7.447 -1.0215 -1.7151  0.4372
   10SAPS  H17S 1271   1.633   6.262   7.532 -0.1952 -0.9009 -0.2111
   10SAPS  C218 1272   1.607   6.257   7.310  0.6661 -0.0045 -1.2713
   10SAPS  H18R 1273   1.595   6.343   7.240  2.4696  0.3260 -1.2023
   10SAPS  H18S 1274   1.503   6.222   7.326  0.2234  0.6971 -2.4173
   10SAPS  C219 1275   1.702   6.160   7.248  0.5772  0.2913 -0.5209
   10SAPS  H19R 1276   1.735   6.086   7.325  2.3123 -0.2242 -1.7003
   10SAPS  H19S 1277   1.794   6.217   7.224  0.9944 -0.4297 -0.6618
   10SAPS  C220 1278   1.656   6.075   7.129  0.1624 -0.2944 -0.7211
   10SAPS  H20R 1279   1.743   6.012   7.100 -0.8040 -1.0684 -2.0651
   10SAPS  H20S 1280   1.615   6.140   7.049  1.2047  2.3961  0.8086
   10SAPS  H20T 1281   1.577   6.013   7.176 -1.3147  1.2405 -1.1304
   10SAPS   C33 1282   1.457   5.448   7.282 -0.0572 -0.1583 -0.9003
   10SAPS   H3X 1283   1.539   5.388   7.237  3.1574  0.3350  3.5886
   10SAPS   H3Y 1284   1.361   5.393   7.292  0.4738 -0.6908  2.0979
   10SAPS   C34 1285   1.490   5.484   7.426  0.2304 -0.3746 -0.2704
   10SAPS   H4X 1286   1.434   5.575   7.457  0.8192  0.4512 -1.5485
   10SAPS   H4Y 1287   1.595   5.517   7.412 -0.0595  0.3799 -0.7257
   10SAPS   C35 1288   1.480   5.364   7.527  0.3528  0.5958  0.1162
   10SAPS   H5X 1289   1.528   5.292   7.458  0.2781  0.0373  0.6346
   10SAPS   H5Y 1290   1.379   5.321   7.547  0.8278 -0.6422 -0.0787
   10SAPS   C36 1291   1.572   5.366   7.654 -0.5449  0.3064 -0.4416
   10SAPS   H6X 1292   1.678   5.392   7.634 -0.1971 -0.6591  0.1099
   10SAPS   H6Y 1293   1.571   5.266   7.703  1.3481  1.5001  2.3070
   10SAPS   C37 1294   1.525   5.486   7.752 -0.5723  1.0512  0.5520
   10SAPS   H7X 1295   1.414   5.483   7.753 -0.5922 -0.6232 -0.9998
   10SAPS   H7Y 1296   1.540   5.586   7.707 -1.8895  0.9607 -0.1279
   10SAPS   C38 1297   1.584   5.472   7.898  0.4050 -0.2264  0.8672
   10SAPS   H8X 1298   1.553   5.567   7.947  0.3340  0.3636 -0.2967
   10SAPS   H8Y 1299   1.693   5.463   7.879  0.3771  0.9166  0.0932
   10SAPS   C39 1300   1.518   5.361   7.985  0.6844 -0.0026 -0.9215
   10SAPS   H9X 1301   1.542   5.264   7.937  0.6876 -1.1172  1.2113
   10SAPS   H9Y 1302   1.409   5.372   8.002  0.8426  0.2445  0.0045
   10SAPS  C310 1303   1.591   5.351   8.119 -0.9614 -0.4560  0.0353
   10SAPS  H10X 1304   1.574   5.443   8.180  1.0363  0.1670 -0.2611
   10SAPS  H10Y 1305   1.700   5.352   8.097 -0.8166  1.5337  0.6411
   10SAPS  C311 1306   1.568   5.231   8.209 -0.1784  0.6016 -0.5219
   10SAPS  H11X 1307   1.661   5.218   8.269  0.3720  0.1952 -1.4411
   10SAPS  H11Y 1308   1.572   5.140   8.145 -0.0511 -0.2725  0.6767
   10SAPS  C312 1309   1.444   5.226   8.292 -0.5242 -0.2702 -0.6648
   10SAPS  H12X 1310   1.352   5.244   8.232  0.6326  0.4002 -2.3067
   10SAPS  H12Y 1311   1.448   5.295   8.379 -2.9072 -1.5601  0.5722
   10SAPS  C313 1312   1.418   5.088   8.358 -0.9210 -0.1738  0.3321
   10SAPS  H13X 1313   1.504   5.048   8.416  0.7622  2.1613 -0.4294
   10SAPS  H13Y 1314   1.399   5.019   8.274  1.2035 -0.0537 -0.3130
   10SAPS  C314 1315   1.297   5.096   8.452  0.1213 -0.1187  0.6441
   10SAPS  H14X 1316   1.211   5.124   8.388 -1.0991  0.3735  2.4398
   10SAPS  H14Y 1317   1.324   5.177   8.523 -0.4298 -0.0524  0.7798
   10SAPS  C315 1318   1.266   4.965   8.523  0.5792 -0.9732  0.2186
   10SAPS  H15X 1319   1.345   4.956   8.601  0.0554 -2.2424  0.6204
   10SAPS  H15Y 1320   1.294   4.874   8.466 -1.0117 -1.9159  0.8836
   10SAPS  C316 1321   1.125   4.947   8.566  0.6046  0.5282 -0.6884
   10SAPS  H16X 1322   1.114   4.859   8.633  0.1264 -0.2511 -1.7682
   10SAPS  H16Y 1323   1.066   4.934   8.473 -0.8547 -0.7981  0.3704
   10SAPS  C317 1324   1.063   5.070   8.635  0.1880 -0.3116 -0.1152
   10SAPS  H17X 1325   0.956   5.053   8.661  0.4056  0.9705  1.8140
   10SAPS  H17Y 1326   1.063   5.151   8.559 -0.7067 -0.1405  0.0585
   10SAPS  C318 1327   1.137   5.123   8.756  0.2548 -0.0892  0.4566
   10SAPS  H18X 1328   1.241   5.150   8.727 -0.2110 -1.1274 -2.5999
   10SAPS  H18Y 1329   1.132   5.055   8.843  0.6750 -1.5632 -0.6259
   10SAPS  H18Z 1330   1.085   5.219   8.772 -2.2949 -1.2207 -0.4919
   11SAPS     N 1331   6.614   4.890   6.060  0.6549 -0.1792  0.0496
   11SAPS   HN1 1332   6.613   4.790   6.089 -0.9634 -0.8035 -1.9435
   11SAPS   HN2 1333   6.704   4.919   6.017  0.1351  0.4364 -0.6507
   11SAPS   HN3 1334   6.590   4.959   6.134  1.2307 -1.3446  1.3661
   11SAPS   C12 1335   6.502   4.893   5.960  0.0166  0.2099  0.1070
   11SAPS  H12A 1336   6.504   4.997   5.932  2.0267  0.2714  0.3574
   11SAPS   C13 1337   6.533   4.813   5.832 -0.5021  0.3734  0.2728
   11SAPS  O13A 1338   6.646   4.757   5.814  0.5420  0.1057 -0.2482
   11SAPS  O13B 1339   6.448   4.818   5.737 -0.5152  0.1900 -0.0274
   11SAPS   C11 1340   6.365   4.845   6.028 -0.3888  0.0741  0.8078
   11SAPS  H11A 1341   6.287   4.841   5.949  2.7351  2.5633 -2.7659
   11SAPS  H11B 1342   6.342   4.925   6.102  2.6453  2.8569 -0.9501
   11SAPS     P 1343   6.269   4.636   6.135 -0.2533  0.0208 -0.2977
   11SAPS   O13 1344   6.162   4.625   6.030 -0.2343  0.1950 -0.4269
   11SAPS   O14 1345   6.309   4.513   6.200 -0.3306  0.1956 -0.3704
   11SAPS   O12 1346   6.393   4.717   6.092  0.2936  0.1833  0.4074
   11SAPS   O11 1347   6.214   4.733   6.248 -0.2917 -0.1819  0.0823
   11SAPS    C1 1348   6.285   4.809   6.339  0.5783 -0.5858 -0.3858
   11SAPS    HA 1349   6.395   4.815   6.324  0.4730 -1.7051 -1.7482
   11SAPS    HB 1350   6.257   4.916   6.333  2.6901 -0.0593 -2.2612
   11SAPS    C2 1351   6.264   4.760   6.482 -0.9420 -0.9207 -0.1001
   11SAPS    HS 1352   6.309   4.834   6.550 -1.6494  0.1576 -0.7737
   11SAPS   O21 1353   6.312   4.630   6.500  0.3027  0.3185 -0.4000
   11SAPS   C21 1354   6.446   4.612   6.518 -0.5048 -0.2965 -0.3055
   11SAPS   O22 1355   6.526   4.706   6.530  0.8467  0.4401 -0.0367
   11SAPS   C22 1356   6.484   4.465   6.521  0.1121  0.6165 -0.7842
   11SAPS   H2R 1357   6.490   4.433   6.414  0.7683  1.7944 -1.1287
   11SAPS   H2S 1358   6.588   4.454   6.559 -1.1013  0.6748  2.9417
   11SAPS    C3 1359   6.112   4.767   6.506  0.4843 -0.5740 -0.3542
   11SAPS    HX 1360   6.065   4.685   6.449 -0.7258  0.1323 -0.4054
   11SAPS    HY 1361   6.067   4.853   6.453 -0.6412 -2.4763 -2.6998
   11SAPS   O31 1362   6.078   4.773   6.645 -0.0638 -0.3443  0.6665
   11SAPS   C31 1363   6.064   4.655   6.707  0.0436  0.2482  0.2704
   11SAPS   O32 1364   6.096   4.547   6.656 -0.1531  0.1626  0.0539
   11SAPS   C32 1365   6.000   4.674   6.844 -0.5152 -0.1607 -0.8524
   11SAPS   H2X 1366   5.897   4.712   6.836  0.3347  3.8423  3.1735
   11SAPS   H2Y 1367   6.056   4.753   6.898 -1.6432  2.1631 -2.9476
   11SAPS   C23 1368   6.399   4.381   6.612  0.1306 -0.0612  0.2413
   11SAPS   H3R 1369   6.430   4.277   6.586 -0.1369 -0.8129  2.6340
   11SAPS   H3S 1370   6.294   4.378   6.576  0.2182  0.8981 -0.1031
   11SAPS   C24 1371   6.407   4.395   6.764 -0.2779 -0.7112  0.0443
   11SAPS   H4R 1372   6.342   4.323   6.820 -1.2791 -0.3204 -0.5897
   11SAPS   H4S 1373   6.358   4.494   6.775 -0.8330 -1.1072  1.3563
   11SAPS   C25 1374   6.542   4.398   6.825 -0.3450 -0.4184  0.0090
   11SAPS   H5R 1375   6.611   4.481   6.802 -1.5762  0.6534  0.0126
   11SAPS   C26 1376   6.592   4.304   6.911 -0.6722  0.1054 -0.5235
   11SAPS   H6R 1377   6.696   4.313   6.945 -0.3413  1.2599 -1.7646
   11SAPS   C27 1378   6.527   4.173   6.939 -0.2646 -0.6784 -0.2234
   11SAPS   H7R 1379   6.469   4.135   6.852  0.5837  0.8688 -1.5083
   11SAPS   H7S 1380   6.450   4.191   7.017 -0.7884  3.8481 -1.5378
   11SAPS   C28 1381   6.624   4.069   6.995  0.8594  0.4770  0.3485
   11SAPS   H8R 1382   6.691   4.035   6.914 -1.9780 -0.9337 -1.5658
   11SAPS   C29 1383   6.634   4.003   7.111 -0.2039 -0.5571 -0.9899
   11SAPS   H9R 1384   6.724   3.942   7.127 -0.3879 -0.6504 -0.2259
   11SAPS  C210 1385   6.548   4.024   7.231 -0.2857  0.0324  0.1580
   11SAPS  H10R 1386   6.493   3.928   7.244 -1.1986  0.3458 -1.1892
   11SAPS  H10S 1387   6.473   4.101   7.207 -2.9311 -2.9068 -1.8917
   11SAPS  C211 1388   6.629   4.063   7.359 -0.2430  0.0045 -0.2928
   11SAPS  H11R 1389   6.697   4.149   7.352 -1.5366  1.1030  0.1826
   11SAPS  C212 1390   6.606   4.010   7.487  0.1743 -0.8734  0.2036
   11SAPS  H12R 1391   6.672   4.034   7.572  2.0131 -0.0997 -1.3574
   11SAPS  C213 1392   6.506   3.908   7.527 -1.1558 -0.1892  0.3323
   11SAPS  H13R 1393   6.416   3.910   7.462 -0.5922 -1.0838 -0.5088
   11SAPS  H13S 1394   6.469   3.932   7.628 -1.0380  0.6511  0.1846
   11SAPS  C214 1395   6.563   3.770   7.509  0.5386 -0.0307  0.6631
   11SAPS  H14R 1396   6.572   3.733   7.406 -2.1962 -2.5562  1.1944
   11SAPS  C215 1397   6.594   3.687   7.605  0.4846  0.5688 -0.6584
   11SAPS  H15R 1398   6.628   3.584   7.584 -2.7519 -0.4430 -1.6663
   11SAPS  C216 1399   6.583   3.725   7.750  0.4833  0.0754  0.5136
   11SAPS  H16R 1400   6.556   3.831   7.771  0.0595 -0.2827  1.8703
   11SAPS  H16S 1401   6.675   3.705   7.810  0.4528 -1.7967 -0.0012
   11SAPS  C217 1402   6.476   3.635   7.812 -0.6409 -0.9096 -0.3212
   11SAPS  H17R 1403   6.490   3.525   7.822 -0.9449 -0.8557  0.8128
   11SAPS  H17S 1404   6.377   3.653   7.764 -0.6294 -3.3203 -1.4317
   11SAPS  C218 1405   6.463   3.687   7.958 -0.5277 -0.6849  0.0607
   11SAPS  H18R 1406   6.459   3.798   7.955  0.2339 -0.6401 -2.6267
   11SAPS  H18S 1407   6.562   3.651   7.992  0.6679  0.2307 -2.2083
   11SAPS  C219 1408   6.340   3.637   8.036  0.4867 -0.1867  0.1158
   11SAPS  H19R 1409   6.336   3.527   8.018  0.3040 -0.1096 -0.3300
   11SAPS  H19S 1410   6.248   3.667   7.983  0.9107  1.7553  0.4267
   11SAPS  C220 1411   6.335   3.661   8.186  0.2255 -0.1415 -0.4997
   11SAPS  H20R 1412   6.281   3.754   8.214  0.8410  0.2044 -0.4493
   11SAPS  H20S 1413   6.438   3.676   8.226  0.2828  0.2237 -0.7710
   11SAPS  H20T 1414   6.292   3.571   8.234  0.5701 -0.5573 -0.9677
   11SAPS   C33 1415   6.007   4.542   6.923  0.0381 -0.1789 -0.2397
   11SAPS   H3X 1416   6.110   4.507   6.945 -1.0580 -2.7385  1.2855
   11SAPS   H3Y 1417   5.958   4.455   6.872  0.0968  1.0762 -2.5942
   11SAPS   C34 1418   5.927   4.562   7.053  0.9076 -0.2299 -0.1860
   11SAPS   H4X 1419   5.817   4.564   7.037  0.8586  0.9510  0.1843
   11SAPS   H4Y 1420   5.953   4.659   7.101 -1.3120  0.5710 -0.4767
   11SAPS   C35 1421   5.950   4.449   7.167  0.6898 -0.1839  0.7806
   11SAPS   H5X 1422   6.054   4.458   7.203  0.1870  3.6537  1.6917
   11SAPS   H5Y 1423   5.939   4.355   7.108 -0.7060  1.1961 -1.3278
   11SAPS   C36 1424   5.848   4.449   7.289 -0.7178  0.4867  0.3740
   11SAPS   H6X 1425   5.746   4.453   7.245 -0.9188 -0.6849  0.6895
   11SAPS   H6Y 1426   5.879   4.535   7.352  2.3819  0.5867 -1.1324
   11SAPS   C37 1427   5.846   4.321   7.378  0.3659 -0.0871  0.1387
   11SAPS   H7X 1428   5.946   4.310   7.426  0.7840  1.0409 -0.4359
   11SAPS   H7Y 1429   5.828   4.234   7.312  1.6492  1.0396 -1.8140
   11SAPS   C38 1430   5.735   4.327   7.484  0.1754 -0.1113  0.4412
   11SAPS   H8X 1431   5.644   4.337   7.421 -0.5517 -2.0387  1.1178
   11SAPS   H8Y 1432   5.736   4.424   7.538 -1.6790 -0.1183  0.5601
   11SAPS   C39 1433   5.733   4.196   7.570  0.0514 -0.7407 -0.7504
   11SAPS   H9X 1434   5.832   4.183   7.618 -1.6321 -1.4992  2.7986
   11SAPS   H9Y 1435   5.726   4.105   7.507 -0.2290 -1.3080  0.0811
   11SAPS  C310 1436   5.637   4.181   7.690 -0.2391 -0.0107  0.6495
   11SAPS  H10X 1437   5.641   4.075   7.722  2.2168 -0.0233  0.5199
   11SAPS  H10Y 1438   5.535   4.216   7.665  0.1988  0.2020 -0.9330
   11SAPS  C311 1439   5.680   4.257   7.809 -1.1391 -0.3941 -0.2857
   11SAPS  H11X 1440   5.670   4.367   7.801  1.0976 -0.1053  0.1577
   11SAPS  H11Y 1441   5.782   4.223   7.839  0.5146 -0.4532 -4.9880
   11SAPS  C312 1442   5.594   4.224   7.931 -0.5983 -0.4321 -0.4364
   11SAPS  H12X 1443   5.488   4.255   7.920  0.1200  2.9935  0.9795
   11SAPS  H12Y 1444   5.638   4.295   8.005 -1.9987  0.7133 -0.6617
   11SAPS  C313 1445   5.619   4.080   7.978  0.4863 -0.2184  0.5529
   11SAPS  H13X 1446   5.718   4.036   7.955  0.4916  0.8800 -1.9170
   11SAPS  H13Y 1447   5.554   4.009   7.923  0.5205  1.6078 -2.0697
   11SAPS  C314 1448   5.590   4.054   8.128 -0.2836  0.1187 -0.1021
   11SAPS  H14X 1449   5.662   4.116   8.186  0.6841 -1.5642  0.5607
   11SAPS  H14Y 1450   5.597   3.944   8.140  2.1062  0.1893 -0.3876
   11SAPS  C315 1451   5.460   4.092   8.190  0.0593  1.2335 -0.1854
   11SAPS  H15X 1452   5.378   4.049   8.128  0.9340 -0.8277 -0.0007
   11SAPS  H15Y 1453   5.446   4.202   8.193 -3.5139  0.8792  1.6572
   11SAPS  C316 1454   5.431   4.037   8.335 -0.8899  0.1946  0.2566
   11SAPS  H16X 1455   5.511   4.085   8.395  1.2675  0.0677 -2.3491
   11SAPS  H16Y 1456   5.447   3.927   8.339  0.6797  0.0161 -4.8351
   11SAPS  C317 1457   5.296   4.075   8.400 -0.2074 -0.3516  0.3297
   11SAPS  H17X 1458   5.282   4.042   8.505  1.7817 -2.0376  0.1227
   11SAPS  H17Y 1459   5.217   4.037   8.332 -1.9916  1.5666  1.2121
   11SAPS  C318 1460   5.289   4.231   8.421 -0.3681 -0.0474  0.1220
   11SAPS  H18X 1461   5.305   4.286   8.325 -0.3725  0.4993  0.4292
   11SAPS  H18Y 1462   5.371   4.258   8.492 -1.0715  0.7650  0.6491
   11SAPS  H18Z 1463   5.195   4.268   8.467 -1.0854 -1.8910  0.2243
   12SAPS     N 1464   5.956   2.531   6.160  0.3024  0.0693  0.0769
   12SAPS   HN1 1465   6.034   2.581   6.207  1.4011  0.1230 -1.7292
   12SAPS   HN2 1466   5.906   2.607   6.108 -0.0495  0.7814  1.3914
   12SAPS   HN3 1467   5.896   2.475   6.223 -0.6351 -1.0869 -1.7714
   12SAPS   C12 1468   6.026   2.442   6.068 -0.7134 -0.0317  0.1933
   12SAPS  H12A 1469   5.952   2.364   6.054  0.3519 -1.1062  0.3361
   12SAPS   C13 1470   6.059   2.508   5.930 -0.3208  0.6930 -0.8776
   12SAPS  O13A 1471   6.049   2.635   5.908  0.0207 -0.2818  0.7066
   12SAPS  O13B 1472   6.108   2.430   5.846  0.2806  0.0268  0.4786
   12SAPS   C11 1473   6.161   2.398   6.131  0.0190 -0.3238 -0.1588
   12SAPS  H11A 1474   6.228   2.485   6.117  1.2494 -1.0559  0.9321
   12SAPS  H11B 1475   6.201   2.315   6.069 -1.9023 -0.1241 -1.7704
   12SAPS     P 1476   6.134   2.216   6.314 -0.1244 -0.0194  0.1075
   12SAPS   O13 1477   6.025   2.148   6.242 -0.7402  0.1373  0.2103
   12SAPS   O14 1478   6.268   2.156   6.299 -0.0419 -0.7765  0.0830
   12SAPS   O12 1479   6.146   2.372   6.276  0.4026 -0.0475 -0.8213
   12SAPS   O11 1480   6.088   2.218   6.467 -0.2325  0.2436 -0.1591
   12SAPS    C1 1481   6.133   2.335   6.545  0.1836  0.4585  0.1731
   12SAPS    HA 1482   6.243   2.349   6.545  0.1114  1.0475  0.6477
   12SAPS    HB 1483   6.091   2.429   6.505 -1.7603  0.0885  1.1980
   12SAPS    C2 1484   6.100   2.314   6.689  0.1016  0.4493  0.5537
   12SAPS    HS 1485   6.126   2.406   6.745 -0.0734  1.6211 -1.2031
   12SAPS   O21 1486   6.150   2.193   6.751  0.3033  0.2962  0.1009
   12SAPS   C21 1487   6.270   2.204   6.799 -0.2600 -0.5997  0.3343
   12SAPS   O22 1488   6.331   2.310   6.803 -0.4261  0.4219 -0.4979
   12SAPS   C22 1489   6.309   2.075   6.864  0.3727  0.3112 -0.0918
   12SAPS   H2R 1490   6.220   2.024   6.907  1.8887 -2.6709 -0.2076
   12SAPS   H2S 1491   6.345   2.001   6.790 -2.1668  0.0201 -1.1279
   12SAPS    C3 1492   5.943   2.311   6.703 -0.0810 -0.0403  0.2154
   12SAPS    HX 1493   5.888   2.240   6.637  0.3039 -0.1505  0.0088
   12SAPS    HY 1494   5.901   2.407   6.667 -0.1648 -0.0261  0.3521
   12SAPS   O31 1495   5.902   2.293   6.840 -0.0569  0.3013  0.3867
   12SAPS   C31 1496   5.900   2.170   6.887 -0.6182 -0.2590 -0.6359
   12SAPS   O32 1497   5.929   2.064   6.828 -0.0757 -0.2848  0.3313
   12SAPS   C32 1498   5.855   2.174   7.029 -0.9341 -0.7245 -0.8885
   12SAPS   H2X 1499   5.885   2.079   7.077 -0.9027 -0.5794 -0.6201
   12SAPS   H2Y 1500   5.745   2.192   7.026 -0.7752  0.4495 -0.1773
   12SAPS   C23 1501   6.416   2.092   6.975  0.5171 -0.6628 -0.1895
   12SAPS   H3R 1502   6.508   2.142   6.940  3.5814 -4.5878  1.4950
   12SAPS   H3S 1503   6.442   1.998   7.029 -0.5790  0.3186  2.2024
   12SAPS   C24 1504   6.362   2.184   7.094  0.2700  0.6201  1.1896
   12SAPS   H4R 1505   6.252   2.173   7.108  0.0391  1.1617 -0.0580
   12SAPS   H4S 1506   6.371   2.293   7.076 -0.6812  0.9284  2.3860
   12SAPS   C25 1507   6.431   2.156   7.227 -0.0618 -0.8040  0.0562
   12SAPS   H5R 1508   6.539   2.140   7.216 -0.0161 -0.0101 -0.7552
   12SAPS   C26 1509   6.372   2.148   7.354  0.0506  0.2978  0.5419
   12SAPS   H6R 1510   6.436   2.128   7.441  1.5308 -1.9469 -0.9453
   12SAPS   C27 1511   6.234   2.153   7.388 -0.3956  0.0988 -0.7160
   12SAPS   H7R 1512   6.228   2.070   7.462  0.6766 -0.2660 -1.0184
   12SAPS   H7S 1513   6.173   2.133   7.298  1.0170 -1.6132 -1.3529
   12SAPS   C28 1514   6.192   2.287   7.463  0.1875  0.2633  0.4697
   12SAPS   H8R 1515   6.246   2.378   7.432 -1.0884  0.3977 -1.5752
   12SAPS   C29 1516   6.119   2.304   7.572  0.5077  0.5658 -0.4554
   12SAPS   H9R 1517   6.110   2.406   7.613  0.6760  0.4729 -0.1886
   12SAPS  C210 1518   6.054   2.198   7.653  0.1068  0.0178  0.3598
   12SAPS  H10R 1519   6.131   2.147   7.714 -0.7779  0.3957  1.8690
   12SAPS  H10S 1520   6.023   2.119   7.582 -0.6167 -0.3472  1.0573
   12SAPS  C211 1521   5.939   2.242   7.734 -0.2175  0.2261 -0.7312
   12SAPS  H11R 1522   5.901   2.337   7.694  0.2551  0.2106 -1.2220
   12SAPS  C212 1523   5.871   2.178   7.836 -0.0591 -1.2667  0.1937
   12SAPS  H12R 1524   5.783   2.227   7.882  0.4232  0.9102 -1.0493
   12SAPS  C213 1525   5.903   2.042   7.890 -0.3259  0.9786  0.2340
   12SAPS  H13R 1526   5.908   2.042   8.001  3.1421 -1.3740  0.2337
   12SAPS  H13S 1527   6.005   2.011   7.859 -1.0350 -2.0039  0.5232
   12SAPS  C214 1528   5.795   1.942   7.844 -0.3631 -1.1453 -0.2994
   12SAPS  H14R 1529   5.696   1.989   7.845 -0.3450 -1.0579  1.8591
   12SAPS  C215 1530   5.808   1.814   7.807  0.3913  0.0672 -0.2203
   12SAPS  H15R 1531   5.717   1.771   7.761  1.2156 -0.1956 -1.6661
   12SAPS  C216 1532   5.927   1.730   7.795 -0.4721 -0.7424  0.2865
   12SAPS  H16R 1533   5.932   1.647   7.869  1.7412 -0.4999  0.4908
   12SAPS  H16S 1534   6.020   1.791   7.796 -1.0784  0.2534 -1.2905
   12SAPS  C217 1535   5.942   1.658   7.653 -0.0460  0.8704 -0.4341
   12SAPS  H17R 1536   5.851   1.596   7.646  0.0832  0.3270  1.7960
   12SAPS  H17S 1537   6.036   1.599   7.665  0.1171  1.3784  1.0816
   12SAPS  C218 1538   5.971   1.751   7.538  0.7142  0.1946 -0.0840
   12SAPS  H18R 1539   6.040   1.830   7.577 -1.9965  1.4854  2.4869
   12SAPS  H18S 1540   5.879   1.809   7.519  0.7915  0.4081  0.1771
   12SAPS  C219 1541   6.016   1.675   7.412  0.3890  0.5284 -0.4047
   12SAPS  H19R 1542   5.927   1.629   7.363 -0.3649  0.5293  0.9092
   12SAPS  H19S 1543   6.091   1.596   7.437 -0.9805 -0.7472 -0.1568
   12SAPS  C220 1544   6.086   1.749   7.300  0.0114 -0.7678  0.5279
   12SAPS  H20R 1545   6.029   1.840   7.272 -0.7966 -1.4759 -0.1607
   12SAPS  H20S 1546   6.088   1.681   7.212 -0.9542  0.4595 -0.4859
   12SAPS  H20T 1547   6.194   1.768   7.320 -0.2110  0.4332  0.6403
   12SAPS   C33 1548   5.922   2.291   7.113  0.0412  0.2046 -0.1211
   12SAPS   H3X 1549   5.869   2.381   7.075 -1.1679  0.2838  1.6229
   12SAPS   H3Y 1550   6.031   2.293   7.091  0.2276 -1.1972  0.5451
   12SAPS   C34 1551   5.894   2.263   7.256 -0.4098  0.0192 -0.5585
   12SAPS   H4X 1552   5.944   2.347   7.309 -0.3125 -0.2126 -0.2778
   12SAPS   H4Y 1553   5.939   2.166   7.285 -0.2136  0.0485 -0.7662
   12SAPS   C35 1554   5.748   2.272   7.294  0.3544 -0.0876  0.1301
   12SAPS   H5X 1555   5.680   2.208   7.232  1.1199 -0.0688 -0.7472
   12SAPS   H5Y 1556   5.719   2.377   7.272  0.5674 -0.0796 -0.1083
   12SAPS   C36 1557   5.714   2.233   7.440 -0.6730 -0.6408  0.0652
   12SAPS   H6X 1558   5.774   2.306   7.498 -1.7392  1.2799 -1.1312
   12SAPS   H6Y 1559   5.740   2.126   7.454 -0.4600 -0.8300 -1.6207
   12SAPS   C37 1560   5.569   2.261   7.489 -0.3406  0.2141  0.2651
   12SAPS   H7X 1561   5.504   2.199   7.423  1.4799 -0.6953 -0.7467
   12SAPS   H7Y 1562   5.527   2.362   7.472  0.8550  0.6353 -0.3162
   12SAPS   C38 1563   5.562   2.239   7.639  0.1721  0.1235 -0.0869
   12SAPS   H8X 1564   5.626   2.318   7.684  0.2805  0.1818 -0.3403
   12SAPS   H8Y 1565   5.617   2.147   7.667 -0.5017 -0.5250 -0.8324
   12SAPS   C39 1566   5.427   2.231   7.699  0.3751  0.3669  0.4955
   12SAPS   H9X 1567   5.365   2.147   7.663  1.1232 -0.4518  1.0855
   12SAPS   H9Y 1568   5.377   2.327   7.672 -0.8325 -0.2795  0.3633
   12SAPS  C310 1569   5.428   2.217   7.855 -0.4747  0.0015 -0.4531
   12SAPS  H10X 1570   5.482   2.303   7.901 -0.5038 -0.1517 -0.1257
   12SAPS  H10Y 1571   5.496   2.131   7.876 -1.5666 -0.6414  0.5519
   12SAPS  C311 1572   5.288   2.211   7.912 -0.5937  0.3402 -0.1486
   12SAPS  H11X 1573   5.245   2.117   7.871 -1.0629  0.5358 -0.1161
   12SAPS  H11Y 1574   5.234   2.302   7.877 -1.1239  0.1202  0.0887
   12SAPS  C312 1575   5.272   2.207   8.066 -0.2238  0.2548  0.8150
   12SAPS  H12X 1576   5.319   2.294   8.118  1.1036 -0.1319  0.3085
   12SAPS  H12Y 1577   5.319   2.113   8.101 -0.2027 -0.4710 -1.0529
   12SAPS  C313 1578   5.128   2.206   8.108 -0.3895  0.3472  0.0657
   12SAPS  H13X 1579   5.074   2.120   8.063  1.0709 -1.2310  1.1992
   12SAPS  H13Y 1580   5.084   2.308   8.097  0.7074  0.5483 -3.2478
   12SAPS  C314 1581   5.108   2.183   8.261 -0.5426 -0.0366 -0.4091
   12SAPS  H14X 1582   5.001   2.191   8.289 -0.3723 -2.7778  1.4239
   12SAPS  H14Y 1583   5.178   2.243   8.323 -1.6734  1.3209 -0.3861
   12SAPS  C315 1584   5.140   2.036   8.300 -0.2484 -0.2134 -0.2648
   12SAPS  H15X 1585   5.139   2.038   8.411  2.3506  1.6217 -0.1693
   12SAPS  H15Y 1586   5.245   2.016   8.270  1.6639  2.6922  3.6553
   12SAPS  C316 1587   5.042   1.935   8.248  0.4804  0.1464 -0.0193
   12SAPS  H16X 1588   5.076   1.838   8.289 -1.5047 -1.1454 -1.2804
   12SAPS  H16Y 1589   5.068   1.921   8.141  0.7968  0.5391  0.0010
   12SAPS  C317 1590   4.898   1.946   8.287  0.5626 -0.4845  0.7055
   12SAPS  H17X 1591   4.834   1.866   8.244 -0.1766  0.1519  0.6000
   12SAPS  H17Y 1592   4.874   2.039   8.231  0.6469  0.1774  1.7345
   12SAPS  C318 1593   4.867   1.975   8.430 -0.6706  0.3417  0.0796
   12SAPS  H18X 1594   4.939   2.053   8.460  0.3933  0.7272 -3.0761
   12SAPS  H18Y 1595   4.878   1.890   8.500  0.5563  0.1710 -0.2942
   12SAPS  H18Z 1596   4.766   2.021   8.441 -0.0700  1.5029  0.8932
   13SAPS     N 1597   3.898   6.711   6.360 -0.1594  0.5830 -0.2143
   13SAPS   HN1 1598   3.994   6.743   6.338 -0.2137 -0.4084 -2.0785
   13SAPS   HN2 1599   3.895   6.728   6.463  1.2457  2.5272 -0.4387
   13SAPS   HN3 1600   3.892   6.608   6.345 -1.6693  0.7544 -0.9709
   13SAPS   C12 1601   3.793   6.787   6.285 -0.0700 -0.3441 -0.5670
   13SAPS  H12A 1602   3.828   6.786   6.183 -0.3416 -1.3292 -0.6641
   13SAPS   C13 1603   3.661   6.725   6.283 -0.2272  0.6586  0.2200
   13SAPS  O13A 1604   3.649   6.604   6.330 -0.5950 -0.0620 -0.1519
   13SAPS  O13B 1605   3.571   6.768   6.205  0.3325  0.1987 -0.1470
   13SAPS   C11 1606   3.798   6.927   6.338 -0.6178 -0.5661 -0.2570
   13SAPS  H11A 1607   3.819   6.940   6.446 -0.7066  1.2053 -0.4184
   13SAPS  H11B 1608   3.700   6.973   6.314 -1.1326 -1.4283  0.1882
   13SAPS     P 1609   3.874   7.139   6.200  0.1673 -0.2783  0.0846
   13SAPS   O13 1610   3.973   7.156   6.095 -0.8574  0.1296  0.4130
   13SAPS   O14 1611   3.733   7.158   6.161 -0.1213 -0.2194 -0.2715
   13SAPS   O12 1612   3.903   6.993   6.265  0.2065  0.4127 -0.0722
   13SAPS   O11 1613   3.916   7.235   6.316 -0.0895  0.3652  0.0074
   13SAPS    C1 1614   4.034   7.214   6.391 -0.1003 -0.5857 -0.6497
   13SAPS    HA 1615   4.078   7.112   6.380 -1.2260 -1.1228 -0.3130
   13SAPS    HB 1616   4.112   7.282   6.350  0.3632  0.3943  1.6522
   13SAPS    C2 1617   4.007   7.246   6.548 -0.4891 -0.5289 -0.3634
   13SAPS    HS 1618   4.104   7.255   6.601 -0.6405 -0.0678 -0.1593
   13SAPS   O21 1619   3.922   7.145   6.614  0.1030 -0.1893  0.4056
   13SAPS   C21 1620   3.935   7.133   6.747 -0.2827  0.2108 -0.4191
   13SAPS   O22 1621   4.033   7.169   6.811 -0.4878  0.0568  0.5609
   13SAPS   C22 1622   3.810   7.074   6.809  0.0878  0.3057  0.8509
   13SAPS   H2R 1623   3.723   7.132   6.772 -0.9903 -2.0173 -0.4730
   13SAPS   H2S 1624   3.796   6.978   6.755 -0.0215 -0.5132  2.2778
   13SAPS    C3 1625   3.940   7.388   6.567  0.0416 -0.2469 -0.1097
   13SAPS    HX 1626   3.833   7.374   6.543  0.4198  0.8426 -2.8275
   13SAPS    HY 1627   3.980   7.454   6.487 -0.2373 -0.8591 -0.7591
   13SAPS   O31 1628   3.948   7.439   6.701 -0.1004  0.0554  0.0351
   13SAPS   C31 1629   4.061   7.492   6.731  0.0870 -0.0833  0.9509
   13SAPS   O32 1630   4.156   7.517   6.658  0.2770  0.0966 -0.2071
   13SAPS   C32 1631   4.053   7.524   6.884  0.6858  0.3089  0.7880
   13SAPS   H2X 1632   4.061   7.425   6.934 -1.5600 -0.8722 -1.0370
   13SAPS   H2Y 1633   3.964   7.587   6.902  2.2609  2.8464  0.2308
   13SAPS   C23 1634   3.795   7.052   6.963  0.6946 -0.5527 -0.0221
   13SAPS   H3R 1635   3.894   7.037   7.012  0.5653  2.3506  1.3039
   13SAPS   H3S 1636   3.740   6.957   6.979  0.5901 -0.2408  1.5982
   13SAPS   C24 1637   3.710   7.167   7.034  0.9412  0.8597  0.3326
   13SAPS   H4R 1638   3.682   7.114   7.127 -0.7750 -1.1660 -1.2607
   13SAPS   H4S 1639   3.611   7.180   6.986  0.4393 -1.6558  0.5847
   13SAPS   C25 1640   3.780   7.296   7.048 -0.2452 -0.8910  0.4619
   13SAPS   H5R 1641   3.818   7.333   6.952  0.8865  2.1360  1.9301
   13SAPS   C26 1642   3.794   7.366   7.161 -0.2948 -0.4931 -0.1849
   13SAPS   H6R 1643   3.861   7.453   7.165 -0.7746 -0.0985 -0.6116
   13SAPS   C27 1644   3.735   7.314   7.292  0.0655 -0.2192  0.3336
   13SAPS   H7R 1645   3.801   7.366   7.365  1.3939  0.9423 -1.5945
   13SAPS   H7S 1646   3.752   7.208   7.321  3.0258  0.4937  1.5985
   13SAPS   C28 1647   3.593   7.363   7.306  0.3518 -0.2776  0.5592
   13SAPS   H8R 1648   3.537   7.353   7.212 -0.9914 -4.4215  1.6037
   13SAPS   C29 1649   3.522   7.415   7.409  0.2855 -0.1829 -0.0845
   13SAPS   H9R 1650   3.426   7.460   7.382  0.1711 -0.9333 -0.9918
   13SAPS  C210 1651   3.579   7.445   7.551  0.2235 -0.5692  0.9317
   13SAPS  H10R 1652   3.621   7.547   7.560 -0.1120 -0.1152 -1.7023
   13SAPS  H10S 1653   3.671   7.384   7.560  0.9102  0.2576 -0.1421
   13SAPS  C211 1654   3.485   7.408   7.666  0.5356  0.1383  0.5047
   13SAPS  H11R 1655   3.431   7.313   7.651  0.0351  0.0317  2.6842
   13SAPS  C212 1656   3.465   7.467   7.782  0.5063 -0.5459 -1.6150
   13SAPS  H12R 1657   3.404   7.413   7.855 -0.5675  0.9521 -1.3513
   13SAPS  C213 1658   3.541   7.587   7.837  1.0541 -0.0689  0.5139
   13SAPS  H13R 1659   3.647   7.566   7.810  0.3664 -1.6152 -1.2088
   13SAPS  H13S 1660   3.529   7.577   7.947 -0.3571  1.1145  0.4956
   13SAPS  C214 1661   3.495   7.718   7.776 -0.4488 -0.1780  0.2881
   13SAPS  H14R 1662   3.493   7.727   7.666 -1.6028 -1.2508  0.1980
   13SAPS  C215 1663   3.472   7.829   7.850 -0.4161  0.0033 -0.4061
   13SAPS  H15R 1664   3.434   7.924   7.809 -3.3656 -0.2763  1.3779
   13SAPS  C216 1665   3.490   7.829   8.001  0.1924 -0.7550 -0.0002
   13SAPS  H16R 1666   3.582   7.777   8.036 -0.7853 -0.6141  3.1688
   13SAPS  H16S 1667   3.405   7.771   8.044  0.2852  0.2572  1.6779
   13SAPS  C217 1668   3.491   7.969   8.079  0.4070  0.5864  1.0929
   13SAPS  H17R 1669   3.410   8.037   8.044 -1.7893 -1.5569  1.7372
   13SAPS  H17S 1670   3.589   8.017   8.059  1.3723 -1.1782  1.3519
   13SAPS  C218 1671   3.461   7.942   8.225  0.2781  0.4387 -0.5333
   13SAPS  H18R 1672   3.521   7.852   8.251 -1.4240 -0.9951 -1.3568
   13SAPS  H18S 1673   3.355   7.914   8.240  0.2404  1.1083  0.5366
   13SAPS  C219 1674   3.485   8.060   8.319  0.2528  0.3158  0.0392
   13SAPS  H19R 1675   3.557   8.122   8.262 -0.3766  0.7250 -0.3162
   13SAPS  H19S 1676   3.520   8.020   8.417 -1.8401 -0.1981  0.6216
   13SAPS  C220 1677   3.362   8.151   8.348 -0.5385 -0.0584 -0.1589
   13SAPS  H20R 1678   3.379   8.214   8.438  0.8186 -0.5525 -0.0390
   13SAPS  H20S 1679   3.267   8.095   8.363 -0.0413 -0.4501  1.8874
   13SAPS  H20T 1680   3.347   8.202   8.251 -0.0440  0.1483 -0.1293
   13SAPS   C33 1681   4.171   7.620   6.922  0.1496  0.4282  0.0534
   13SAPS   H3X 1682   4.178   7.716   6.867 -0.1879  1.2281  1.3487
   13SAPS   H3Y 1683   4.265   7.561   6.920  1.5132  2.3368  1.9371
   13SAPS   C34 1684   4.162   7.667   7.072 -0.4920  0.8240  0.6311
   13SAPS   H4X 1685   4.064   7.717   7.086 -1.1165 -0.6886  1.8637
   13SAPS   H4Y 1686   4.240   7.747   7.079  1.8136 -0.5237 -4.5369
   13SAPS   C35 1687   4.176   7.552   7.166  0.0559 -0.0591  0.2587
   13SAPS   H5X 1688   4.284   7.524   7.165 -0.2326 -1.2081 -0.4404
   13SAPS   H5Y 1689   4.115   7.465   7.134  1.3952 -1.9667  2.5309
   13SAPS   C36 1690   4.123   7.588   7.305  0.2027  0.4613  0.1810
   13SAPS   H6X 1691   4.019   7.626   7.291  1.0219  2.7833  0.0264
   13SAPS   H6Y 1692   4.183   7.670   7.350 -1.1073  0.7989  1.3975
   13SAPS   C37 1693   4.126   7.466   7.399  0.4789 -0.1646  0.2336
   13SAPS   H7X 1694   4.230   7.434   7.422  1.1688  2.5432  1.2599
   13SAPS   H7Y 1695   4.067   7.382   7.357  2.2748 -0.7866 -1.1660
   13SAPS   C38 1696   4.053   7.487   7.534  0.3621 -0.0854 -0.3559
   13SAPS   H8X 1697   3.948   7.514   7.511  0.2203  0.8269  1.2168
   13SAPS   H8Y 1698   4.097   7.571   7.592 -2.9352  2.4213 -1.2090
   13SAPS   C39 1699   4.057   7.359   7.621 -0.6575 -0.1613  1.1901
   13SAPS   H9X 1700   4.165   7.335   7.623 -0.4367  0.1217 -2.1428
   13SAPS   H9Y 1701   4.011   7.276   7.563  0.3432  0.5405 -0.6812
   13SAPS  C310 1702   4.003   7.372   7.767 -0.1524  0.4876 -0.6745
   13SAPS  H10X 1703   3.898   7.405   7.751 -0.1485  1.7438  1.4303
   13SAPS  H10Y 1704   4.035   7.463   7.822 -2.3432 -0.8195  3.1078
   13SAPS  C311 1705   4.024   7.245   7.849 -0.5921 -0.3407  0.4347
   13SAPS  H11X 1706   4.132   7.223   7.863 -0.9856 -1.7449  1.4310
   13SAPS  H11Y 1707   3.976   7.161   7.794 -0.7312  0.1403 -0.1934
   13SAPS  C312 1708   3.959   7.253   7.991 -0.2710 -0.3469  0.5914
   13SAPS  H12X 1709   3.989   7.344   8.046 -0.2621  0.4694 -0.7184
   13SAPS  H12Y 1710   3.988   7.172   8.061 -3.6062 -1.2402  1.0944
   13SAPS  C313 1711   3.803   7.253   7.964 -0.0741 -0.8940  0.2174
   13SAPS  H13X 1712   3.758   7.161   7.920 -0.7791  0.1158 -1.2403
   13SAPS  H13Y 1713   3.778   7.333   7.891 -0.8367 -2.1696 -0.9886
   13SAPS  C314 1714   3.731   7.283   8.098  0.5098 -0.1470  0.3044
   13SAPS  H14X 1715   3.705   7.391   8.109 -1.3018 -0.4366 -0.6500
   13SAPS  H14Y 1716   3.798   7.265   8.184  1.4620  2.4144  0.2035
   13SAPS  C315 1717   3.602   7.212   8.113  0.4861  0.4425  0.3988
   13SAPS  H15X 1718   3.534   7.225   8.027 -0.5301  0.6168  1.2153
   13SAPS  H15Y 1719   3.558   7.238   8.211  1.6853 -0.9255  1.3482
   13SAPS  C316 1720   3.620   7.064   8.131 -0.1165  0.6078 -0.7014
   13SAPS  H16X 1721   3.661   7.021   8.037  0.0103 -1.7641  0.3677
   13SAPS  H16Y 1722   3.521   7.022   8.157  0.6076 -1.7346 -1.4522
   13SAPS  C317 1723   3.725   7.023   8.239  0.2079 -0.4352 -0.0657
   13SAPS  H17X 1724   3.827   7.056   8.211  0.5766  0.0869  1.7907
   13SAPS  H17Y 1725   3.737   6.913   8.250 -0.1705 -0.5601 -0.8122
   13SAPS  C318 1726   3.701   7.075   8.383 -0.5699 -0.2546  0.2593
   13SAPS  H18X 1727   3.730   7.181   8.397 -0.2778 -0.1617 -0.9485
   13SAPS  H18Y 1728   3.755   7.009   8.454  1.0163 -1.5029 -2.0051
   13SAPS  H18Z 1729   3.594   7.063   8.410 -0.8316 -1.5273 -1.2228
   14SAPS     N 1730   5.250   0.360   5.723  0.5577  0.1480 -0.9780
   14SAPS   HN1 1731   5.162   0.415   5.719 -0.1303 -0.7088  1.2579
   14SAPS   HN2 1732   5.241   0.294   5.802 -0.6407 -0.0778 -1.2956
   14SAPS   HN3 1733   5.335   0.418   5.742  0.8669 -0.7770  0.6175
   14SAPS   C12 1734   5.278   0.275   5.599 -0.8777 -0.2232  0.4534
   14SAPS  H12A 1735   5.185   0.228   5.570 -0.4140 -0.7465 -0.2225
   14SAPS   C13 1736   5.330   0.352   5.473  0.1358 -0.4057 -1.0112
   14SAPS  O13A 1737   5.366   0.470   5.500 -0.0534 -0.2780  0.7576
   14SAPS  O13B 1738   5.348   0.297   5.365 -0.2568  0.8124  0.2841
   14SAPS   C11 1739   5.386   0.174   5.642 -0.3289  0.3324  0.6782
   14SAPS  H11A 1740   5.476   0.233   5.672 -1.3112  1.0381  2.4171
   14SAPS  H11B 1741   5.410   0.101   5.562  0.5682 -0.8401  1.9748
   14SAPS     P 1742   5.253  -0.035   5.743 -0.4677  0.1821  0.1322
   14SAPS   O13 1743   5.121  -0.006   5.683 -0.0855 -0.7322  0.1124
   14SAPS   O14 1744   5.333  -0.144   5.674 -0.0855 -0.2949  0.2471
   14SAPS   O12 1745   5.340   0.093   5.752  0.1364  0.5639  0.7608
   14SAPS   O11 1746   5.230  -0.073   5.902  0.2875  0.2087 -0.0297
   14SAPS    C1 1747   5.349  -0.055   5.992 -0.3095 -0.6920  0.8353
   14SAPS    HA 1748   5.421  -0.139   5.982 -2.1111 -2.2013 -0.1084
   14SAPS    HB 1749   5.402   0.041   5.974  1.3947 -1.8496 -0.6598
   14SAPS    C2 1750   5.302  -0.050   6.140 -0.0096  0.1141  0.7823
   14SAPS    HS 1751   5.268  -0.155   6.154  0.8851 -0.0506  1.8597
   14SAPS   O21 1752   5.198   0.051   6.147 -0.0307  0.3012  0.1548
   14SAPS   C21 1753   5.143   0.056   6.266  0.5126 -0.1650 -0.4112
   14SAPS   O22 1754   5.147  -0.027   6.357 -0.2987 -0.2065 -0.3218
   14SAPS   C22 1755   5.046   0.177   6.284 -0.0606 -0.3836  0.2854
   14SAPS   H2R 1756   5.020   0.189   6.391  0.7223  3.2573  0.2096
   14SAPS   H2S 1757   5.102   0.270   6.258 -0.9728 -0.1253 -0.8150
   14SAPS    C3 1758   5.413  -0.019   6.240  0.2957 -0.4028 -0.4465
   14SAPS    HX 1759   5.386  -0.019   6.347 -1.0323  0.5390 -0.7586
   14SAPS    HY 1760   5.454   0.077   6.202 -1.4246 -0.0241 -1.4387
   14SAPS   O31 1761   5.505  -0.124   6.225 -0.1219  0.1596 -0.0601
   14SAPS   C31 1762   5.631  -0.097   6.243 -0.0436 -0.1207  0.4651
   14SAPS   O32 1763   5.688   0.008   6.271  0.2693 -1.0153  0.2799
   14SAPS   C32 1764   5.701  -0.216   6.195  0.3195  1.0161  0.4534
   14SAPS   H2X 1765   5.810  -0.213   6.217  0.1414  0.4930  1.4685
   14SAPS   H2Y 1766   5.693  -0.237   6.086  1.5012  2.2963  0.0853
   14SAPS   C23 1767   4.935   0.172   6.180 -0.0705 -0.2468  0.6597
   14SAPS   H3R 1768   4.901   0.069   6.159 -1.2246  0.5949 -2.0089
   14SAPS   H3S 1769   4.960   0.218   6.082 -0.5961 -1.6837 -0.1673
   14SAPS   C24 1770   4.809   0.254   6.228 -0.5027 -0.9277 -0.4573
   14SAPS   H4R 1771   4.782   0.219   6.330 -2.1324  1.6630  0.0891
   14SAPS   H4S 1772   4.718   0.232   6.168 -1.4274 -3.1678  1.5852
   14SAPS   C25 1773   4.851   0.399   6.248  0.3838  0.3577  0.4121
   14SAPS   H5R 1774   4.856   0.449   6.150  0.6221 -0.9669 -0.2768
   14SAPS   C26 1775   4.869   0.461   6.364  0.3262  0.1600  0.2815
   14SAPS   H6R 1776   4.902   0.566   6.366 -0.6049  0.4527  1.5993
   14SAPS   C27 1777   4.862   0.407   6.501  0.5948 -0.0804  0.0410
   14SAPS   H7R 1778   4.963   0.404   6.549  0.8924  0.1292 -0.5573
   14SAPS   H7S 1779   4.827   0.302   6.503 -0.8421  0.3718 -0.1117
   14SAPS   C28 1780   4.777   0.489   6.595  0.1081 -0.3576  0.3140
   14SAPS   H8R 1781   4.686   0.537   6.556  1.8828  0.0450 -3.9144
   14SAPS   C29 1782   4.812   0.524   6.719  0.4268  0.2830 -0.2717
   14SAPS   H9R 1783   4.741   0.586   6.777  0.9571 -0.0124  0.6989
   14SAPS  C210 1784   4.939   0.496   6.796  0.3109 -0.0594 -0.3011
   14SAPS  H10R 1785   4.973   0.590   6.844  0.9554 -0.0961 -0.6796
   14SAPS  H10S 1786   5.022   0.465   6.729 -0.0358 -0.2683 -0.6453
   14SAPS  C211 1787   4.910   0.404   6.909  0.2095 -0.0488  0.8081
   14SAPS  H11R 1788   4.870   0.307   6.877  0.7326 -0.3284  0.9996
   14SAPS  C212 1789   4.939   0.430   7.040  0.9063  0.3420 -0.4712
   14SAPS  H12R 1790   4.894   0.359   7.110  0.4498  0.4106 -0.6891
   14SAPS  C213 1791   5.014   0.550   7.104  0.4071  0.2628 -0.2550
   14SAPS  H13R 1792   4.937   0.611   7.155 -0.3158  0.0737 -1.0878
   14SAPS  H13S 1793   5.058   0.620   7.030  0.8497  1.2333  0.9179
   14SAPS  C214 1794   5.131   0.521   7.193 -1.2274  0.3854  0.5312
   14SAPS  H14R 1795   5.205   0.460   7.139 -3.2411 -2.5230  0.8057
   14SAPS  C215 1796   5.154   0.562   7.318 -0.3398 -0.8550  0.3622
   14SAPS  H15R 1797   5.254   0.555   7.362 -1.0070  0.0034  2.1308
   14SAPS  C216 1798   5.075   0.654   7.413  0.2722 -0.6052  0.5544
   14SAPS  H16R 1799   5.107   0.622   7.514  1.0543  1.2914  0.9439
   14SAPS  H16S 1800   4.969   0.623   7.401  0.0966  0.3617 -0.5311
   14SAPS  C217 1801   5.101   0.802   7.397  0.1740  0.1471  0.3444
   14SAPS  H17R 1802   5.040   0.865   7.466  0.0760 -1.4044  1.7575
   14SAPS  H17S 1803   5.081   0.841   7.295 -0.9910  0.9785  0.8595
   14SAPS  C218 1804   5.252   0.847   7.412  0.6783  0.0718  0.8722
   14SAPS  H18R 1805   5.262   0.949   7.367 -1.6629 -0.1053 -0.1824
   14SAPS  H18S 1806   5.316   0.778   7.353 -0.9029 -1.2639  0.6428
   14SAPS  C219 1807   5.293   0.860   7.561 -0.4818 -0.4494 -0.2791
   14SAPS  H19R 1808   5.271   0.767   7.618  1.2992 -0.4700  0.4214
   14SAPS  H19S 1809   5.249   0.949   7.609  1.6262 -0.9350  2.8581
   14SAPS  C220 1810   5.447   0.885   7.577  0.9872  0.5703  0.1752
   14SAPS  H20R 1811   5.499   0.813   7.511  0.4152 -0.2516  0.5901
   14SAPS  H20S 1812   5.473   0.865   7.683  1.5409  0.0623 -0.0521
   14SAPS  H20T 1813   5.473   0.988   7.546 -0.2302  0.7296 -0.3665
   14SAPS   C33 1814   5.647  -0.351   6.262 -0.4479  0.2054 -0.1750
   14SAPS   H3X 1815   5.674  -0.449   6.219  2.6748  0.7752  0.2343
   14SAPS   H3Y 1816   5.536  -0.350   6.274 -0.2502  2.3098  2.7116
   14SAPS   C34 1817   5.720  -0.380   6.398 -0.4805  0.3451  0.0659
   14SAPS   H4X 1818   5.824  -0.407   6.370 -1.2450  0.6571 -3.6379
   14SAPS   H4Y 1819   5.680  -0.472   6.446  0.3334 -0.3179 -0.5069
   14SAPS   C35 1820   5.715  -0.274   6.511 -0.3470  0.0453  0.2725
   14SAPS   H5X 1821   5.761  -0.181   6.472 -2.3195  1.0909  0.3073
   14SAPS   H5Y 1822   5.776  -0.304   6.598 -1.8616 -0.6508  1.1214
   14SAPS   C36 1823   5.574  -0.247   6.559  0.0628  0.2078 -0.0722
   14SAPS   H6X 1824   5.532  -0.335   6.614 -0.8321 -0.9380 -2.4557
   14SAPS   H6Y 1825   5.504  -0.235   6.474 -1.3069  0.4200  1.0340
   14SAPS   C37 1826   5.570  -0.129   6.663 -0.6686 -0.5524  0.9735
   14SAPS   H7X 1827   5.462  -0.109   6.681 -1.0208 -0.6586 -0.7708
   14SAPS   H7Y 1828   5.612  -0.040   6.611  0.9059 -2.1207 -0.6213
   14SAPS   C38 1829   5.657  -0.145   6.779 -0.4938 -0.0281 -0.5978
   14SAPS   H8X 1830   5.762  -0.159   6.745 -0.6855 -0.0961 -1.1697
   14SAPS   H8Y 1831   5.626  -0.228   6.846 -1.2194 -0.6340 -1.6588
   14SAPS   C39 1832   5.669  -0.022   6.873  0.2339 -0.0470 -0.2781
   14SAPS   H9X 1833   5.568  -0.006   6.916  0.1566  0.7743 -0.7394
   14SAPS   H9Y 1834   5.696   0.066   6.811 -0.9885 -0.5871 -1.6447
   14SAPS  C310 1835   5.770  -0.041   6.983 -0.4792  0.6166  0.7356
   14SAPS  H10X 1836   5.863  -0.072   6.930 -0.9587 -3.8705  2.0822
   14SAPS  H10Y 1837   5.740  -0.131   7.041  1.4506 -0.6235 -0.0561
   14SAPS  C311 1838   5.795   0.080   7.068 -0.8778 -0.9902 -0.3639
   14SAPS  H11X 1839   5.701   0.122   7.110 -0.5685 -0.3490 -0.3038
   14SAPS  H11Y 1840   5.824   0.154   6.990 -1.4886 -0.7591 -0.3799
   14SAPS  C312 1841   5.914   0.068   7.162 -0.1048  0.3386  0.4158
   14SAPS  H12X 1842   5.943   0.170   7.195  0.1364 -0.7277  3.8249
   14SAPS  H12Y 1843   6.002   0.016   7.118  0.8627  0.3027  2.3156
   14SAPS  C313 1844   5.868  -0.005   7.289  0.2728  0.7703  0.4829
   14SAPS  H13X 1845   5.831  -0.109   7.280 -0.3073  0.8971  1.2618
   14SAPS  H13Y 1846   5.783   0.050   7.335  1.8537  2.5837  1.3967
   14SAPS  C314 1847   5.974   0.001   7.399 -0.6167  0.0408  0.8184
   14SAPS  H14X 1848   6.001   0.106   7.424 -1.0330  0.1756  0.7191
   14SAPS  H14Y 1849   6.064  -0.044   7.354 -1.7134  0.2174 -1.6947
   14SAPS  C315 1850   5.940  -0.084   7.526 -0.0011  0.9151  0.2067
   14SAPS  H15X 1851   5.957  -0.187   7.488 -1.2831  0.3607  1.1043
   14SAPS  H15Y 1852   5.834  -0.068   7.553 -0.3774 -0.4665 -0.3514
   14SAPS  C316 1853   6.044  -0.070   7.631  1.0212 -0.5619 -0.0007
   14SAPS  H16X 1854   6.080   0.035   7.630  1.0313 -0.5510  0.6952
   14SAPS  H16Y 1855   6.134  -0.126   7.598  1.6129  0.8241 -0.8236
   14SAPS  C317 1856   6.008  -0.111   7.777  0.1493 -0.1711  0.2842
   14SAPS  H17X 1857   5.975  -0.216   7.785 -1.3496  0.4083  2.9545
   14SAPS  H17Y 1858   5.921  -0.048   7.806  0.4098  1.6601 -2.4571
   14SAPS  C318 1859   6.122  -0.085   7.871 -0.4819 -0.0457 -0.2347
   14SAPS  H18X 1860   6.157   0.020   7.864  1.9693 -0.9053 -2.0722
   14SAPS  H18Y 1861   6.209  -0.140   7.830 -0.2320  0.7012 -0.7246
   14SAPS  H18Z 1862   6.101  -0.125   7.972 -1.2501 -2.2614 -1.2079
   15SAPS     N 1863   5.306   5.548   5.924 -0.8320  0.3374  0.3035
   15SAPS   HN1 1864   5.316   5.598   6.015  0.8357 -0.9312  0.8737
   15SAPS   HN2 1865   5.216   5.565   5.875 -0.9322  0.4189  0.5165
   15SAPS   HN3 1866   5.314   5.445   5.934 -0.7062  0.0728 -1.9663
   15SAPS   C12 1867   5.425   5.593   5.838 -0.1269  0.1638  0.4684
   15SAPS  H12A 1868   5.519   5.569   5.885  0.1506  0.9787  0.3394
   15SAPS   C13 1869   5.442   5.503   5.714 -0.4272  0.3769  0.0815
   15SAPS  O13A 1870   5.348   5.422   5.683 -0.3622 -0.0013 -0.2319
   15SAPS  O13B 1871   5.558   5.491   5.665 -0.0850  0.1225 -0.0755
   15SAPS   C11 1872   5.421   5.742   5.807 -0.3433  0.0808 -0.1264
   15SAPS  H11A 1873   5.332   5.784   5.757  0.5359  0.7179 -1.1960
   15SAPS  H11B 1874   5.489   5.765   5.722 -0.2342  1.5071  0.3259
   15SAPS     P 1875   5.362   5.895   6.015  0.8029  0.3423  0.0562
   15SAPS   O13 1876   5.330   6.018   5.935  0.2039  0.5357  0.4358
   15SAPS   O14 1877   5.246   5.810   6.052  0.4500 -0.0314 -0.5088
   15SAPS   O12 1878   5.463   5.813   5.926  0.0099  0.0265  0.0805
   15SAPS   O11 1879   5.440   5.932   6.151  0.2756  0.2286 -0.5370
   15SAPS    C1 1880   5.570   5.983   6.155  0.3089  0.0463 -0.9528
   15SAPS    HA 1881   5.625   5.939   6.069  0.8007 -0.3370 -0.4521
   15SAPS    HB 1882   5.561   6.094   6.154  1.4277  0.2033  1.2626
   15SAPS    C2 1883   5.636   5.926   6.287  0.4009 -0.1754 -0.2859
   15SAPS    HS 1884   5.643   5.816   6.278  1.3523 -0.0450 -1.3828
   15SAPS   O21 1885   5.567   5.972   6.405 -0.0007  0.6335  0.4848
   15SAPS   C21 1886   5.481   5.876   6.448  0.3480  0.7701 -0.0903
   15SAPS   O22 1887   5.449   5.777   6.383 -0.3313  0.2606  0.3645
   15SAPS   C22 1888   5.424   5.910   6.583  0.0654 -0.0450 -0.7977
   15SAPS   H2R 1889   5.419   6.020   6.590  0.1541 -0.0628 -0.4343
   15SAPS   H2S 1890   5.319   5.875   6.578 -1.0937  3.3547 -3.4999
   15SAPS    C3 1891   5.779   5.979   6.300 -0.4439 -0.7264 -0.4980
   15SAPS    HX 1892   5.780   6.090   6.309  0.2925 -0.8815  2.5225
   15SAPS    HY 1893   5.823   5.955   6.201 -0.8501 -1.0758 -0.5963
   15SAPS   O31 1894   5.851   5.924   6.411  0.0305 -0.3154  0.0285
   15SAPS   C31 1895   5.975   5.956   6.408 -0.0740  0.2999  0.0709
   15SAPS   O32 1896   6.026   6.046   6.341  0.1984 -0.4698  0.0664
   15SAPS   C32 1897   6.057   5.864   6.488 -0.1570  0.6032 -0.3917
   15SAPS   H2X 1898   6.153   5.844   6.434 -0.0804 -1.8929  0.5189
   15SAPS   H2Y 1899   6.001   5.768   6.500  0.7210  0.3531  2.6014
   15SAPS   C23 1900   5.510   5.852   6.703 -0.8643  0.4398 -0.0931
   15SAPS   H3R 1901   5.488   5.744   6.712 -1.0737  0.4377 -0.6179
   15SAPS   H3S 1902   5.470   5.906   6.792 -1.0829 -1.5597  1.0914
   15SAPS   C24 1903   5.661   5.861   6.685 -0.2907  0.3115  0.6309
   15SAPS   H4R 1904   5.699   5.809   6.595 -0.5402 -0.7033  1.0935
   15SAPS   H4S 1905   5.724   5.821   6.767 -0.6713  1.2271  1.3874
   15SAPS   C25 1906   5.696   6.011   6.669  0.0495 -0.2662  0.1051
   15SAPS   H5R 1907   5.707   6.060   6.571  2.2782  1.3426  1.0514
   15SAPS   C26 1908   5.708   6.102   6.770  0.3616  0.4042 -0.2501
   15SAPS   H6R 1909   5.727   6.207   6.744 -4.1911  0.4272 -5.1538
   15SAPS   C27 1910   5.708   6.077   6.917  0.3611 -0.2737  0.7313
   15SAPS   H7R 1911   5.808   6.086   6.963  1.2444 -1.1473 -0.9226
   15SAPS   H7S 1912   5.674   5.973   6.936 -1.6290  0.1731 -0.0937
   15SAPS   C28 1913   5.608   6.158   7.002 -0.2439  0.2180 -0.5612
   15SAPS   H8R 1914   5.506   6.120   6.986 -0.4787  0.1416  0.9525
   15SAPS   C29 1915   5.634   6.248   7.100 -0.4352  0.4437 -0.3055
   15SAPS   H9R 1916   5.548   6.279   7.161 -0.4605 -0.1708 -0.0149
   15SAPS  C210 1917   5.767   6.310   7.141 -0.0605 -0.3358  0.1242
   15SAPS  H10R 1918   5.828   6.314   7.048 -0.8392 -1.6275 -0.4773
   15SAPS  H10S 1919   5.810   6.234   7.209  2.2227  1.4514  0.7720
   15SAPS  C211 1920   5.748   6.434   7.211 -0.0324  0.4365 -0.6438
   15SAPS  H11R 1921   5.723   6.528   7.160 -1.3894  0.4785  0.0525
   15SAPS  C212 1922   5.763   6.443   7.343 -0.8399  0.2654 -0.4255
   15SAPS  H12R 1923   5.753   6.541   7.391  0.7048  0.5479 -0.6238
   15SAPS  C213 1924   5.783   6.342   7.453 -0.3850  0.4216  0.1509
   15SAPS  H13R 1925   5.870   6.370   7.516  1.7760 -0.2529 -2.3356
   15SAPS  H13S 1926   5.831   6.254   7.405  0.3432  0.6756  0.4054
   15SAPS  C214 1927   5.662   6.331   7.542  0.4627 -0.5029  0.1241
   15SAPS  H14R 1928   5.594   6.246   7.524 -2.5925  1.0859  2.9633
   15SAPS  C215 1929   5.642   6.406   7.651 -0.0108  0.0594  0.2871
   15SAPS  H15R 1930   5.554   6.381   7.712  0.5438 -1.1851  0.6151
   15SAPS  C216 1931   5.722   6.517   7.711 -0.7604 -0.5616  0.1010
   15SAPS  H16R 1932   5.693   6.621   7.684  0.3422 -0.5310 -1.0486
   15SAPS  H16S 1933   5.824   6.515   7.668 -1.4933 -0.2834 -1.7461
   15SAPS  C217 1934   5.723   6.507   7.865  0.4723  0.7577 -0.2062
   15SAPS  H17R 1935   5.621   6.523   7.908  1.3037 -0.4590  2.4070
   15SAPS  H17S 1936   5.781   6.591   7.908  1.1661 -0.3453  1.0571
   15SAPS  C218 1937   5.771   6.372   7.924 -0.0623 -0.5697  0.1021
   15SAPS  H18R 1938   5.844   6.319   7.859 -0.9044 -2.4584  0.6253
   15SAPS  H18S 1939   5.668   6.329   7.927 -0.6596  0.6927 -1.0879
   15SAPS  C219 1940   5.827   6.389   8.064  0.3110  0.4365  1.1229
   15SAPS  H19R 1941   5.766   6.460   8.124  0.4266  0.1792  1.5427
   15SAPS  H19S 1942   5.926   6.437   8.050  1.1316 -1.7200 -1.3551
   15SAPS  C220 1943   5.844   6.253   8.139  0.5232  0.1069  0.4854
   15SAPS  H20R 1944   5.754   6.192   8.122  0.4992  0.5290 -1.0171
   15SAPS  H20S 1945   5.869   6.277   8.245  1.0726  0.6575  0.2384
   15SAPS  H20T 1946   5.933   6.201   8.097 -0.3310 -0.8667 -0.1391
   15SAPS   C33 1947   6.090   5.903   6.628 -0.0677  0.5177 -0.3839
   15SAPS   H3X 1948   6.138   5.819   6.682 -1.4947  0.5712  1.0542
   15SAPS   H3Y 1949   5.990   5.923   6.673 -0.7232  0.1731 -1.6186
   15SAPS   C34 1950   6.174   6.028   6.637  0.0426  0.2462 -0.2421
   15SAPS   H4X 1951   6.150   6.105   6.560  0.7540  0.8219  0.0968
   15SAPS   H4Y 1952   6.277   5.995   6.611  0.3080  1.4528 -0.7867
   15SAPS   C35 1953   6.182   6.106   6.774  0.7016  0.2138  0.1043
   15SAPS   H5X 1954   6.081   6.148   6.792  0.7662  0.2166  0.4573
   15SAPS   H5Y 1955   6.240   6.201   6.765  1.2552 -0.0512  0.7928
   15SAPS   C36 1956   6.242   6.028   6.892 -0.0549 -0.4923  0.0066
   15SAPS   H6X 1957   6.351   6.017   6.878 -0.3208 -1.5084 -1.5284
   15SAPS   H6Y 1958   6.198   5.926   6.890  2.7500 -1.8004 -2.0846
   15SAPS   C37 1959   6.220   6.079   7.035 -0.8897 -0.8888  0.6142
   15SAPS   H7X 1960   6.216   6.189   7.027 -0.2346 -0.9075 -0.0531
   15SAPS   H7Y 1961   6.315   6.060   7.089 -0.3813  4.7017  2.3382
   15SAPS   C38 1962   6.093   6.026   7.107 -0.0709 -0.8747 -0.5226
   15SAPS   H8X 1963   6.110   5.916   7.102  1.9168 -0.5562 -2.8305
   15SAPS   H8Y 1964   6.001   6.060   7.054  2.6174  2.5665 -3.4348
   15SAPS   C39 1965   6.082   6.080   7.255  0.7143 -0.7578  0.0078
   15SAPS   H9X 1966   6.050   6.186   7.253 -3.6101 -1.8680 -0.9026
   15SAPS   H9Y 1967   6.187   6.077   7.291  0.1732  2.1132  2.1410
   15SAPS  C310 1968   5.991   6.000   7.348 -0.1958  0.7093 -0.3673
   15SAPS  H10X 1969   5.892   5.983   7.302 -0.8856  0.1478  1.2510
   15SAPS  H10Y 1970   5.972   6.039   7.451 -1.5779  1.5946 -0.9399
   15SAPS  C311 1971   6.066   5.863   7.379  0.0116 -0.0308 -0.1027
   15SAPS  H11X 1972   6.174   5.880   7.404  0.1094 -0.4770 -0.2231
   15SAPS  H11Y 1973   6.069   5.803   7.286  1.9482  1.1002 -0.8471
   15SAPS  C312 1974   6.017   5.773   7.489 -0.9587 -0.4632  0.0900
   15SAPS  H12X 1975   6.082   5.683   7.499 -0.3818 -0.1107 -0.4199
   15SAPS  H12Y 1976   5.916   5.738   7.457 -0.6315 -0.3814 -1.0741
   15SAPS  C313 1977   6.020   5.844   7.620 -0.1733 -0.2360 -0.0778
   15SAPS  H13X 1978   5.928   5.906   7.622 -0.4075 -0.5881  0.6919
   15SAPS  H13Y 1979   6.099   5.921   7.611 -1.1179  0.7465 -0.0899
   15SAPS  C314 1980   6.028   5.760   7.744 -0.0441 -0.3099  0.5291
   15SAPS  H14X 1981   6.123   5.704   7.733 -1.0766 -2.0484 -0.0418
   15SAPS  H14Y 1982   5.951   5.680   7.737 -0.1587 -0.1067 -0.9511
   15SAPS  C315 1983   6.022   5.841   7.871 -0.6017  0.0945  0.5029
   15SAPS  H15X 1984   5.940   5.914   7.856 -0.8034  0.1671  1.8686
   15SAPS  H15Y 1985   6.118   5.898   7.873 -1.7790  2.2387 -0.6491
   15SAPS  C316 1986   6.015   5.751   7.998 -0.4230 -0.1871  0.6738
   15SAPS  H16X 1987   6.104   5.685   7.991 -1.1261 -1.0924  0.0333
   15SAPS  H16Y 1988   5.924   5.687   7.993  0.8213 -1.9059 -2.4058
   15SAPS  C317 1989   6.020   5.835   8.127 -0.5061 -0.7499 -0.6944
   15SAPS  H17X 1990   6.107   5.904   8.116  0.6360 -2.1057 -0.3991
   15SAPS  H17Y 1991   6.045   5.767   8.211 -1.6153 -1.4490 -0.9134
   15SAPS  C318 1992   5.891   5.911   8.160 -0.1517 -0.0085 -0.0339
   15SAPS  H18X 1993   5.801   5.851   8.187 -0.5199  1.3067  1.8584
   15SAPS  H18Y 1994   5.854   5.976   8.078 -2.7676 -0.8195  0.4007
   15SAPS  H18Z 1995   5.916   5.973   8.249 -0.7886  2.7711 -1.6826
   16SAPS     N 1996   6.036   1.957   6.581  0.5414  0.2020 -0.2161
   16SAPS   HN1 1997   5.974   1.938   6.663 -0.1074 -0.6662 -0.8821
   16SAPS   HN2 1998   6.129   1.913   6.592  0.1663 -0.4411  0.5507
   16SAPS   HN3 1999   6.053   2.059   6.569  4.1420 -0.2558  0.0520
   16SAPS   C12 2000   5.970   1.888   6.469 -0.0677 -0.4284 -0.3083
   16SAPS  H12A 2001   5.985   1.940   6.375 -0.6925 -0.8661 -0.6537
   16SAPS   C13 2002   6.019   1.742   6.448  0.2597 -0.8163  0.4199
   16SAPS  O13A 2003   6.094   1.689   6.530 -0.4325 -0.3024 -0.2291
   16SAPS  O13B 2004   5.959   1.679   6.360  1.0693  0.7010  0.7198
   16SAPS   C11 2005   5.816   1.882   6.500  0.1132 -0.6008  0.0298
   16SAPS  H11A 2006   5.810   1.811   6.586 -0.4920  0.4514  0.8739
   16SAPS  H11B 2007   5.762   1.832   6.417 -1.4360 -1.7261  1.6379
   16SAPS     P 2008   5.654   2.083   6.450 -0.1209  0.4971 -0.0439
   16SAPS   O13 2009   5.650   2.226   6.478 -0.0929 -0.2949 -0.3461
   16SAPS   O14 2010   5.686   2.045   6.310 -0.2277 -0.1514 -0.0638
   16SAPS   O12 2011   5.760   2.014   6.540 -0.2837 -0.4354  0.2877
   16SAPS   O11 2012   5.513   2.017   6.497 -0.3815  0.1163  0.5445
   16SAPS    C1 2013   5.468   2.030   6.629  0.0815  0.1848 -0.5609
   16SAPS    HA 2014   5.488   2.132   6.668 -0.9369  0.1172  0.1786
   16SAPS    HB 2015   5.357   2.025   6.624  0.1123  0.0900 -1.1284
   16SAPS    C2 2016   5.499   1.914   6.721 -0.0567  0.3177 -0.5174
   16SAPS    HS 2017   5.600   1.942   6.757  0.2977 -0.6751 -0.7084
   16SAPS   O21 2018   5.494   1.783   6.651 -0.0976 -0.1448 -0.3061
   16SAPS   C21 2019   5.590   1.691   6.684  0.0947 -0.6173  0.7376
   16SAPS   O22 2020   5.682   1.707   6.757 -0.0749 -0.0168  0.7149
   16SAPS   C22 2021   5.564   1.560   6.610  0.0217 -0.1461 -0.1827
   16SAPS   H2R 2022   5.455   1.544   6.592 -0.1868  1.2011 -0.1960
   16SAPS   H2S 2023   5.612   1.553   6.510  2.5651 -1.5307  1.0530
   16SAPS    C3 2024   5.397   1.906   6.841  0.1778 -0.2329  0.5500
   16SAPS    HX 2025   5.305   1.864   6.796  0.1865  2.7961 -2.6817
   16SAPS    HY 2026   5.370   2.010   6.869 -0.6834 -0.2587 -0.1721
   16SAPS   O31 2027   5.443   1.819   6.952  0.0254 -0.4114  0.3158
   16SAPS   C31 2028   5.535   1.867   7.031  0.0094  0.1642  0.4558
   16SAPS   O32 2029   5.560   1.986   7.040  0.3837 -0.4614 -0.0444
   16SAPS   C32 2030   5.602   1.757   7.103 -0.1090 -0.1297 -1.2495
   16SAPS   H2X 2031   5.644   1.680   7.034  0.5164 -0.1985 -0.8071
   16SAPS   H2Y 2032   5.523   1.706   7.161  0.6853 -0.8062 -0.7312
   16SAPS   C23 2033   5.616   1.432   6.683 -0.4792  0.1594  0.5419
   16SAPS   H3R 2034   5.726   1.427   6.697 -0.4941 -1.2276  0.2845
   16SAPS   H3S 2035   5.605   1.356   6.603  1.1791  0.5480 -0.0877
   16SAPS   C24 2036   5.537   1.401   6.809 -0.2629 -1.1289 -0.2757
   16SAPS   H4R 2037   5.545   1.495   6.868 -1.7534 -1.7759  1.0551
   16SAPS   H4S 2038   5.593   1.329   6.872  1.6771  1.0430  0.6636
   16SAPS   C25 2039   5.400   1.346   6.782 -0.0719 -0.8832  0.4728
   16SAPS   H5R 2040   5.387   1.251   6.730 -3.1306  0.6361 -1.8484
   16SAPS   C26 2041   5.279   1.406   6.801 -0.3607 -0.2522  0.2597
   16SAPS   H6R 2042   5.193   1.343   6.776 -0.2569 -0.1711 -0.3214
   16SAPS   C27 2043   5.260   1.542   6.863 -0.2625  0.1229 -0.2826
   16SAPS   H7R 2044   5.244   1.624   6.790 -2.2258  1.0352  1.0863
   16SAPS   H7S 2045   5.351   1.576   6.917 -0.5512  1.4914 -0.6220
   16SAPS   C28 2046   5.146   1.527   6.959  0.7484 -0.1411 -0.1028
   16SAPS   H8R 2047   5.049   1.537   6.908  1.5062 -0.2138 -1.6180
   16SAPS   C29 2048   5.150   1.503   7.090 -0.1572 -0.1389 -0.0532
   16SAPS   H9R 2049   5.052   1.486   7.137  1.2177 -1.2434  2.6459
   16SAPS  C210 2050   5.262   1.480   7.190  0.0752 -0.5685 -0.5514
   16SAPS  H10R 2051   5.238   1.542   7.279 -0.1701 -1.4783  0.0308
   16SAPS  H10S 2052   5.360   1.514   7.149  0.6669 -2.2730 -0.6239
   16SAPS  C211 2053   5.295   1.339   7.211  0.5395  0.3008  0.1203
   16SAPS  H11R 2054   5.297   1.274   7.122 -0.3976  0.7203 -0.2168
   16SAPS  C212 2055   5.301   1.284   7.334 -0.8613  0.6034 -0.6626
   16SAPS  H12R 2056   5.336   1.182   7.355 -0.8502  0.7710  0.1666
   16SAPS  C213 2057   5.289   1.357   7.467 -0.1958 -0.1916 -0.8914
   16SAPS  H13R 2058   5.196   1.328   7.519 -0.0641  1.4962  0.3428
   16SAPS  H13S 2059   5.266   1.465   7.476  1.3393  0.0284  1.3150
   16SAPS  C214 2060   5.409   1.329   7.555  0.2458  0.7528  0.3714
   16SAPS  H14R 2061   5.508   1.327   7.507  0.2798  3.5446  0.2081
   16SAPS  C215 2062   5.410   1.297   7.687  0.6664  0.2007  0.3011
   16SAPS  H15R 2063   5.507   1.277   7.735 -0.0261 -1.3831  1.1200
   16SAPS  C216 2064   5.296   1.282   7.789 -0.5831  0.5843 -0.0886
   16SAPS  H16R 2065   5.199   1.321   7.754 -1.1954 -0.7841  0.0133
   16SAPS  H16S 2066   5.325   1.339   7.880 -0.5625  0.5317 -0.0621
   16SAPS  C217 2067   5.301   1.132   7.828 -0.6227 -0.1218 -0.9538
   16SAPS  H17R 2068   5.402   1.092   7.849 -1.4463 -2.8332 -1.7203
   16SAPS  H17S 2069   5.244   1.069   7.756 -1.6554 -1.0475  0.6099
   16SAPS  C218 2070   5.223   1.109   7.962  0.7350  0.3690 -0.3271
   16SAPS  H18R 2071   5.124   1.152   7.934  0.1663 -1.1128 -0.7275
   16SAPS  H18S 2072   5.271   1.163   8.046  0.7478 -1.0222  0.5973
   16SAPS  C219 2073   5.196   0.961   7.995 -0.0399  0.5092 -0.4746
   16SAPS  H19R 2074   5.297   0.915   7.989  0.3693  1.3286 -0.1034
   16SAPS  H19S 2075   5.128   0.919   7.918 -0.1345 -1.8813  0.8123
   16SAPS  C220 2076   5.133   0.932   8.125  0.8087 -0.2556 -0.2952
   16SAPS  H20R 2077   5.107   0.824   8.123 -2.2705  0.3844 -1.4018
   16SAPS  H20S 2078   5.038   0.989   8.133 -0.0292 -1.2829 -2.3111
   16SAPS  H20T 2079   5.206   0.944   8.208  0.1857 -0.4485  0.2975
   16SAPS   C33 2080   5.715   1.805   7.202 -0.3869  0.5147  0.0746
   16SAPS   H3X 2081   5.779   1.878   7.148 -0.9419 -0.6255 -2.2489
   16SAPS   H3Y 2082   5.774   1.719   7.240  1.0686  0.8659 -1.2881
   16SAPS   C34 2083   5.643   1.872   7.322  0.4893  0.6720 -0.3435
   16SAPS   H4X 2084   5.573   1.951   7.288 -1.7726 -0.5409  1.2619
   16SAPS   H4Y 2085   5.723   1.911   7.389 -1.4768 -0.3759  2.8541
   16SAPS   C35 2086   5.549   1.775   7.410 -0.7546 -0.0058  0.3871
   16SAPS   H5X 2087   5.606   1.689   7.451 -1.1605  0.5907  2.3331
   16SAPS   H5Y 2088   5.462   1.736   7.353 -1.2821  0.3218  0.9568
   16SAPS   C36 2089   5.492   1.855   7.531  0.1983 -0.2305  0.7284
   16SAPS   H6X 2090   5.438   1.945   7.494 -1.2780 -1.3194  0.1141
   16SAPS   H6Y 2091   5.577   1.892   7.591  2.0414  1.2991 -2.5526
   16SAPS   C37 2092   5.407   1.777   7.629 -0.3975  0.3606  0.5229
   16SAPS   H7X 2093   5.459   1.682   7.651  2.0363  0.8540 -2.4740
   16SAPS   H7Y 2094   5.310   1.749   7.582 -0.3969  0.9664  0.1472
   16SAPS   C38 2095   5.364   1.868   7.746  0.4759  0.3108  0.2258
   16SAPS   H8X 2096   5.283   1.935   7.709 -1.5105 -0.2750  3.1548
   16SAPS   H8Y 2097   5.461   1.912   7.774  1.4697 -0.2662 -2.1025
   16SAPS   C39 2098   5.332   1.790   7.873 -0.2896  0.5236 -0.1425
   16SAPS   H9X 2099   5.236   1.736   7.861  0.0714 -0.5754  1.5794
   16SAPS   H9Y 2100   5.316   1.853   7.963 -0.2212 -1.6177  1.4511
   16SAPS  C310 2101   5.430   1.677   7.911 -0.6513  0.3435  0.4208
   16SAPS  H10X 2102   5.529   1.697   7.865 -1.5600  2.1416 -0.8947
   16SAPS  H10Y 2103   5.392   1.583   7.868 -0.9384  0.1136  1.1550
   16SAPS  C311 2104   5.435   1.658   8.067  0.5284  0.1063  0.0998
   16SAPS  H11X 2105   5.338   1.672   8.119  1.4344  2.2019  1.3693
   16SAPS  H11Y 2106   5.492   1.746   8.105  1.3884 -1.0971  1.7188
   16SAPS  C312 2107   5.501   1.532   8.099  0.4234  0.0413  0.3282
   16SAPS  H12X 2108   5.592   1.509   8.040 -0.5338 -0.3393 -1.0388
   16SAPS  H12Y 2109   5.431   1.449   8.074  1.1903 -0.6009  0.2719
   16SAPS  C313 2110   5.542   1.527   8.247  0.4870  0.5153 -0.6480
   16SAPS  H13X 2111   5.454   1.542   8.313  1.6623  2.2603  0.6109
   16SAPS  H13Y 2112   5.626   1.596   8.270  0.4494 -0.3060  2.4331
   16SAPS  C314 2113   5.583   1.378   8.285 -0.2445 -0.2528  0.6505
   16SAPS  H14X 2114   5.658   1.331   8.219 -1.6984 -0.0871 -1.1865
   16SAPS  H14Y 2115   5.490   1.317   8.273 -0.0537 -0.4024 -0.0934
   16SAPS  C315 2116   5.624   1.357   8.432 -0.0465 -0.1600 -0.8354
   16SAPS  H15X 2117   5.544   1.384   8.505  0.8765 -1.5171  0.7710
   16SAPS  H15Y 2118   5.715   1.415   8.456 -0.7202  0.2071  1.0087
   16SAPS  C316 2119   5.664   1.211   8.465 -0.4514  0.3388  0.2595
   16SAPS  H16X 2120   5.730   1.182   8.380 -0.4742  0.0213  0.3506
   16SAPS  H16Y 2121   5.581   1.137   8.466  0.2708 -0.5204 -1.0205
   16SAPS  C317 2122   5.747   1.201   8.593  0.3059  0.5725 -0.0164
   16SAPS  H17X 2123   5.687   1.239   8.679  0.3491 -1.0336  0.7649
   16SAPS  H17Y 2124   5.833   1.269   8.577 -0.7014  1.2517 -3.2559
   16SAPS  C318 2125   5.791   1.060   8.636 -0.5985 -0.5389  0.1101
   16SAPS  H18X 2126   5.861   1.049   8.722  0.0160 -1.2368 -0.4662
   16SAPS  H18Y 2127   5.850   1.013   8.554  1.1878  1.2837  0.2579
   16SAPS  H18Z 2128   5.706   0.994   8.661 -0.1535 -0.9600  0.5329
   17SAPC     N 2129   1.375   6.009  10.987 -0.3930 -0.2790 -0.1765
   17SAPC   C12 2130   1.276   6.100  10.902 -0.4910  0.5800 -0.1565
   17SAPC  H12A 2131   1.332   6.188  10.877 -1.6522  1.1958 -0.6526
   17SAPC  H12B 2132   1.197   6.126  10.972  0.1850 -0.8127  1.1871
   17SAPC   C13 2133   1.373   6.060  11.131  0.0780  0.2223 -0.1762
   17SAPC  H13A 2134   1.435   6.010  11.204  1.4572  0.3927 -1.2086
   17SAPC  H13B 2135   1.403   6.164  11.133  2.6979 -0.4486 -1.2329
   17SAPC  H13C 2136   1.269   6.058  11.162 -0.4957  1.6782 -1.8238
   17SAPC   C14 2137   1.328   5.867  10.993 -0.1517  0.6315 -0.1254
   17SAPC  H14A 2138   1.399   5.800  11.038 -0.0929  1.5381  1.1706
   17SAPC  H14B 2139   1.246   5.860  11.063  1.4402 -0.8032  1.6972
   17SAPC  H14C 2140   1.300   5.828  10.896  0.7610 -1.1007  0.2608
   17SAPC   C15 2141   1.515   6.011  10.928  0.3698 -0.1807  0.0715
   17SAPC  H15A 2142   1.545   6.113  10.944 -2.0958  0.2025  3.1616
   17SAPC  H15B 2143   1.589   5.955  10.983  0.4261  0.0973  0.2786
   17SAPC  H15C 2144   1.513   5.983  10.824 -0.4317 -1.7901  0.4960
   17SAPC   C11 2145   1.228   6.036  10.765 -0.0720  0.4650  0.3578
   17SAPC  H11A 2146   1.159   6.111  10.721 -0.7645 -0.0903  0.4725
   17SAPC  H11B 2147   1.159   5.949  10.777 -0.3468  1.0439  3.9400
   17SAPC     P 2148   1.420   6.144  10.608 -0.2571  0.1581 -0.0334
   17SAPC   O13 2149   1.458   6.243  10.708  0.1292  0.2393  0.1342
   17SAPC   O14 2150   1.522   6.076  10.522 -0.2490 -0.5498 -0.6715
   17SAPC   O12 2151   1.342   6.019  10.678 -0.2954  0.1324  0.6222
   17SAPC   O11 2152   1.307   6.202  10.514  0.2634  1.0306  0.0842
   17SAPC    C1 2153   1.273   6.137  10.390  0.3655  0.3592 -0.1530
   17SAPC    HA 2154   1.242   6.223  10.327 -1.0013 -0.4908 -0.6789
   17SAPC    HB 2155   1.360   6.084  10.346 -1.3453 -4.7321  1.8701
   17SAPC    C2 2156   1.151   6.042  10.403  0.1202  0.2136  0.4038
   17SAPC    HS 2157   1.166   5.984  10.497 -0.9166  2.0741  1.7989
   17SAPC   O21 2158   1.145   5.965  10.283  0.1158  0.1484 -0.4353
   17SAPC   C21 2159   1.074   5.854  10.305  0.1696 -0.4362 -0.6479
   17SAPC   O22 2160   1.000   5.827  10.395  0.3794  0.1657 -0.0282
   17SAPC   C22 2161   1.094   5.775  10.179  0.2916 -0.2791  0.0963
   17SAPC   H2R 2162   1.030   5.684  10.182  0.0079 -0.1225 -0.8762
   17SAPC   H2S 2163   1.058   5.841  10.096 -0.2734 -2.4891 -1.5156
   17SAPC    C3 2164   1.020   6.132  10.429 -0.3502 -0.8633  0.2462
   17SAPC    HX 2165   1.029   6.173  10.531  0.0492 -3.4665  1.3255
   17SAPC    HY 2166   0.933   6.064  10.444 -0.8485 -0.3922 -0.4061
   17SAPC   O31 2167   0.988   6.230  10.328 -0.1528 -0.8433  0.2621
   17SAPC   C31 2168   0.932   6.197  10.218  0.4636 -0.1222  0.3753
   17SAPC   O32 2169   0.891   6.086  10.180  0.1421  0.4114 -0.5600
   17SAPC   C32 2170   0.884   6.321  10.145 -0.1300  0.7492  0.0040
   17SAPC   H2X 2171   0.951   6.407  10.165  1.5752 -0.4415 -0.3292
   17SAPC   H2Y 2172   0.783   6.347  10.182 -0.2269 -1.4219  1.4610
   17SAPC   C23 2173   1.239   5.732  10.147 -0.0433  0.1698  0.0434
   17SAPC   H3R 2174   1.245   5.648  10.075  1.8090  0.9614 -0.7773
   17SAPC   H3S 2175   1.286   5.695  10.240 -0.5378 -0.6350 -0.0216
   17SAPC   C24 2176   1.331   5.845  10.096  0.2582  0.4548  0.3342
   17SAPC   H4R 2177   1.431   5.807  10.067  0.7368  1.4224  0.7035
   17SAPC   H4S 2178   1.347   5.922  10.174 -1.5202  1.8110 -0.5844
   17SAPC   C25 2179   1.275   5.922   9.976  0.5273 -0.3805 -0.2022
   17SAPC   H5R 2180   1.211   6.004  10.010  2.0826  0.9565 -0.3975
   17SAPC   C26 2181   1.317   5.903   9.847 -0.4297 -0.2156 -0.5427
   17SAPC   H6R 2182   1.272   5.965   9.768  1.2276 -0.5801 -1.8180
   17SAPC   C27 2183   1.421   5.802   9.806  0.4085 -0.0565  0.8076
   17SAPC   H7R 2184   1.435   5.726   9.886  0.5081  0.4179  1.2465
   17SAPC   H7S 2185   1.519   5.852   9.789  0.6594 -1.0925 -0.9759
   17SAPC   C28 2186   1.382   5.741   9.671  0.2972 -0.3020 -0.3561
   17SAPC   H8R 2187   1.318   5.797   9.601  3.1096 -1.2236 -3.9629
   17SAPC   C29 2188   1.437   5.620   9.631 -0.1043  0.0164  0.0404
   17SAPC   H9R 2189   1.400   5.576   9.537 -2.9679 -0.2479  1.2107
   17SAPC  C210 2190   1.524   5.527   9.712 -0.6125 -0.5410 -0.2185
   17SAPC  H10R 2191   1.547   5.557   9.817  1.3160 -1.7986 -0.2448
   17SAPC  H10S 2192   1.625   5.523   9.665  0.0644  0.0113  1.1416
   17SAPC  C211 2193   1.468   5.386   9.717  0.1381  0.2689  0.3659
   17SAPC  H11R 2194   1.371   5.364   9.670 -0.2630 -0.1901  1.3948
   17SAPC  C212 2195   1.514   5.287   9.792 -0.0178 -0.2551 -0.2741
   17SAPC  H12R 2196   1.471   5.191   9.760 -1.8509  0.2466  0.5394
   17SAPC  C213 2197   1.625   5.277   9.888  0.0099 -0.2307 -0.8382
   17SAPC  H13R 2198   1.578   5.257   9.987 -0.4506 -0.5495 -1.1173
   17SAPC  H13S 2199   1.665   5.380   9.904 -1.3538  0.1335  0.3928
   17SAPC  C214 2200   1.728   5.170   9.878  0.2243  0.2545 -0.4400
   17SAPC  H14R 2201   1.714   5.092   9.802  1.4632 -1.5542  1.1179
   17SAPC  C215 2202   1.839   5.148   9.956  0.2763  0.1302 -0.0652
   17SAPC  H15R 2203   1.898   5.057   9.935 -0.2193 -0.2162  0.0139
   17SAPC  C216 2204   1.882   5.227  10.075  0.8633 -0.1373  0.2806
   17SAPC  H16R 2205   1.902   5.334  10.050 -1.9583  0.0489 -1.6179
   17SAPC  H16S 2206   1.983   5.197  10.109  0.6429  1.2911  2.3869
   17SAPC  C217 2207   1.783   5.208  10.202 -0.6689 -0.0404 -0.4035
   17SAPC  H17R 2208   1.764   5.101  10.226 -2.0384  0.2138 -0.2562
   17SAPC  H17S 2209   1.683   5.245  10.171 -0.2797 -0.9114 -2.8695
   17SAPC  C218 2210   1.844   5.281  10.319  0.4100  0.1492  0.0402
   17SAPC  H18R 2211   1.824   5.390  10.316 -1.8343 -0.1185  2.0274
   17SAPC  H18S 2212   1.953   5.262  10.331  0.2043 -0.5140  1.0533
   17SAPC  C219 2213   1.790   5.235  10.459 -0.3838 -0.3791  0.1231
   17SAPC  H19R 2214   1.795   5.126  10.480 -0.6051 -0.3784  0.1825
   17SAPC  H19S 2215   1.682   5.257  10.446 -0.3066  0.1561  0.3475
   17SAPC  C220 2216   1.849   5.307  10.581  0.0208  0.0278  0.8510
   17SAPC  H20R 2217   1.953   5.275  10.602  0.1379 -0.0556  0.1487
   17SAPC  H20S 2218   1.800   5.287  10.679 -1.7952  0.7382  0.1353
   17SAPC  H20T 2219   1.853   5.417  10.567 -2.2100  0.2133  1.2671
   17SAPC   C33 2220   0.866   6.292   9.998 -0.2493  0.0170  0.8169
   17SAPC   H3X 2221   0.801   6.372   9.956 -0.7954 -0.9673 -0.2810
   17SAPC   H3Y 2222   0.809   6.201   9.968  1.6551 -0.4338 -1.7730
   17SAPC   C34 2223   0.996   6.268   9.923 -0.0231 -0.2461 -0.2772
   17SAPC   H4X 2224   1.030   6.164   9.942 -0.4399 -0.1683  1.0393
   17SAPC   H4Y 2225   1.076   6.331   9.967  0.6868 -0.9050 -0.6026
   17SAPC   C35 2226   0.985   6.299   9.775 -0.0451 -0.7628 -0.0432
   17SAPC   H5X 2227   0.929   6.394   9.767  0.5706 -0.4202 -0.3589
   17SAPC   H5Y 2228   0.929   6.220   9.722  0.7057 -0.0750 -1.9207
   17SAPC   C36 2229   1.131   6.306   9.722  0.3034 -0.0591 -0.1918
   17SAPC   H6X 2230   1.201   6.223   9.744 -1.4360 -1.9947 -1.6865
   17SAPC   H6Y 2231   1.173   6.401   9.763  1.2933 -1.2064  1.5406
   17SAPC   C37 2232   1.136   6.302   9.565 -0.9214 -0.3623  0.7106
   17SAPC   H7X 2233   1.094   6.204   9.533  1.0355 -1.2058  0.6238
   17SAPC   H7Y 2234   1.243   6.295   9.536 -0.7082  1.5657  0.9025
   17SAPC   C38 2235   1.061   6.414   9.493 -0.1975  0.0744  0.3566
   17SAPC   H8X 2236   1.135   6.497   9.485  0.6834 -0.6256  1.0091
   17SAPC   H8Y 2237   0.973   6.449   9.553  0.3978 -1.8066  2.4737
   17SAPC   C39 2238   1.008   6.368   9.355  0.0386 -0.2173 -0.5050
   17SAPC   H9X 2239   0.924   6.295   9.347 -2.6801  2.7848 -2.1008
   17SAPC   H9Y 2240   1.098   6.317   9.315  2.9991  1.5344  3.2622
   17SAPC  C310 2241   0.974   6.484   9.258 -0.1602 -0.2944  0.5784
   17SAPC  H10X 2242   1.056   6.560   9.258 -1.3380  1.0422 -0.8760
   17SAPC  H10Y 2243   0.884   6.543   9.285  0.6857  1.0309  0.6427
   17SAPC  C311 2244   0.962   6.439   9.110 -0.6071  0.3511  0.3775
   17SAPC  H11X 2245   0.865   6.385   9.111 -1.1211  1.1826 -1.0017
   17SAPC  H11Y 2246   1.043   6.368   9.081 -0.3989  1.2860 -1.4639
   17SAPC  C312 2247   0.979   6.554   9.002  0.2612  0.9563 -0.4573
   17SAPC  H12X 2248   1.086   6.583   8.999 -0.0637  2.2305 -4.0335
   17SAPC  H12Y 2249   0.915   6.635   9.044 -2.6657 -1.7226  0.6331
   17SAPC  C313 2250   0.935   6.507   8.862 -0.0247 -0.1720 -0.3028
   17SAPC  H13X 2251   0.829   6.475   8.865 -0.4936  1.3308  2.4202
   17SAPC  H13Y 2252   1.008   6.427   8.837 -0.1048 -0.1614 -0.5652
   17SAPC  C314 2253   0.955   6.623   8.757  0.0643 -0.1112  0.0447
   17SAPC  H14X 2254   1.063   6.626   8.731  0.0552  0.0031  0.0218
   17SAPC  H14Y 2255   0.919   6.720   8.796  0.1373  0.2945 -0.8803
   17SAPC  C315 2256   0.881   6.613   8.622  0.6725 -0.1514 -0.3298
   17SAPC  H15X 2257   0.787   6.556   8.635  0.9417 -0.1595  2.0966
   17SAPC  H15Y 2258   0.948   6.556   8.553  1.8083 -1.5576  1.7951
   17SAPC  C316 2259   0.869   6.750   8.550  0.3585  0.8478  0.1757
   17SAPC  H16X 2260   0.867   6.723   8.442  1.9832 -2.4712  0.8622
   17SAPC  H16Y 2261   0.959   6.811   8.574 -0.1092  1.2604  0.9351
   17SAPC  C317 2262   0.745   6.830   8.584 -0.2351  0.4265  0.0399
   17SAPC  H17X 2263   0.728   6.829   8.693 -1.5361  1.9258 -0.1267
   17SAPC  H17Y 2264   0.660   6.771   8.544 -0.7217  0.2036  1.3544
   17SAPC  C318 2265   0.741   6.977   8.533  0.1462  0.0184 -0.1912
   17SAPC  H18X 2266   0.816   7.033   8.592  1.2947 -0.1203 -1.4631
   17SAPC  H18Y 2267   0.790   6.980   8.433  3.4989 -0.3663  1.3176
   17SAPC  H18Z 2268   0.646   7.033   8.550  1.3873  1.1046  4.2213
   18SAPC     N 2269   2.379   5.769  10.901 -0.2977  0.2051 -0.0326
   18SAPC   C12 2270   2.439   5.912  10.907  0.4077 -0.1713 -0.4501
   18SAPC  H12A 2271   2.523   5.923  10.974 -1.1780 -0.5981  1.6952
   18SAPC  H12B 2272   2.357   5.979  10.929  0.9923  0.3690  0.1033
   18SAPC   C13 2273   2.336   5.741  11.037  0.1368  0.4610  0.4848
   18SAPC  H13A 2274   2.418   5.765  11.103 -0.5138 -0.9237  1.8327
   18SAPC  H13B 2275   2.255   5.809  11.061  0.5758  1.7393 -1.3854
   18SAPC  H13C 2276   2.313   5.636  11.045 -2.3291  0.9557  0.5264
   18SAPC   C14 2277   2.260   5.760  10.812  0.2517 -0.6885 -0.0917
   18SAPC  H14A 2278   2.237   5.657  10.789 -1.1199 -0.6413  0.8827
   18SAPC  H14B 2279   2.166   5.803  10.844  0.0821 -0.3412 -1.0238
   18SAPC  H14C 2280   2.291   5.792  10.714  1.2644  0.1131  0.4735
   18SAPC   C15 2281   2.474   5.665  10.853  0.3375  0.1983  0.0125
   18SAPC  H15A 2282   2.562   5.681  10.914  0.0195  3.0055 -0.1108
   18SAPC  H15B 2283   2.440   5.564  10.870  0.6974 -0.1243 -1.1144
   18SAPC  H15C 2284   2.500   5.685  10.751 -0.4766 -1.6114 -0.5864
   18SAPC   C11 2285   2.502   5.962  10.778  0.0892  0.3850 -0.0111
   18SAPC  H11A 2286   2.431   5.939  10.696  0.6214 -2.3161  0.1893
   18SAPC  H11B 2287   2.595   5.906  10.756 -0.8497 -1.3457  0.2309
   18SAPC     P 2288   2.628   6.175  10.864  0.0178 -0.0972 -0.2355
   18SAPC   O13 2289   2.564   6.301  10.903  0.1974 -0.1235  0.4523
   18SAPC   O14 2290   2.682   6.083  10.969  0.5158  0.1309  0.4584
   18SAPC   O12 2291   2.522   6.101  10.779  0.0743 -0.0197 -0.0420
   18SAPC   O11 2292   2.747   6.201  10.758  0.3152 -0.2254 -0.1785
   18SAPC    C1 2293   2.743   6.289  10.648 -0.0540 -0.9496 -0.0799
   18SAPC    HA 2294   2.695   6.382  10.684 -1.8024 -1.9095  0.1795
   18SAPC    HB 2295   2.850   6.308  10.625  0.5145 -0.8000  2.3568
   18SAPC    C2 2296   2.675   6.231  10.526  0.3796  0.0893  0.2498
   18SAPC    HS 2297   2.584   6.177  10.559 -0.1984  1.3617  0.7707
   18SAPC   O21 2298   2.764   6.149  10.450 -0.1598 -0.0762  0.7864
   18SAPC   C21 2299   2.710   6.056  10.369  0.1699  0.3907 -0.1456
   18SAPC   O22 2300   2.596   6.027  10.365  0.1710 -0.3635 -0.4737
   18SAPC   C22 2301   2.824   6.012  10.279  0.9100  0.5466  0.3104
   18SAPC   H2R 2302   2.890   6.101  10.267 -1.1943  2.1103 -0.2522
   18SAPC   H2S 2303   2.879   5.927  10.325 -0.3366 -0.5303 -0.1144
   18SAPC    C3 2304   2.626   6.349  10.436  0.6767  0.5679 -0.6575
   18SAPC    HX 2305   2.704   6.425  10.412  0.1888  0.7377 -1.7657
   18SAPC    HY 2306   2.556   6.413  10.493  0.2511  2.3475 -3.0410
   18SAPC   O31 2307   2.566   6.310  10.310  0.1774  0.1668  0.2496
   18SAPC   C31 2308   2.441   6.272  10.311  0.3198  0.0491  0.2266
   18SAPC   O32 2309   2.370   6.270  10.407 -0.3489 -0.0878 -0.5611
   18SAPC   C32 2310   2.403   6.237  10.166 -0.0546  0.4261 -0.0123
   18SAPC   H2X 2311   2.497   6.228  10.108  0.7505  2.0745  0.9666
   18SAPC   H2Y 2312   2.348   6.323  10.121 -2.0433 -0.3600  0.7785
   18SAPC   C23 2313   2.768   5.957  10.140  0.1775  0.1273 -0.3600
   18SAPC   H3R 2314   2.717   6.038  10.083 -2.5571 -0.9968  0.2916
   18SAPC   H3S 2315   2.684   5.884  10.151  1.0194 -0.6227  1.4126
   18SAPC   C24 2316   2.885   5.901  10.053  0.3773 -0.5313 -0.4519
   18SAPC   H4R 2317   2.928   5.821  10.117 -0.7182 -0.4863  0.3667
   18SAPC   H4S 2318   2.963   5.977  10.032  1.2435 -1.5357 -0.9895
   18SAPC   C25 2319   2.827   5.841   9.928 -0.4112  0.3747  0.1906
   18SAPC   H5R 2320   2.775   5.746   9.948 -0.3981  0.3737  0.2192
   18SAPC   C26 2321   2.824   5.888   9.800  0.3283  0.8062 -0.5248
   18SAPC   H6R 2322   2.765   5.832   9.727 -0.0493  0.2640  0.1818
   18SAPC   C27 2323   2.875   6.026   9.768  0.2142  0.4137  0.0062
   18SAPC   H7R 2324   2.917   6.086   9.851 -1.1440 -0.5404  1.4345
   18SAPC   H7S 2325   2.784   6.080   9.734  1.5574  1.2138 -2.6414
   18SAPC   C28 2326   2.988   6.019   9.671 -0.5474  0.0166  0.1171
   18SAPC   H8R 2327   3.080   5.990   9.724 -1.5604 -2.8188  0.4938
   18SAPC   C29 2328   2.983   6.024   9.536 -0.3074 -0.0558 -0.0190
   18SAPC   H9R 2329   3.076   6.001   9.481  0.7510  1.1048  1.2143
   18SAPC  C210 2330   2.857   6.039   9.450 -0.6740  0.4243  0.2250
   18SAPC  H10R 2331   2.872   6.127   9.385  3.0303 -0.0086  0.3084
   18SAPC  H10S 2332   2.769   6.051   9.517 -0.2893  0.1082  0.7884
   18SAPC  C211 2333   2.829   5.911   9.379  0.8778 -0.5464  1.0674
   18SAPC  H11R 2334   2.810   5.820   9.438 -0.8647 -1.1775 -0.3891
   18SAPC  C212 2335   2.826   5.892   9.241  0.8902 -0.2263 -0.3098
   18SAPC  H12R 2336   2.794   5.794   9.203  1.4809 -0.9219  0.9498
   18SAPC  C213 2337   2.856   5.991   9.131 -0.5128 -0.1905  0.2948
   18SAPC  H13R 2338   2.932   6.065   9.164  0.5171  0.0620 -2.3928
   18SAPC  H13S 2339   2.766   6.050   9.104 -1.8694 -1.8689  0.9437
   18SAPC  C214 2340   2.903   5.931   8.999  0.4723  0.2989  0.3716
   18SAPC  H14R 2341   2.882   5.823   8.993 -0.7690  0.4573  1.3684
   18SAPC  C215 2342   2.964   5.987   8.887  0.4415  0.0609 -0.2674
   18SAPC  H15R 2343   3.001   5.923   8.806 -0.0160 -2.1224  1.1644
   18SAPC  C216 2344   2.990   6.140   8.875 -0.4282 -1.5496  0.6986
   18SAPC  H16R 2345   2.993   6.195   8.972 -0.4533  1.6780 -1.0051
   18SAPC  H16S 2346   2.911   6.189   8.814  0.4162  0.0047  0.8021
   18SAPC  C217 2347   3.128   6.166   8.801 -0.0633 -0.0899 -0.4391
   18SAPC  H17R 2348   3.100   6.139   8.697 -1.4567  1.1659 -0.4139
   18SAPC  H17S 2349   3.199   6.093   8.846  1.1188  1.7716  0.8402
   18SAPC  C218 2350   3.182   6.309   8.807  0.1265  0.2423  0.5470
   18SAPC  H18R 2351   3.216   6.338   8.908  2.7207  2.6168 -0.8874
   18SAPC  H18S 2352   3.090   6.369   8.789 -1.2629 -1.9792 -0.3500
   18SAPC  C219 2353   3.291   6.352   8.704 -0.6819 -0.1873 -0.1111
   18SAPC  H19R 2354   3.385   6.300   8.729 -1.1253  0.2480  2.8004
   18SAPC  H19S 2355   3.298   6.463   8.713 -1.2788 -0.0670 -0.9587
   18SAPC  C220 2356   3.258   6.341   8.555  0.3877  0.1260  0.0847
   18SAPC  H20R 2357   3.237   6.232   8.545  1.3272 -0.2361  1.6509
   18SAPC  H20S 2358   3.342   6.372   8.490 -0.1922 -1.7573 -1.6701
   18SAPC  H20T 2359   3.161   6.390   8.535 -0.6247 -1.2266  1.4549
   18SAPC   C33 2360   2.315   6.106  10.159  0.0029 -0.4114 -0.0855
   18SAPC   H3X 2361   2.225   6.131  10.219  0.6150 -0.4159  0.8600
   18SAPC   H3Y 2362   2.364   6.021  10.209  1.8382  1.1783  0.9569
   18SAPC   C34 2363   2.274   6.077  10.015  0.0698  0.1298  0.5030
   18SAPC   H4X 2364   2.206   6.157   9.979 -0.5491 -0.7684 -0.4126
   18SAPC   H4Y 2365   2.217   5.981  10.018  0.1447  0.1159  1.8446
   18SAPC   C35 2366   2.384   6.049   9.917 -0.3852  0.5104  0.6130
   18SAPC   H5X 2367   2.463   5.988   9.967  0.3616  2.1124  1.4491
   18SAPC   H5Y 2368   2.439   6.142   9.893 -0.2796 -0.2419 -2.5259
   18SAPC   C36 2369   2.332   5.989   9.792  0.0621 -0.1753  0.2118
   18SAPC   H6X 2370   2.245   6.048   9.756  0.5340 -0.4464 -1.4337
   18SAPC   H6Y 2371   2.285   5.893   9.822 -2.2973  1.1873  1.1688
   18SAPC   C37 2372   2.440   5.973   9.683 -0.0735 -0.0259  0.6391
   18SAPC   H7X 2373   2.513   5.897   9.721  3.0376  1.4513 -1.8752
   18SAPC   H7Y 2374   2.496   6.069   9.681  0.5554 -0.3865  0.3560
   18SAPC   C38 2375   2.377   5.935   9.553  0.9059 -0.5513 -0.1546
   18SAPC   H8X 2376   2.330   6.028   9.513  2.8820  0.6158  0.1161
   18SAPC   H8Y 2377   2.306   5.851   9.570  0.9455 -0.4274  0.6905
   18SAPC   C39 2378   2.475   5.889   9.452 -0.3571  0.1010  0.2312
   18SAPC   H9X 2379   2.537   5.806   9.493  2.1334  1.3779 -0.7533
   18SAPC   H9Y 2380   2.543   5.972   9.424  0.7215 -0.1978  1.8696
   18SAPC  C310 2381   2.408   5.823   9.329 -0.0846 -0.2175 -0.3599
   18SAPC  H10X 2382   2.339   5.904   9.295 -3.7043 -2.4162  1.1418
   18SAPC  H10Y 2383   2.348   5.735   9.361 -0.8824  0.2499 -0.5569
   18SAPC  C311 2384   2.488   5.788   9.203  0.1061 -0.0046 -0.6847
   18SAPC  H11X 2385   2.562   5.705   9.211 -0.7897 -0.7826 -0.1793
   18SAPC  H11Y 2386   2.551   5.876   9.182 -1.1027  1.0063 -0.2233
   18SAPC  C312 2387   2.388   5.769   9.085  0.0480  0.1040 -0.3115
   18SAPC  H12X 2388   2.339   5.864   9.054  0.3793  0.5903  0.6280
   18SAPC  H12Y 2389   2.304   5.703   9.116 -1.4694  1.6944 -0.8878
   18SAPC  C313 2390   2.457   5.708   8.965  0.1128 -0.1888 -0.0606
   18SAPC  H13X 2391   2.508   5.615   8.999 -0.6372 -0.1320  1.3064
   18SAPC  H13Y 2392   2.525   5.783   8.919 -0.1541  0.3517  0.4222
   18SAPC  C314 2393   2.359   5.663   8.861  0.3270 -0.3394  0.4097
   18SAPC  H14X 2394   2.322   5.748   8.801 -0.5505 -1.8943 -1.3680
   18SAPC  H14Y 2395   2.267   5.625   8.910  0.4643 -0.5006  0.5447
   18SAPC  C315 2396   2.420   5.559   8.764  0.3376 -0.2895 -0.3277
   18SAPC  H15X 2397   2.453   5.473   8.827  0.1071 -0.8591 -0.9830
   18SAPC  H15Y 2398   2.504   5.616   8.720 -0.8172  2.6664  1.0373
   18SAPC  C316 2399   2.330   5.528   8.638 -0.0478  0.5552  0.6746
   18SAPC  H16X 2400   2.333   5.619   8.575  1.7654 -0.3193 -0.5893
   18SAPC  H16Y 2401   2.226   5.510   8.672 -0.1812  1.2681  0.6598
   18SAPC  C317 2402   2.391   5.398   8.569  0.2963 -0.0131  0.6833
   18SAPC  H17X 2403   2.501   5.412   8.565  0.5416 -1.9259 -1.8494
   18SAPC  H17Y 2404   2.355   5.391   8.464 -0.4252 -0.2226  0.9296
   18SAPC  C318 2405   2.360   5.275   8.650  0.1693 -0.1930 -0.2430
   18SAPC  H18X 2406   2.399   5.181   8.605  0.5286 -0.6158  0.9115
   18SAPC  H18Y 2407   2.249   5.266   8.652  0.0960  0.0783 -1.9087
   18SAPC  H18Z 2408   2.405   5.290   8.751  1.1946  1.0645 -0.8530
   19SAPC     N 2409   4.995   1.108  10.768  0.3853 -0.3650  0.8696
   19SAPC   C12 2410   4.856   1.127  10.822  0.0395 -0.1659  0.0264
   19SAPC  H12A 2411   4.856   1.093  10.925  1.0606 -0.5559 -0.0981
   19SAPC  H12B 2412   4.785   1.059  10.778  0.4502 -0.0952 -0.7549
   19SAPC   C13 2413   5.044   0.966  10.805  0.0531  0.3446 -0.1645
   19SAPC  H13A 2414   5.010   0.932  10.901  2.9271  0.6164  1.0338
   19SAPC  H13B 2415   5.014   0.898  10.727 -0.0587  1.8815 -1.5307
   19SAPC  H13C 2416   5.152   0.962  10.803  0.0071 -1.4660 -1.0062
   19SAPC   C14 2417   5.002   1.124  10.617 -0.8615 -0.1879 -0.4300
   19SAPC  H14A 2418   4.949   1.046  10.565  0.8545 -0.5086 -1.7624
   19SAPC  H14B 2419   4.950   1.218  10.605 -0.2467  0.8330  3.3202
   19SAPC  H14C 2420   5.103   1.125  10.579 -0.6147  1.4258  0.1756
   19SAPC   C15 2421   5.085   1.211  10.840 -0.0910  0.3986 -0.2901
   19SAPC  H15A 2422   5.065   1.316  10.825  2.2288  0.7092 -1.5700
   19SAPC  H15B 2423   5.065   1.196  10.945 -2.1007  2.3583 -0.3269
   19SAPC  H15C 2424   5.186   1.194  10.805 -0.1188 -1.1518  0.3147
   19SAPC   C11 2425   4.784   1.257  10.808  0.3424 -0.2363  0.8664
   19SAPC  H11A 2426   4.850   1.337  10.846 -1.3952  1.4252  0.5483
   19SAPC  H11B 2427   4.695   1.271  10.873  0.4522 -1.0942  1.2200
   19SAPC     P 2428   4.634   1.201  10.600  0.8287 -0.1344  0.0896
   19SAPC   O13 2429   4.642   1.056  10.643  0.0984 -0.0524 -0.0006
   19SAPC   O14 2430   4.505   1.269  10.624  0.2269 -0.0903 -0.3013
   19SAPC   O12 2431   4.751   1.278  10.672 -0.3876 -0.2161  0.1690
   19SAPC   O11 2432   4.671   1.208  10.447 -0.3286 -0.1468 -0.2777
   19SAPC    C1 2433   4.727   1.329  10.394 -0.0623 -0.7824  0.2653
   19SAPC    HA 2434   4.773   1.389  10.475  0.3439 -0.1652 -0.4112
   19SAPC    HB 2435   4.802   1.294  10.321 -0.1959  1.2053 -0.9043
   19SAPC    C2 2436   4.622   1.410  10.324  0.3126  0.4293 -0.5939
   19SAPC    HS 2437   4.550   1.440  10.403 -0.6756 -2.0725 -0.4519
   19SAPC   O21 2438   4.551   1.328  10.230 -0.4161 -0.3796 -0.3478
   19SAPC   C21 2439   4.428   1.350  10.208  0.2366  0.6198 -0.7201
   19SAPC   O22 2440   4.351   1.414  10.277 -0.3268 -0.7541 -0.0583
   19SAPC   C22 2441   4.382   1.283  10.075 -0.6780  0.3881 -0.2455
   19SAPC   H2R 2442   4.420   1.340   9.988 -0.0609 -0.8780 -0.8209
   19SAPC   H2S 2443   4.429   1.183  10.065 -1.3845  0.2626 -2.7583
   19SAPC    C3 2444   4.686   1.532  10.255 -0.1789  0.4857 -0.3086
   19SAPC    HX 2445   4.755   1.483  10.184 -1.1466  0.4361 -1.2358
   19SAPC    HY 2446   4.725   1.600  10.334 -1.8418  3.4473 -1.8784
   19SAPC   O31 2447   4.582   1.597  10.193  0.3346  0.5724  0.4527
   19SAPC   C31 2448   4.627   1.688  10.107  0.5786  0.1038  0.4745
   19SAPC   O32 2449   4.742   1.730  10.108 -0.2518  0.3732 -0.0864
   19SAPC   C32 2450   4.521   1.716  10.001  0.2514 -0.3578 -1.0010
   19SAPC   H2X 2451   4.516   1.827   9.991  3.3182 -0.2314 -2.1407
   19SAPC   H2Y 2452   4.425   1.681  10.045  0.0247  0.2251 -1.0174
   19SAPC   C23 2453   4.230   1.273  10.062  0.4921 -0.1939 -0.4786
   19SAPC   H3R 2454   4.187   1.373  10.085  1.4777  0.4925 -1.5136
   19SAPC   H3S 2455   4.187   1.197  10.132 -0.5120 -0.8863 -1.8013
   19SAPC   C24 2456   4.178   1.233   9.922  0.3768  0.6276 -0.0947
   19SAPC   H4R 2457   4.209   1.316   9.855 -0.8118  0.6670 -0.6275
   19SAPC   H4S 2458   4.067   1.240   9.926  0.3910  2.4684 -1.3287
   19SAPC   C25 2459   4.211   1.095   9.873 -0.5538  0.0565 -0.0451
   19SAPC   H5R 2460   4.308   1.051   9.901 -0.2652 -0.1164 -1.2362
   19SAPC   C26 2461   4.139   1.029   9.785  0.4282  0.8790 -0.0558
   19SAPC   H6R 2462   4.169   0.931   9.746 -0.3109  0.2286  0.9649
   19SAPC   C27 2463   4.023   1.089   9.717  0.7613 -0.7336  0.4027
   19SAPC   H7R 2464   4.037   1.193   9.683  0.6156  0.1316  2.7765
   19SAPC   H7S 2465   3.934   1.095   9.784  1.2595  1.6987  0.9271
   19SAPC   C28 2466   3.975   1.017   9.591 -0.4449  0.1603 -0.4551
   19SAPC   H8R 2467   4.014   0.916   9.573  1.0832  0.4743  0.8989
   19SAPC   C29 2468   3.879   1.054   9.507  0.0778 -0.3422 -0.0927
   19SAPC   H9R 2469   3.863   0.985   9.423 -0.0485 -0.7478  0.2647
   19SAPC  C210 2470   3.795   1.180   9.515 -0.0824  0.2667 -0.2472
   19SAPC  H10R 2471   3.790   1.238   9.420 -1.2912  0.0184 -0.3568
   19SAPC  H10S 2472   3.852   1.249   9.581 -0.1202  1.7735 -1.7312
   19SAPC  C211 2473   3.658   1.140   9.566 -1.0065  0.1896  0.9352
   19SAPC  H11R 2474   3.660   1.061   9.642 -2.5933  0.5110  1.3516
   19SAPC  C212 2475   3.542   1.185   9.522 -0.5779 -0.2405 -0.2439
   19SAPC  H12R 2476   3.453   1.144   9.573  0.0595 -2.7118 -0.9728
   19SAPC  C213 2477   3.523   1.284   9.413 -0.2954 -0.0390  0.7344
   19SAPC  H13R 2478   3.618   1.328   9.374  0.1816 -0.7843  1.0277
   19SAPC  H13S 2479   3.458   1.368   9.445 -0.8080  0.1025 -0.6195
   19SAPC  C214 2480   3.456   1.214   9.296 -0.0753 -0.4150 -0.6870
   19SAPC  H14R 2481   3.348   1.196   9.300 -0.6316  2.4705 -0.8812
   19SAPC  C215 2482   3.515   1.176   9.181 -0.1124  1.0392  0.5467
   19SAPC  H15R 2483   3.443   1.134   9.108 -0.9022  1.9759  0.7642
   19SAPC  C216 2484   3.654   1.184   9.134 -0.5555 -0.2991 -0.1303
   19SAPC  H16R 2485   3.717   1.247   9.201 -1.9098  1.1498 -0.1498
   19SAPC  H16S 2486   3.664   1.234   9.035 -0.2986  1.4682  0.7511
   19SAPC  C217 2487   3.716   1.053   9.110 -0.5558  0.6559 -0.2021
   19SAPC  H17R 2488   3.668   0.968   9.057  1.1939 -1.2830  1.1336
   19SAPC  H17S 2489   3.732   1.013   9.213  1.1644 -0.8562 -0.9890
   19SAPC  C218 2490   3.856   1.068   9.050  0.6018 -0.0286 -0.0513
   19SAPC  H18R 2491   3.921   0.989   9.092  0.9485  0.8022  1.0160
   19SAPC  H18S 2492   3.891   1.170   9.076  0.9509 -0.1516 -0.0334
   19SAPC  C219 2493   3.857   1.041   8.902 -0.4116  0.1226  0.2500
   19SAPC  H19R 2494   3.945   1.088   8.854 -0.6825  2.6733  2.0824
   19SAPC  H19S 2495   3.763   1.086   8.862  0.1386  0.6664 -0.4514
   19SAPC  C220 2496   3.851   0.900   8.850  0.2550  0.9011  0.0130
   19SAPC  H20R 2497   3.943   0.848   8.884 -1.4881 -2.1834  0.3349
   19SAPC  H20S 2498   3.855   0.897   8.739  2.0083  2.1330 -0.0047
   19SAPC  H20T 2499   3.770   0.842   8.898 -0.1196  2.4682  1.3642
   19SAPC   C33 2500   4.550   1.644   9.869  0.1218 -0.3720 -0.1209
   19SAPC   H3X 2501   4.523   1.536   9.871  0.0489 -0.3550  2.4303
   19SAPC   H3Y 2502   4.655   1.652   9.835 -0.3386 -0.2373 -1.5807
   19SAPC   C34 2503   4.460   1.706   9.766  0.0240 -1.2404 -0.7088
   19SAPC   H4X 2504   4.488   1.811   9.742  0.9812 -0.5958  2.6405
   19SAPC   H4Y 2505   4.355   1.715   9.802 -0.4051  1.7656 -2.3749
   19SAPC   C35 2506   4.462   1.622   9.645  0.0944  0.0214 -0.5621
   19SAPC   H5X 2507   4.431   1.519   9.671 -3.0674  0.3877 -2.3722
   19SAPC   H5Y 2508   4.561   1.600   9.599  0.0643 -0.4432 -0.4086
   19SAPC   C36 2509   4.371   1.684   9.534  0.2027 -0.3005  0.0202
   19SAPC   H6X 2510   4.431   1.770   9.497 -0.1080 -0.0421  0.1136
   19SAPC   H6Y 2511   4.276   1.722   9.577  1.1900 -0.4445  2.5227
   19SAPC   C37 2512   4.345   1.583   9.429  0.4893  0.7155  0.0219
   19SAPC   H7X 2513   4.263   1.518   9.467  1.2303 -0.4857 -0.3769
   19SAPC   H7Y 2514   4.431   1.517   9.405 -0.1452 -0.3564  0.6172
   19SAPC   C38 2515   4.308   1.660   9.302  0.1169 -0.0017 -0.0510
   19SAPC   H8X 2516   4.383   1.735   9.270 -1.8065  2.0596 -0.0002
   19SAPC   H8Y 2517   4.215   1.716   9.325 -1.3786 -1.9974 -0.9415
   19SAPC   C39 2518   4.259   1.584   9.170  0.1870  0.2013  0.2040
   19SAPC   H9X 2519   4.160   1.544   9.202 -0.4215  2.6064  1.5612
   19SAPC   H9Y 2520   4.333   1.505   9.146  0.6822  0.5578  0.5442
   19SAPC  C310 2521   4.253   1.672   9.043  0.1905  0.0197  0.3992
   19SAPC  H10X 2522   4.350   1.725   9.032  1.5373 -2.2472  0.7855
   19SAPC  H10Y 2523   4.170   1.746   9.054 -0.0590 -0.2064  0.0730
   19SAPC  C311 2524   4.246   1.583   8.912  0.6034  0.0604 -0.1444
   19SAPC  H11X 2525   4.177   1.502   8.941  3.6866 -2.6499  0.1663
   19SAPC  H11Y 2526   4.339   1.525   8.894  0.1222 -0.5173 -0.8230
   19SAPC  C312 2527   4.221   1.670   8.786  0.0593 -0.3218 -0.0275
   19SAPC  H12X 2528   4.321   1.692   8.744  0.1590 -1.0129 -0.1662
   19SAPC  H12Y 2529   4.176   1.768   8.814  0.0379 -0.4395  0.3428
   19SAPC  C313 2530   4.143   1.587   8.688 -0.0113 -0.9122  0.1780
   19SAPC  H13X 2531   4.198   1.490   8.680  0.4916 -0.7217  1.2367
   19SAPC  H13Y 2532   4.146   1.635   8.588 -0.0659  2.0875  1.5187
   19SAPC  C314 2533   3.999   1.578   8.731 -0.3417  0.5521 -0.1332
   19SAPC  H14X 2534   3.962   1.674   8.771 -0.4112  0.4481  0.0518
   19SAPC  H14Y 2535   3.990   1.503   8.813 -1.3003 -0.0904 -0.8087
   19SAPC  C315 2536   3.901   1.526   8.622  0.4054 -0.8424 -0.8808
   19SAPC  H15X 2537   3.917   1.582   8.527  1.9545 -0.5240 -0.4426
   19SAPC  H15Y 2538   3.795   1.540   8.654  1.2033  0.2392  1.4612
   19SAPC  C316 2539   3.926   1.375   8.581 -0.8370 -0.7316 -0.3508
   19SAPC  H16X 2540   3.950   1.320   8.675 -1.0536 -1.2725 -0.6072
   19SAPC  H16Y 2541   4.017   1.357   8.520  1.0407 -1.4782  2.4326
   19SAPC  C317 2542   3.800   1.314   8.523 -0.3865 -0.7873 -0.2345
   19SAPC  H17X 2543   3.762   1.365   8.432 -0.8628  0.4918  0.6399
   19SAPC  H17Y 2544   3.720   1.341   8.596  1.0873  1.0321  0.8119
   19SAPC  C318 2545   3.816   1.161   8.518  0.4666 -0.5268  0.2621
   19SAPC  H18X 2546   3.903   1.137   8.454  0.6909  1.6617 -0.3574
   19SAPC  H18Y 2547   3.717   1.121   8.487  0.5578  1.4264 -3.1008
   19SAPC  H18Z 2548   3.840   1.135   8.623 -0.6086 -3.1179 -0.0668
   20SAPC     N 2549   3.349   6.102  11.254 -0.1210  0.0299  0.2643
   20SAPC   C12 2550   3.294   6.183  11.138 -0.4991 -0.1449  0.3014
   20SAPC  H12A 2551   3.323   6.287  11.144  1.9644 -0.6176 -1.6489
   20SAPC  H12B 2552   3.188   6.185  11.154 -1.0307 -2.2374 -2.3906
   20SAPC   C13 2553   3.371   6.179  11.376 -0.0998 -0.3397  0.1289
   20SAPC  H13A 2554   3.418   6.111  11.446 -0.1181 -1.2205 -0.6812
   20SAPC  H13B 2555   3.432   6.265  11.353  1.2217 -0.2758  3.3604
   20SAPC  H13C 2556   3.278   6.211  11.422  1.9306  2.7467  2.4216
   20SAPC   C14 2557   3.261   5.980  11.280  0.2650  0.9148  0.3276
   20SAPC  H14A 2558   3.263   5.904  11.203  0.0551 -1.8789  2.8841
   20SAPC  H14B 2559   3.291   5.933  11.372 -2.8128 -0.1085  0.9252
   20SAPC  H14C 2560   3.158   6.010  11.293 -0.0844  1.7710 -3.3361
   20SAPC   C15 2561   3.487   6.056  11.212  0.1614 -0.1972  0.5271
   20SAPC  H15A 2562   3.487   5.983  11.132  0.6148  3.4379 -3.0922
   20SAPC  H15B 2563   3.546   6.131  11.162  0.8876 -1.7648 -1.0856
   20SAPC  H15C 2564   3.539   6.022  11.301  0.8527 -0.0081  0.2043
   20SAPC   C11 2565   3.320   6.135  10.996 -0.5729  0.2471 -0.3729
   20SAPC  H11A 2566   3.429   6.139  10.975 -0.1455 -1.9726  1.1493
   20SAPC  H11B 2567   3.264   6.200  10.925 -0.1206  0.6975 -0.3250
   20SAPC     P 2568   3.354   5.896  10.879  0.3719 -0.1667  0.4433
   20SAPC   O13 2569   3.496   5.884  10.918 -0.0182  0.8767  0.5952
   20SAPC   O14 2570   3.277   5.769  10.871 -0.1961  0.2023 -0.4599
   20SAPC   O12 2571   3.279   5.994  10.979 -0.6888 -0.7214 -0.6166
   20SAPC   O11 2572   3.344   5.971  10.735 -0.2500 -0.5143  0.4045
   20SAPC    C1 2573   3.223   6.023  10.689  0.1600 -0.3546  0.0952
   20SAPC    HA 2574   3.166   6.090  10.758 -1.8713  1.2550 -2.9215
   20SAPC    HB 2575   3.248   6.092  10.606 -0.7045  0.5045  0.5327
   20SAPC    C2 2576   3.129   5.923  10.626 -0.2931 -0.0075 -0.3034
   20SAPC    HS 2577   3.145   5.827  10.681 -0.5143 -0.9688 -1.8599
   20SAPC   O21 2578   3.173   5.920  10.485 -0.6059  0.3743  0.0134
   20SAPC   C21 2579   3.206   5.794  10.443  1.0587 -0.1172 -0.7652
   20SAPC   O22 2580   3.227   5.701  10.519  0.7265 -0.2672 -0.6752
   20SAPC   C22 2581   3.255   5.806  10.298 -0.9380 -0.8002 -0.1726
   20SAPC   H2R 2582   3.206   5.893  10.249 -0.6354 -0.5987 -0.1236
   20SAPC   H2S 2583   3.363   5.831  10.289 -0.3837 -2.9270  0.1451
   20SAPC    C3 2584   2.985   5.975  10.627 -0.0238 -0.0485  0.1024
   20SAPC    HX 2585   2.981   6.071  10.572  2.0530 -0.2549 -0.5262
   20SAPC    HY 2586   2.947   5.992  10.730  0.8840 -2.2233  0.8778
   20SAPC   O31 2587   2.891   5.880  10.558 -0.6495 -0.0473  0.4780
   20SAPC   C31 2588   2.840   5.785  10.631  0.4162  0.3935 -0.1233
   20SAPC   O32 2589   2.856   5.770  10.751  0.4910 -0.3004 -0.3619
   20SAPC   C32 2590   2.766   5.677  10.550  0.0685 -0.3848  0.3563
   20SAPC   H2X 2591   2.715   5.733  10.469  1.2741  0.0796 -0.1097
   20SAPC   H2Y 2592   2.695   5.632  10.623 -1.1670  2.0290  0.7264
   20SAPC   C23 2593   3.237   5.679  10.219 -0.1288 -0.1428  0.4821
   20SAPC   H3R 2594   3.127   5.680  10.202 -0.6248 -1.4747  3.0455
   20SAPC   H3S 2595   3.269   5.589  10.275 -0.4863 -1.2765 -1.0590
   20SAPC   C24 2596   3.305   5.682  10.082 -0.3292  0.2437 -0.5101
   20SAPC   H4R 2597   3.288   5.584  10.031 -1.5030  0.6763 -0.9902
   20SAPC   H4S 2598   3.415   5.684  10.097 -0.3829  0.7871 -0.1511
   20SAPC   C25 2599   3.251   5.786   9.984  0.7337 -0.1310 -0.4649
   20SAPC   H5R 2600   3.175   5.858  10.017 -0.0273 -0.4617 -1.4542
   20SAPC   C26 2601   3.293   5.791   9.852  0.0449 -0.0164 -0.3875
   20SAPC   H6R 2602   3.241   5.863   9.786 -0.8772 -0.5239 -0.2354
   20SAPC   C27 2603   3.398   5.701   9.783  0.7279 -0.0798 -0.4923
   20SAPC   H7R 2604   3.357   5.605   9.745  2.5836  0.2872 -3.7689
   20SAPC   H7S 2605   3.480   5.665   9.849 -0.2992 -0.2287  0.7445
   20SAPC   C28 2606   3.459   5.776   9.666  0.6614  0.2038  0.2131
   20SAPC   H8R 2607   3.545   5.840   9.688  0.3137  0.6908  0.1659
   20SAPC   C29 2608   3.414   5.781   9.538  0.6466  0.4842  0.9576
   20SAPC   H9R 2609   3.480   5.836   9.470  0.0374  0.9064  0.6967
   20SAPC  C210 2610   3.294   5.705   9.486 -0.6753  0.0508  0.6034
   20SAPC  H10R 2611   3.234   5.654   9.564 -1.6121 -1.0996 -0.8247
   20SAPC  H10S 2612   3.338   5.624   9.425  0.3529  0.5878  0.5997
   20SAPC  C211 2613   3.189   5.777   9.402  0.0408  0.1014  0.4053
   20SAPC  H11R 2614   3.091   5.781   9.452  0.6084 -0.3702  1.6031
   20SAPC  C212 2615   3.208   5.824   9.275  0.5948  0.0730 -0.1599
   20SAPC  H12R 2616   3.121   5.861   9.219 -0.5873  0.2706  1.6979
   20SAPC  C213 2617   3.331   5.818   9.188 -0.8002 -0.2039 -0.1446
   20SAPC  H13R 2618   3.378   5.719   9.209 -0.0837  0.2827  0.5653
   20SAPC  H13S 2619   3.402   5.894   9.227 -0.4946 -0.3861 -0.3361
   20SAPC  C214 2620   3.317   5.853   9.046 -0.1051  0.5710 -0.2027
   20SAPC  H14R 2621   3.264   5.947   9.025 -1.1650 -0.2155 -1.1827
   20SAPC  C215 2622   3.363   5.781   8.942 -0.6313  0.3317 -0.7558
   20SAPC  H15R 2623   3.327   5.819   8.845 -1.9114  0.7220 -0.1448
   20SAPC  C216 2624   3.454   5.655   8.941  0.3305  0.3152  0.1284
   20SAPC  H16R 2625   3.373   5.579   8.941 -1.2479  1.8443 -2.2727
   20SAPC  H16S 2626   3.515   5.638   9.033  0.9496 -3.3074 -0.8080
   20SAPC  C217 2627   3.534   5.646   8.812 -0.2996 -0.5673 -0.1038
   20SAPC  H17R 2628   3.472   5.632   8.721 -0.0954  0.2734 -0.3844
   20SAPC  H17S 2629   3.592   5.552   8.827  1.1881  0.1841 -0.8985
   20SAPC  C218 2630   3.622   5.774   8.790  0.3374 -0.2945  0.9544
   20SAPC  H18R 2631   3.663   5.821   8.883 -3.0643 -1.8889  3.4893
   20SAPC  H18S 2632   3.554   5.843   8.737 -0.7578  0.4377  3.1741
   20SAPC  C219 2633   3.748   5.736   8.705  0.5378  0.3778 -0.2895
   20SAPC  H19R 2634   3.724   5.682   8.610  0.2186 -0.9386  0.5089
   20SAPC  H19S 2635   3.794   5.651   8.761 -3.4782 -1.8844 -0.0181
   20SAPC  C220 2636   3.847   5.847   8.681  0.3875  0.0069  0.4999
   20SAPC  H20R 2637   3.875   5.899   8.775  0.8255  0.3921  0.1630
   20SAPC  H20S 2638   3.797   5.922   8.616  0.6968  0.0393  0.2982
   20SAPC  H20T 2639   3.939   5.809   8.630 -1.2835 -1.2465 -1.7675
   20SAPC   C33 2640   2.858   5.560  10.524  0.0068 -0.3388  0.3754
   20SAPC   H3X 2641   2.792   5.470  10.518  0.8546 -1.1735  2.4104
   20SAPC   H3Y 2642   2.929   5.545  10.608  0.3881 -2.3361 -0.2481
   20SAPC   C34 2643   2.922   5.567  10.382 -0.3746  0.4219  0.8635
   20SAPC   H4X 2644   2.990   5.480  10.375  0.3200  0.8452  2.0441
   20SAPC   H4Y 2645   2.991   5.655  10.383  1.9296 -1.2894  1.6292
   20SAPC   C35 2646   2.839   5.545  10.254 -0.4858  0.8434  0.4126
   20SAPC   H5X 2647   2.787   5.641  10.234 -0.8459  0.4516 -0.6213
   20SAPC   H5Y 2648   2.762   5.466  10.268  0.7235 -1.0781 -2.6248
   20SAPC   C36 2649   2.931   5.499  10.134  0.5052  0.3152 -1.0350
   20SAPC   H6X 2650   2.984   5.403  10.152 -0.5096 -0.1815 -0.6870
   20SAPC   H6Y 2651   3.000   5.586  10.124  0.8126  0.5804  2.2512
   20SAPC   C37 2652   2.857   5.484  10.004  0.4772 -0.0416  0.2023
   20SAPC   H7X 2653   2.781   5.564   9.995 -0.3321 -0.8053  0.0783
   20SAPC   H7Y 2654   2.804   5.387   9.992  1.1046 -0.4274  0.4601
   20SAPC   C38 2655   2.947   5.488   9.878 -0.5191  0.3776  0.0648
   20SAPC   H8X 2656   3.016   5.400   9.879 -0.9351  0.0551  0.6636
   20SAPC   H8Y 2657   3.014   5.576   9.882  0.3282 -0.3035  2.7564
   20SAPC   C39 2658   2.868   5.487   9.749  0.6660 -0.1854  0.1536
   20SAPC   H9X 2659   2.789   5.565   9.751 -0.5250 -1.2366 -2.0234
   20SAPC   H9Y 2660   2.809   5.392   9.751 -0.1974  0.3209  2.8824
   20SAPC  C310 2661   2.952   5.497   9.620 -0.2742 -0.2190  0.3455
   20SAPC  H10X 2662   3.017   5.407   9.632 -0.9686 -0.8505 -0.5515
   20SAPC  H10Y 2663   3.008   5.593   9.623  1.1098 -0.9698 -0.3989
   20SAPC  C311 2664   2.873   5.478   9.492 -0.2184  0.1668  0.2192
   20SAPC  H11X 2665   2.806   5.558   9.454  0.6043 -0.5728 -3.1394
   20SAPC  H11Y 2666   2.807   5.392   9.513  0.0473 -0.0806  0.0580
   20SAPC  C312 2667   2.963   5.443   9.375  0.3187 -0.3531  1.4267
   20SAPC  H12X 2668   3.041   5.366   9.397  1.6826  1.0148  1.5750
   20SAPC  H12Y 2669   3.024   5.531   9.345 -0.9294 -0.8107 -3.1775
   20SAPC  C313 2670   2.882   5.385   9.255 -0.1533  0.2062 -0.1357
   20SAPC  H13X 2671   2.788   5.335   9.287 -0.2066  0.4359  0.0666
   20SAPC  H13Y 2672   2.934   5.298   9.209 -2.8283 -0.4061 -2.3174
   20SAPC  C314 2673   2.841   5.494   9.153 -0.1688  0.2426 -0.1827
   20SAPC  H14X 2674   2.934   5.555   9.146  0.4155 -0.1627  2.7430
   20SAPC  H14Y 2675   2.771   5.560   9.208 -0.3703 -1.9202  2.3756
   20SAPC  C315 2676   2.788   5.443   9.021 -0.2295  0.1887 -0.0141
   20SAPC  H15X 2677   2.766   5.522   8.947  0.9165  1.7518  1.2426
   20SAPC  H15Y 2678   2.702   5.377   9.045  0.5919 -0.5566  0.9929
   20SAPC  C316 2679   2.889   5.350   8.949  0.7338  0.1632  0.2042
   20SAPC  H16X 2680   2.844   5.321   8.852 -1.8853  3.0246  0.4051
   20SAPC  H16Y 2681   2.895   5.253   9.003  0.8141 -0.3421 -0.6912
   20SAPC  C317 2682   3.026   5.411   8.934 -0.3824  0.2023  0.6124
   20SAPC  H17X 2683   3.089   5.350   8.865 -1.2718  0.6849 -0.6681
   20SAPC  H17Y 2684   3.077   5.412   9.033 -1.6730  0.4795  1.2905
   20SAPC  C318 2685   3.027   5.547   8.868  0.5470  0.6902  0.0420
   20SAPC  H18X 2686   2.961   5.559   8.779 -0.3048  1.3573  0.7371
   20SAPC  H18Y 2687   3.128   5.582   8.840  0.4353  1.2963  0.3622
   20SAPC  H18Z 2688   2.990   5.623   8.940  2.2207  0.8879  0.7288
   21SAPC     N 2689   3.070   3.338  10.838  0.4145  0.4245  0.7921
   21SAPC   C12 2690   3.193   3.285  10.767 -0.2432  0.0715  0.3665
   21SAPC  H12A 2691   3.181   3.188  10.720 -0.4628 -0.9470  2.3918
   21SAPC  H12B 2692   3.269   3.278  10.843 -0.7819  0.6318  0.9667
   21SAPC   C13 2693   2.999   3.234  10.924 -0.7571 -0.4937  0.5643
   21SAPC  H13A 2694   3.055   3.202  11.011  0.6999 -2.4837 -0.9897
   21SAPC  H13B 2695   2.913   3.285  10.962  0.4037  1.6621  0.4429
   21SAPC  H13C 2696   2.966   3.155  10.857 -1.7495 -0.3892  0.9232
   21SAPC   C14 2697   3.109   3.452  10.922 -0.1889 -0.5492 -0.2848
   21SAPC  H14A 2698   3.180   3.423  10.998 -1.3855 -0.6504  0.8068
   21SAPC  H14B 2699   3.174   3.517  10.864 -0.1103  0.9503  1.4118
   21SAPC  H14C 2700   3.034   3.520  10.959  3.1387  3.1767  0.3236
   21SAPC   C15 2701   2.967   3.383  10.730  0.3387 -0.0025  0.2860
   21SAPC  H15A 2702   2.873   3.397  10.781 -0.1710  1.1460 -0.9257
   21SAPC  H15B 2703   2.991   3.476  10.682 -0.7094 -0.5607 -1.4445
   21SAPC  H15C 2704   2.960   3.307  10.653  1.2072  0.2908 -0.0924
   21SAPC   C11 2705   3.274   3.365  10.662 -0.1737  0.4000  0.2069
   21SAPC  H11A 2706   3.215   3.422  10.587  0.6414  0.3370 -0.4910
   21SAPC  H11B 2707   3.338   3.291  10.608 -2.7925 -0.7650 -1.5373
   21SAPC     P 2708   3.485   3.455  10.778  0.5585 -0.1806  0.1241
   21SAPC   O13 2709   3.522   3.587  10.829 -0.2337  0.5249 -0.1479
   21SAPC   O14 2710   3.510   3.339  10.862 -0.6521 -0.0026  0.0409
   21SAPC   O12 2711   3.337   3.469  10.739  0.0905 -0.2464  0.5404
   21SAPC   O11 2712   3.563   3.426  10.644  0.2757 -0.5056 -0.1428
   21SAPC    C1 2713   3.578   3.546  10.560 -0.9700 -0.1875 -0.8423
   21SAPC    HA 2714   3.490   3.614  10.558 -2.1584 -1.6760 -1.1097
   21SAPC    HB 2715   3.671   3.599  10.588 -0.3493 -1.2754 -0.7791
   21SAPC    C2 2716   3.597   3.515  10.410 -0.3457 -0.1606 -0.2254
   21SAPC    HS 2717   3.699   3.478  10.389 -0.2705  0.2321 -0.5640
   21SAPC   O21 2718   3.560   3.631  10.337  0.4689  0.1025  0.3977
   21SAPC   C21 2719   3.648   3.697  10.281 -1.0048  0.1307  0.3280
   21SAPC   O22 2720   3.766   3.668  10.260 -0.8250 -0.1155 -0.3756
   21SAPC   C22 2721   3.572   3.821  10.231  0.0227 -0.0243 -0.3173
   21SAPC   H2R 2722   3.466   3.795  10.213  0.7730 -2.1479 -2.1420
   21SAPC   H2S 2723   3.585   3.900  10.307 -0.4551  0.2447 -0.5153
   21SAPC    C3 2724   3.504   3.392  10.371 -0.0226  0.0501 -0.2651
   21SAPC    HX 2725   3.399   3.408  10.403 -0.5455  2.9816 -2.9266
   21SAPC    HY 2726   3.543   3.305  10.427 -1.2612 -0.0862  0.4178
   21SAPC   O31 2727   3.505   3.380  10.224 -0.0764 -0.3774  0.0347
   21SAPC   C31 2728   3.601   3.300  10.179  0.5359 -0.0357  0.0170
   21SAPC   O32 2729   3.674   3.230  10.251  0.1076 -0.3038 -0.1201
   21SAPC   C32 2730   3.611   3.301  10.025 -0.1827 -0.6604 -0.3036
   21SAPC   H2X 2731   3.605   3.407   9.992  1.8226 -0.1869  0.6960
   21SAPC   H2Y 2732   3.515   3.260   9.988  0.5001 -3.7521  1.0913
   21SAPC   C23 2733   3.634   3.868  10.098  0.3583  0.0044 -0.2030
   21SAPC   H3R 2734   3.742   3.890  10.109  0.1611  0.7271  0.4095
   21SAPC   H3S 2735   3.598   3.972  10.081 -1.1512 -0.2241  1.2358
   21SAPC   C24 2736   3.615   3.769   9.978  1.2032 -0.0850  0.2981
   21SAPC   H4R 2737   3.618   3.668  10.024 -0.5933 -0.0864  0.4714
   21SAPC   H4S 2738   3.700   3.777   9.907 -1.1821 -1.0690 -2.9141
   21SAPC   C25 2739   3.485   3.793   9.907  0.7015  0.1173  0.3148
   21SAPC   H5R 2740   3.392   3.770   9.962  0.9021  2.3223  1.6941
   21SAPC   C26 2741   3.470   3.851   9.789  0.1176  0.6886 -0.7432
   21SAPC   H6R 2742   3.370   3.865   9.746 -0.7600 -2.5989 -0.0348
   21SAPC   C27 2743   3.584   3.901   9.703  0.1981 -0.0838 -1.0773
   21SAPC   H7R 2744   3.674   3.929   9.762 -1.3770  2.7588  0.1623
   21SAPC   H7S 2745   3.552   4.001   9.668  1.2559  0.2319 -1.1818
   21SAPC   C28 2746   3.621   3.796   9.596  0.2735 -0.3204 -1.2395
   21SAPC   H8R 2747   3.690   3.719   9.634  1.3690  0.8307 -0.8192
   21SAPC   C29 2748   3.594   3.803   9.467  0.2664 -0.5291  0.5616
   21SAPC   H9R 2749   3.638   3.741   9.387  2.0051  2.1279 -0.6814
   21SAPC  C210 2750   3.518   3.915   9.399  0.4747 -0.0486 -0.8624
   21SAPC  H10R 2751   3.557   3.945   9.299 -0.0625  2.2524 -0.4327
   21SAPC  H10S 2752   3.508   4.005   9.463  0.0519 -1.1360  0.6535
   21SAPC  C211 2753   3.373   3.885   9.400 -0.1772  0.2848 -0.8071
   21SAPC  H11R 2754   3.331   3.865   9.500 -3.1308  1.5054 -1.6728
   21SAPC  C212 2755   3.280   3.874   9.306 -0.2296 -0.5568  0.3255
   21SAPC  H12R 2756   3.177   3.855   9.338  0.1135  0.3912  2.0930
   21SAPC  C213 2757   3.299   3.892   9.159 -0.0958 -0.0483  0.2944
   21SAPC  H13R 2758   3.396   3.851   9.124 -0.2361  1.1618 -1.6576
   21SAPC  H13S 2759   3.329   3.993   9.123  3.1941 -1.5253 -1.5321
   21SAPC  C214 2760   3.194   3.823   9.078  0.4194  0.9809  0.2594
   21SAPC  H14R 2761   3.159   3.728   9.121 -0.6422  1.1200 -0.2810
   21SAPC  C215 2762   3.133   3.864   8.970 -0.0472  0.4184 -0.1414
   21SAPC  H15R 2763   3.085   3.781   8.916 -3.4420  1.2694  1.3014
   21SAPC  C216 2764   3.142   3.993   8.899  0.2510 -1.2102 -0.5376
   21SAPC  H16R 2765   3.200   4.072   8.951 -0.1874  0.2360 -2.1241
   21SAPC  H16S 2766   3.039   4.034   8.889  0.6709 -0.5362 -2.8892
   21SAPC  C217 2767   3.213   3.970   8.760  0.0848  0.3658  0.2570
   21SAPC  H17R 2768   3.305   3.910   8.773  0.5984  1.3533  1.4670
   21SAPC  H17S 2769   3.240   4.076   8.740 -0.2644  0.4641  0.3010
   21SAPC  C218 2770   3.118   3.915   8.645 -0.1098 -0.2335  0.0973
   21SAPC  H18R 2771   3.125   3.806   8.628 -2.6951 -0.3881 -0.3776
   21SAPC  H18S 2772   3.160   3.949   8.548 -1.0088 -0.7075 -0.4635
   21SAPC  C219 2773   2.978   3.974   8.655 -0.7060  0.2556 -0.7103
   21SAPC  H19R 2774   2.983   4.085   8.666 -2.7677  0.1830  1.8483
   21SAPC  H19S 2775   2.933   3.917   8.739  0.7015  0.0105 -0.1085
   21SAPC  C220 2776   2.901   3.942   8.528 -0.6233 -0.4421  0.1792
   21SAPC  H20R 2777   2.799   3.985   8.535 -0.6519 -0.2743 -1.0364
   21SAPC  H20S 2778   2.897   3.831   8.524  1.1827 -0.6633  2.2464
   21SAPC  H20T 2779   2.956   3.984   8.441 -0.2947  1.7437  1.3947
   21SAPC   C33 2780   3.741   3.231   9.974  0.0984  0.3911  0.2177
   21SAPC   H3X 2781   3.738   3.121   9.991 -2.3169  0.0896 -1.7000
   21SAPC   H3Y 2782   3.833   3.269  10.024  1.3782 -2.9023  0.6419
   21SAPC   C34 2783   3.763   3.242   9.818 -0.8881 -0.9113  0.2221
   21SAPC   H4X 2784   3.697   3.168   9.768 -0.7741 -0.3792 -0.7354
   21SAPC   H4Y 2785   3.869   3.212   9.807 -1.0728 -0.9982 -1.5528
   21SAPC   C35 2786   3.753   3.389   9.767 -0.3158  0.6795  0.2484
   21SAPC   H5X 2787   3.823   3.452   9.827  0.6844  0.3525 -0.5523
   21SAPC   H5Y 2788   3.651   3.428   9.782 -1.5290 -1.6622 -1.3164
   21SAPC   C36 2789   3.792   3.405   9.616  0.6429 -0.2449 -0.6931
   21SAPC   H6X 2790   3.895   3.369   9.596  0.5456 -0.5321 -0.6833
   21SAPC   H6Y 2791   3.792   3.512   9.587 -2.2146 -0.2428 -1.0215
   21SAPC   C37 2792   3.688   3.337   9.518 -0.2594  0.1871  0.1296
   21SAPC   H7X 2793   3.582   3.371   9.509  0.3129  1.7150 -1.3957
   21SAPC   H7Y 2794   3.693   3.235   9.560  1.5107 -0.2426 -1.0550
   21SAPC   C38 2795   3.749   3.338   9.373  0.1983  0.3346 -0.2369
   21SAPC   H8X 2796   3.700   3.257   9.315  2.3676 -2.1595  1.1906
   21SAPC   H8Y 2797   3.855   3.306   9.379  0.3239  0.9579  2.0634
   21SAPC   C39 2798   3.729   3.473   9.308  0.3499 -0.5224 -0.0636
   21SAPC   H9X 2799   3.762   3.544   9.388 -0.1410  0.0469 -0.3546
   21SAPC   H9Y 2800   3.621   3.496   9.294  0.3025  1.4230  2.6057
   21SAPC  C310 2801   3.804   3.481   9.181 -0.1851 -0.6222  1.1584
   21SAPC  H10X 2802   3.796   3.386   9.123  2.5745  0.8091 -1.9434
   21SAPC  H10Y 2803   3.914   3.488   9.197 -0.0476  1.5799 -0.3541
   21SAPC  C311 2804   3.773   3.602   9.083 -0.3065  0.3952  0.1534
   21SAPC  H11X 2805   3.791   3.693   9.144  2.4583 -0.9600  1.5767
   21SAPC  H11Y 2806   3.664   3.614   9.068 -0.3027  0.0457 -0.1820
   21SAPC  C312 2807   3.843   3.598   8.947 -0.5046 -0.0519 -0.6161
   21SAPC  H12X 2808   3.952   3.584   8.960 -0.4190  0.5860 -0.6151
   21SAPC  H12Y 2809   3.821   3.698   8.902 -2.5358  0.1320  0.6572
   21SAPC  C313 2810   3.772   3.501   8.851  0.1008  0.3940 -0.1796
   21SAPC  H13X 2811   3.670   3.539   8.830 -0.0063  1.4539  1.9488
   21SAPC  H13Y 2812   3.756   3.403   8.902  0.8521 -0.5573 -1.7015
   21SAPC  C314 2813   3.847   3.474   8.717  0.9563 -0.3810 -0.9054
   21SAPC  H14X 2814   3.920   3.395   8.744  2.1643  1.2085  0.7193
   21SAPC  H14Y 2815   3.890   3.570   8.682  0.2257  0.5651  0.6962
   21SAPC  C315 2816   3.761   3.415   8.600 -0.8247 -0.9423 -0.0257
   21SAPC  H15X 2817   3.684   3.491   8.572  0.4426  0.5908  0.5310
   21SAPC  H15Y 2818   3.700   3.329   8.636 -1.9408  0.0188  0.4182
   21SAPC  C316 2819   3.839   3.393   8.467 -0.1958 -0.2359 -0.2125
   21SAPC  H16X 2820   3.916   3.316   8.489 -0.4997  0.2317  3.0143
   21SAPC  H16Y 2821   3.886   3.490   8.442 -1.9304  1.7135  3.2728
   21SAPC  C317 2822   3.758   3.352   8.347 -0.6671  0.0444 -0.4235
   21SAPC  H17X 2823   3.736   3.247   8.377 -0.8242  0.6411  1.6848
   21SAPC  H17Y 2824   3.819   3.348   8.254 -0.7682  0.3226 -0.5011
   21SAPC  C318 2825   3.643   3.443   8.309 -0.4113 -0.4061  1.0231
   21SAPC  H18X 2826   3.667   3.550   8.289 -2.1375 -0.3666 -1.1648
   21SAPC  H18Y 2827   3.566   3.446   8.389  0.3121  2.9243  1.7344
   21SAPC  H18Z 2828   3.601   3.404   8.214  2.1755 -0.4398 -0.2146
   22SAPC     N 2829   4.605   1.639  10.972 -0.1575 -0.4572  0.5682
   22SAPC   C12 2830   4.609   1.579  10.829 -0.0182  0.6929  0.3684
   22SAPC  H12A 2831   4.508   1.573  10.791 -0.2288  0.4701  0.9584
   22SAPC  H12B 2832   4.633   1.474  10.818 -1.1671  0.5146 -0.6701
   22SAPC   C13 2833   4.500   1.570  11.037  0.3269 -0.5956 -0.2944
   22SAPC  H13A 2834   4.509   1.464  11.058  1.8316 -0.3557  0.3321
   22SAPC  H13B 2835   4.462   1.622  11.124 -1.5943 -1.4158 -0.5907
   22SAPC  H13C 2836   4.419   1.582  10.966 -0.3649  0.5861  0.6477
   22SAPC   C14 2837   4.736   1.605  11.034  0.0914  0.9788 -0.3801
   22SAPC  H14A 2838   4.745   1.647  11.133  0.2881 -2.4735  1.2106
   22SAPC  H14B 2839   4.737   1.497  11.038 -0.1899  0.8708 -2.1864
   22SAPC  H14C 2840   4.815   1.635  10.967 -0.7121  1.9773 -0.9017
   22SAPC   C15 2841   4.570   1.778  10.958 -0.1480 -0.4985 -0.1861
   22SAPC  H15A 2842   4.531   1.821  11.049  0.2973  0.7346 -0.5433
   22SAPC  H15B 2843   4.652   1.840  10.924 -0.5232 -0.1513 -0.4737
   22SAPC  H15C 2844   4.489   1.787  10.888 -0.0316 -2.1657 -0.5726
   22SAPC   C11 2845   4.694   1.650  10.717 -0.0652  0.2113  0.3308
   22SAPC  H11A 2846   4.652   1.750  10.691  2.9061  1.1800 -1.1008
   22SAPC  H11B 2847   4.703   1.590  10.624  3.7515  2.2678 -0.8444
   22SAPC     P 2848   4.900   1.803  10.768 -0.2734  0.0288 -0.2947
   22SAPC   O13 2849   4.836   1.884  10.874  0.2856  0.1487  0.2609
   22SAPC   O14 2850   5.046   1.780  10.779 -0.3511 -0.2951  0.3630
   22SAPC   O12 2851   4.831   1.660  10.755 -0.8458  0.2753 -0.1664
   22SAPC   O11 2852   4.866   1.859  10.622 -0.2898  0.6686 -0.0871
   22SAPC    C1 2853   4.897   1.796  10.499 -0.3633  0.2312 -0.5861
   22SAPC    HA 2854   4.881   1.686  10.504 -1.4980  0.4206  0.9514
   22SAPC    HB 2855   4.821   1.831  10.426 -0.7555 -0.5156 -0.5523
   22SAPC    C2 2856   5.046   1.824  10.458 -0.2967 -0.8017 -0.7686
   22SAPC    HS 2857   5.112   1.771  10.530 -1.2153 -2.4780 -1.1162
   22SAPC   O21 2858   5.056   1.968  10.454  0.2589 -1.0938  0.7440
   22SAPC   C21 2859   5.169   2.020  10.489 -1.1000 -0.4839 -0.0121
   22SAPC   O22 2860   5.269   1.960  10.530  0.9267 -0.4132  0.3444
   22SAPC   C22 2861   5.149   2.170  10.491 -0.6809  0.7244 -0.5221
   22SAPC   H2R 2862   5.045   2.179  10.529 -0.0870  0.4606  1.2141
   22SAPC   H2S 2863   5.216   2.209  10.570 -0.7561  0.0262 -0.1144
   22SAPC    C3 2864   5.098   1.767  10.327  0.5180 -0.1174 -0.1191
   22SAPC    HX 2865   5.197   1.818  10.318  0.1849  0.8203  1.1605
   22SAPC    HY 2866   5.034   1.803  10.245 -0.3111  0.7333  0.8712
   22SAPC   O31 2867   5.109   1.621  10.326 -0.0545 -0.6096  0.1632
   22SAPC   C31 2868   5.206   1.571  10.249  0.0562 -0.2353 -0.5498
   22SAPC   O32 2869   5.285   1.641  10.190  0.1569 -0.4924  0.5027
   22SAPC   C32 2870   5.194   1.426  10.232  0.6228  0.1353  0.3124
   22SAPC   H2X 2871   5.110   1.388  10.295 -0.8839  2.5243 -0.1244
   22SAPC   H2Y 2872   5.286   1.378  10.273  1.9765  0.0576 -2.5589
   22SAPC   C23 2873   5.163   2.239  10.352  0.5698 -0.3918  0.5137
   22SAPC   H3R 2874   5.271   2.232  10.324  0.6271  0.3825  0.5136
   22SAPC   H3S 2875   5.143   2.347  10.369  0.7396 -0.3311  0.3357
   22SAPC   C24 2876   5.077   2.187  10.238  0.0688  0.0187 -0.1359
   22SAPC   H4R 2877   4.976   2.181  10.284  1.7837 -0.3296  3.9682
   22SAPC   H4S 2878   5.107   2.086  10.201 -0.9599 -0.3942  0.1355
   22SAPC   C25 2879   5.073   2.274  10.115 -0.2562  0.7556 -0.2434
   22SAPC   H5R 2880   5.148   2.239  10.042  0.3643  2.4643 -0.4762
   22SAPC   C26 2881   5.008   2.386  10.090 -0.5576 -1.1487  0.1728
   22SAPC   H6R 2882   5.019   2.428   9.989  1.8606 -0.8957  0.4665
   22SAPC   C27 2883   4.921   2.463  10.185  0.4322  0.0582  0.2214
   22SAPC   H7R 2884   4.907   2.406  10.280  1.6348 -2.1802 -0.8693
   22SAPC   H7S 2885   4.817   2.465  10.145 -0.2438  2.0580  1.8716
   22SAPC   C28 2886   4.958   2.602  10.216 -0.0583  0.6418  0.4062
   22SAPC   H8R 2887   5.040   2.606  10.289  1.6575 -1.0406 -1.3228
   22SAPC   C29 2888   4.919   2.706  10.143 -0.4540 -0.0721  0.2288
   22SAPC   H9R 2889   4.947   2.809  10.167 -0.7010  0.1328 -0.3337
   22SAPC  C210 2890   4.827   2.676  10.029  0.1855 -1.0736  0.4405
   22SAPC  H10R 2891   4.740   2.621  10.071  2.0047 -3.2769  1.5537
   22SAPC  H10S 2892   4.872   2.604   9.957 -1.5824 -0.2117 -1.6376
   22SAPC  C211 2893   4.780   2.804   9.955  0.0778  0.3491 -0.0489
   22SAPC  H11R 2894   4.784   2.902  10.006  0.6376 -0.2493  1.0939
   22SAPC  C212 2895   4.733   2.806   9.827  0.6967 -0.6278  0.1395
   22SAPC  H12R 2896   4.725   2.905   9.782  1.4495 -1.3819 -1.7547
   22SAPC  C213 2897   4.710   2.688   9.734  0.0955  0.7126 -0.3117
   22SAPC  H13R 2898   4.633   2.719   9.661 -1.6431  1.2353  1.6550
   22SAPC  H13S 2899   4.672   2.598   9.787 -0.0792  0.3749 -0.9991
   22SAPC  C214 2900   4.838   2.660   9.658  0.1443  0.3467 -0.3484
   22SAPC  H14R 2901   4.927   2.642   9.720 -0.3630  1.1216  0.6260
   22SAPC  C215 2902   4.864   2.665   9.523 -0.1264 -0.2390  0.4888
   22SAPC  H15R 2903   4.968   2.653   9.489  0.7558  1.0452  2.5185
   22SAPC  C216 2904   4.766   2.703   9.415 -0.1046  0.0534  0.1642
   22SAPC  H16R 2905   4.807   2.774   9.340 -0.5562  1.2313  0.9923
   22SAPC  H16S 2906   4.683   2.761   9.462 -0.7573 -0.2690 -0.5684
   22SAPC  C217 2907   4.711   2.583   9.348  0.4032  0.0675  0.4095
   22SAPC  H17R 2908   4.640   2.619   9.271  1.2890 -0.0247 -0.4727
   22SAPC  H17S 2909   4.653   2.523   9.421  2.4973 -1.0154  1.2709
   22SAPC  C218 2910   4.804   2.492   9.262 -0.0230 -0.0946 -0.3352
   22SAPC  H18R 2911   4.731   2.428   9.208 -1.0261  1.3127 -0.7134
   22SAPC  H18S 2912   4.854   2.422   9.332  0.3227  0.0206 -0.4622
   22SAPC  C219 2913   4.900   2.556   9.169  0.1660 -0.3682  0.3766
   22SAPC  H19R 2914   4.947   2.641   9.222 -1.4286  1.9444 -1.7296
   22SAPC  H19S 2915   4.852   2.606   9.082 -1.3028  0.2793  1.5197
   22SAPC  C220 2916   5.003   2.456   9.121 -0.5281 -0.1075  0.2321
   22SAPC  H20R 2917   5.064   2.501   9.040  0.3601 -1.5897  0.0489
   22SAPC  H20S 2918   4.955   2.362   9.088 -2.2758  0.2760  1.4727
   22SAPC  H20T 2919   5.074   2.433   9.203 -2.8431  1.1156  2.7445
   22SAPC   C33 2920   5.172   1.372  10.089 -0.7497  0.3311  0.0552
   22SAPC   H3X 2921   5.168   1.261  10.080  0.2145  0.4575 -2.8419
   22SAPC   H3Y 2922   5.251   1.420  10.027  0.6819 -1.8969  0.0230
   22SAPC   C34 2923   5.041   1.430  10.031 -0.4421  0.4271  0.1239
   22SAPC   H4X 2924   5.038   1.539  10.055 -0.0432  0.2582  0.9806
   22SAPC   H4Y 2925   4.955   1.392  10.090 -0.2411 -1.3180 -0.6365
   22SAPC   C35 2926   5.020   1.411   9.882 -0.2435  0.1774 -0.3592
   22SAPC   H5X 2927   5.034   1.303   9.858  0.3781 -0.1572  1.3781
   22SAPC   H5Y 2928   5.102   1.458   9.824 -0.8920  0.6956 -0.8606
   22SAPC   C36 2929   4.880   1.465   9.834 -0.4438 -0.4495  0.1969
   22SAPC   H6X 2930   4.876   1.576   9.846 -0.1640 -0.2734 -1.1855
   22SAPC   H6Y 2931   4.818   1.410   9.909  0.5403 -0.9459  0.6529
   22SAPC   C37 2932   4.842   1.433   9.690  0.0453  0.0603 -0.2199
   22SAPC   H7X 2933   4.732   1.435   9.677  0.2333  0.7294 -1.9993
   22SAPC   H7Y 2934   4.871   1.326   9.676 -0.1925  0.0157 -0.3764
   22SAPC   C38 2935   4.913   1.522   9.588  0.2814  0.4452 -0.6977
   22SAPC   H8X 2936   5.020   1.533   9.618  0.0682  2.0943 -0.4430
   22SAPC   H8Y 2937   4.871   1.624   9.600  0.3029  0.3256  0.5013
   22SAPC   C39 2938   4.896   1.475   9.444 -0.0343  0.0810 -0.3639
   22SAPC   H9X 2939   4.933   1.372   9.424 -0.7181 -0.4215  0.8677
   22SAPC   H9Y 2940   4.966   1.542   9.390  1.4232 -0.3916  0.8755
   22SAPC  C310 2941   4.754   1.484   9.383  0.0920  0.3323 -0.0198
   22SAPC  H10X 2942   4.710   1.578   9.422 -2.1020 -0.3199 -0.7880
   22SAPC  H10Y 2943   4.696   1.406   9.437  1.7960 -0.5442  0.6297
   22SAPC  C311 2944   4.743   1.480   9.234  0.5559 -0.6250  0.6407
   22SAPC  H11X 2945   4.640   1.517   9.216  0.5143  0.2171  2.3650
   22SAPC  H11Y 2946   4.768   1.378   9.199  1.7338  0.2257 -1.1036
   22SAPC  C312 2947   4.835   1.585   9.170 -0.1215 -0.6832  0.6218
   22SAPC  H12X 2948   4.942   1.552   9.173  1.1647  2.6971 -1.9141
   22SAPC  H12Y 2949   4.827   1.688   9.210 -1.3224  0.2102 -1.7677
   22SAPC  C313 2950   4.815   1.595   9.016 -0.5772  0.3602  0.8913
   22SAPC  H13X 2951   4.710   1.606   8.980 -0.1174 -1.2739 -1.0755
   22SAPC  H13Y 2952   4.848   1.498   8.974  1.2071  1.9345 -1.6491
   22SAPC  C314 2953   4.897   1.706   8.947  0.5302  0.1200  0.2493
   22SAPC  H14X 2954   5.005   1.686   8.964  0.1495 -2.0301  0.5357
   22SAPC  H14Y 2955   4.877   1.790   9.015 -4.0103 -1.9690  1.9259
   22SAPC  C315 2956   4.862   1.733   8.798 -0.3078  0.4458  1.2006
   22SAPC  H15X 2957   4.917   1.820   8.755  0.3400 -1.3857 -2.0077
   22SAPC  H15Y 2958   4.756   1.764   8.786  0.0775  1.1544 -0.7524
   22SAPC  C316 2959   4.897   1.617   8.703 -0.0382 -0.2427 -1.0244
   22SAPC  H16X 2960   4.862   1.652   8.603  2.8807  0.5366 -1.8635
   22SAPC  H16Y 2961   4.849   1.521   8.732 -1.3699 -0.0339 -2.3642
   22SAPC  C317 2962   5.046   1.583   8.692  0.0137 -0.1493 -0.0925
   22SAPC  H17X 2963   5.056   1.474   8.677 -2.0022 -0.0667 -3.2167
   22SAPC  H17Y 2964   5.103   1.613   8.782  0.1020 -1.5159  0.3221
   22SAPC  C318 2965   5.109   1.641   8.567  0.1515 -0.0425 -0.0351
   22SAPC  H18X 2966   5.218   1.633   8.584 -0.1504  0.5578  2.7474
   22SAPC  H18Y 2967   5.095   1.751   8.558  0.6618  0.1531  1.3679
   22SAPC  H18Z 2968   5.075   1.590   8.474  1.8183 -1.1488 -0.0771
   23SAPC     N 2969   5.799   2.342  10.931  0.5376  0.3876 -0.7140
   23SAPC   C12 2970   5.771   2.494  10.968  0.5139  0.1569 -0.0716
   23SAPC  H12A 2971   5.866   2.545  10.971  1.0508 -0.7776 -0.5377
   23SAPC  H12B 2972   5.713   2.500  11.059 -0.3415  1.3450 -0.6673
   23SAPC   C13 2973   5.808   2.321  10.789  0.0144 -1.5520 -0.1306
   23SAPC  H13A 2974   5.808   2.215  10.769  1.6695 -1.8514  1.2366
   23SAPC  H13B 2975   5.725   2.370  10.740  2.1696  2.8744  0.1471
   23SAPC  H13C 2976   5.895   2.371  10.750 -0.6602 -0.4015 -0.2199
   23SAPC   C14 2977   5.917   2.298  11.001 -0.3258  0.1202 -0.1091
   23SAPC  H14A 2978   6.000   2.361  10.971 -2.3328  2.8730 -0.1710
   23SAPC  H14B 2979   5.912   2.301  11.108  1.6650  2.7983  0.0133
   23SAPC  H14C 2980   5.949   2.198  10.976 -1.4484 -0.6200  1.2981
   23SAPC   C15 2981   5.678   2.258  10.976 -0.7820  0.3254 -0.2222
   23SAPC  H15A 2982   5.698   2.240  11.081 -1.4070  2.4806  0.3149
   23SAPC  H15B 2983   5.582   2.301  10.954 -0.0687  1.9015 -0.4330
   23SAPC  H15C 2984   5.694   2.165  10.924 -2.1698 -0.2286  0.3032
   23SAPC   C11 2985   5.677   2.573  10.861 -0.9594  0.4147 -0.0511
   23SAPC  H11A 2986   5.729   2.553  10.765 -0.6721 -3.8014  0.7931
   23SAPC  H11B 2987   5.684   2.683  10.880  1.8877  0.7181 -2.2090
   23SAPC     P 2988   5.466   2.507  10.724  0.2235 -0.3543  0.1741
   23SAPC   O13 2989   5.550   2.433  10.630 -0.6468  0.5827 -0.1682
   23SAPC   O14 2990   5.334   2.445  10.752  0.4799 -0.2666 -0.0589
   23SAPC   O12 2991   5.538   2.533  10.861  0.1724 -0.3366  0.7309
   23SAPC   O11 2992   5.431   2.652  10.669 -0.7612  0.2252  0.1905
   23SAPC    C1 2993   5.516   2.759  10.628 -0.6928 -0.3680 -0.0972
   23SAPC    HA 2994   5.508   2.839  10.705 -0.0865 -0.3625 -0.0325
   23SAPC    HB 2995   5.620   2.720  10.623 -1.2551 -1.7720 -1.4394
   23SAPC    C2 2996   5.502   2.822  10.485  0.4610  1.3890  0.3032
   23SAPC    HS 2997   5.410   2.882  10.469 -1.4996 -1.8291 -1.4864
   23SAPC   O21 2998   5.506   2.725  10.377 -0.0808  0.0850 -0.1710
   23SAPC   C21 2999   5.390   2.668  10.352  0.4063 -0.1959 -0.2163
   23SAPC   O22 3000   5.285   2.696  10.413 -0.0263  0.2391 -0.0174
   23SAPC   C22 3001   5.401   2.556  10.252 -0.9923 -0.4595 -0.2281
   23SAPC   H2R 3002   5.463   2.472  10.290 -1.3294 -0.5325  0.1648
   23SAPC   H2S 3003   5.296   2.525  10.236 -1.1781 -1.2581  2.1731
   23SAPC    C3 3004   5.620   2.920  10.464 -0.1095 -0.4330 -0.0069
   23SAPC    HX 3005   5.716   2.873  10.493  1.1068  1.9535  0.0718
   23SAPC    HY 3006   5.604   3.005  10.533  1.4466 -0.2239  0.1159
   23SAPC   O31 3007   5.622   2.960  10.327 -0.4978  0.3883  0.3043
   23SAPC   C31 3008   5.545   3.048  10.277  0.2321 -0.3718 -0.6669
   23SAPC   O32 3009   5.463   3.116  10.335  0.5243  0.3943 -0.6943
   23SAPC   C32 3010   5.579   3.065  10.125  0.0491 -0.0146  0.4197
   23SAPC   H2X 3011   5.609   2.972  10.072  0.2153  0.9454 -1.2450
   23SAPC   H2Y 3012   5.667   3.131  10.117  0.9874 -1.4083 -1.7550
   23SAPC   C23 3013   5.457   2.602  10.118  0.0652 -0.4425  0.1781
   23SAPC   H3R 3014   5.452   2.520  10.044 -1.5217  1.2782 -1.7279
   23SAPC   H3S 3015   5.565   2.625  10.128  0.3374 -1.9023  0.8684
   23SAPC   C24 3016   5.383   2.720  10.042  0.2105 -0.0607  0.5939
   23SAPC   H4R 3017   5.444   2.735   9.950 -1.3517 -0.0705 -0.4905
   23SAPC   H4S 3018   5.411   2.810  10.101  2.4517 -1.0607  1.1339
   23SAPC   C25 3019   5.235   2.700  10.005 -0.0841  0.3682  0.3106
   23SAPC   H5R 3020   5.163   2.697  10.088  0.0166 -2.1042  0.3653
   23SAPC   C26 3021   5.186   2.671   9.882  0.3628  0.4332 -0.8284
   23SAPC   H6R 3022   5.077   2.664   9.867  0.7381  0.3191 -4.1975
   23SAPC   C27 3023   5.256   2.658   9.753  0.0771 -0.5667  0.1042
   23SAPC   H7R 3024   5.365   2.646   9.769  0.3949  0.4232 -1.2371
   23SAPC   H7S 3025   5.244   2.760   9.713  1.3393  0.0399  1.1844
   23SAPC   C28 3026   5.210   2.541   9.669  0.3417 -1.0946  0.3151
   23SAPC   H8R 3027   5.155   2.462   9.722  1.4193 -1.8232  0.3654
   23SAPC   C29 3028   5.249   2.531   9.538  0.1787 -0.1639 -0.4127
   23SAPC   H9R 3029   5.221   2.437   9.488 -2.3967  1.2063 -1.7054
   23SAPC  C210 3030   5.336   2.621   9.451  0.0542  0.4059 -0.4046
   23SAPC  H10R 3031   5.427   2.649   9.508  0.4707 -0.7797 -0.4570
   23SAPC  H10S 3032   5.282   2.715   9.431 -0.3020  0.6557  1.5793
   23SAPC  C211 3033   5.391   2.562   9.327 -0.3604  1.3507  0.8986
   23SAPC  H11R 3034   5.459   2.475   9.334 -1.8586  0.2711  3.1646
   23SAPC  C212 3035   5.374   2.606   9.199 -0.1538  0.0859  0.4497
   23SAPC  H12R 3036   5.417   2.543   9.120 -0.1394 -2.8834  2.6587
   23SAPC  C213 3037   5.298   2.726   9.158 -0.2061  0.3281 -0.0925
   23SAPC  H13R 3038   5.292   2.796   9.244  4.7356  1.6284 -0.5451
   23SAPC  H13S 3039   5.194   2.692   9.138  0.4080 -1.3870 -0.5243
   23SAPC  C214 3040   5.352   2.808   9.047 -0.3238  0.1194 -0.1678
   23SAPC  H14R 3041   5.402   2.903   9.075 -0.0441 -0.0066 -0.2354
   23SAPC  C215 3042   5.338   2.793   8.916 -0.4437  0.6187  0.1133
   23SAPC  H15R 3043   5.388   2.866   8.850  1.0996 -0.3416  0.1722
   23SAPC  C216 3044   5.260   2.687   8.850  0.4179  0.6060  0.6078
   23SAPC  H16R 3045   5.173   2.723   8.791  0.3450  1.7472  1.3888
   23SAPC  H16S 3046   5.205   2.611   8.911 -1.1248  1.0031 -0.2325
   23SAPC  C217 3047   5.346   2.600   8.751  0.0021 -0.1629  0.6050
   23SAPC  H17R 3048   5.404   2.658   8.676 -1.5958  1.1124  0.3092
   23SAPC  H17S 3049   5.289   2.525   8.693 -0.5162  0.6553  0.0385
   23SAPC  C218 3050   5.462   2.522   8.823  0.5147  0.0116  0.6807
   23SAPC  H18R 3051   5.413   2.462   8.902  2.2656 -2.0096  0.3241
   23SAPC  H18S 3052   5.534   2.595   8.867  2.8040 -2.0582  0.5748
   23SAPC  C219 3053   5.554   2.437   8.718  0.4608  0.5620 -0.2725
   23SAPC  H19R 3054   5.621   2.382   8.787  1.6672  1.8033 -0.3966
   23SAPC  H19S 3055   5.619   2.507   8.660  2.6378 -0.5806  0.6383
   23SAPC  C220 3056   5.477   2.338   8.627 -0.5156  0.2335  0.9125
   23SAPC  H20R 3057   5.445   2.247   8.683 -0.7639 -0.9755 -1.0675
   23SAPC  H20S 3058   5.539   2.293   8.547  0.3350 -1.7134  2.5778
   23SAPC  H20T 3059   5.394   2.389   8.573  1.4754  2.1730 -0.4921
   23SAPC   C33 3060   5.461   3.129  10.053 -0.4483 -0.4984  0.0393
   23SAPC   H3X 3061   5.455   3.236  10.082  1.1344 -0.0992 -0.9965
   23SAPC   H3Y 3062   5.371   3.065  10.065 -0.8603  0.0165 -0.2736
   23SAPC   C34 3063   5.478   3.148   9.898 -0.1238 -0.4367  0.1109
   23SAPC   H4X 3064   5.567   3.213   9.886 -1.4016  1.0568 -1.8634
   23SAPC   H4Y 3065   5.390   3.207   9.864 -0.7352 -0.6833  1.2140
   23SAPC   C35 3066   5.507   3.025   9.810 -0.2790  0.6128  0.1177
   23SAPC   H5X 3067   5.413   2.965   9.813 -1.2351  2.0361  0.0236
   23SAPC   H5Y 3068   5.595   2.976   9.856 -1.6493 -1.0669  1.0435
   23SAPC   C36 3069   5.525   3.059   9.661  0.7688 -0.1018  0.0480
   23SAPC   H6X 3070   5.623   3.104   9.633  1.3863 -0.9669  0.7871
   23SAPC   H6Y 3071   5.445   3.131   9.635 -1.8287 -3.0282 -0.5737
   23SAPC   C37 3072   5.497   2.949   9.561  0.1416 -0.0418 -0.1262
   23SAPC   H7X 3073   5.387   2.942   9.545  0.1446  0.9137 -0.6657
   23SAPC   H7Y 3074   5.528   2.851   9.602  2.3637  0.0860 -1.3501
   23SAPC   C38 3075   5.576   2.971   9.429 -0.2545 -0.3979 -0.8523
   23SAPC   H8X 3076   5.561   2.884   9.361 -0.4740 -2.6026  1.8283
   23SAPC   H8Y 3077   5.684   2.971   9.454 -0.7069  0.6286  1.3358
   23SAPC   C39 3078   5.550   3.108   9.363  0.0111  0.0080  0.1232
   23SAPC   H9X 3079   5.583   3.199   9.418  0.3521  1.7004 -2.6793
   23SAPC   H9Y 3080   5.440   3.114   9.349 -0.1289  2.8663  1.6489
   23SAPC  C310 3081   5.608   3.115   9.219 -0.2083 -0.3286 -0.0764
   23SAPC  H10X 3082   5.564   3.022   9.176 -1.0287 -0.4480  0.9836
   23SAPC  H10Y 3083   5.719   3.115   9.229  0.1280  5.9864  0.2962
   23SAPC  C311 3084   5.566   3.247   9.151  0.0186 -0.6800  0.5374
   23SAPC  H11X 3085   5.593   3.337   9.210  1.2551 -0.6240 -0.0945
   23SAPC  H11Y 3086   5.455   3.237   9.145 -0.4091  3.0839 -0.5513
   23SAPC  C312 3087   5.625   3.247   9.005  0.2239 -0.2880  0.0115
   23SAPC  H12X 3088   5.733   3.233   9.026  0.4402 -0.4317 -1.1507
   23SAPC  H12Y 3089   5.604   3.351   8.972 -0.5669 -0.3096  0.4104
   23SAPC  C313 3090   5.552   3.139   8.915 -0.0408 -0.6967 -0.4473
   23SAPC  H13X 3091   5.443   3.137   8.938 -0.5217  1.2815 -2.1870
   23SAPC  H13Y 3092   5.596   3.043   8.949  0.5784 -0.9209 -1.8282
   23SAPC  C314 3093   5.578   3.155   8.768  0.3081  0.0657 -0.2454
   23SAPC  H14X 3094   5.688   3.160   8.756  0.3111 -1.4848 -1.1554
   23SAPC  H14Y 3095   5.544   3.247   8.716  2.6129  0.5915 -0.9104
   23SAPC  C315 3096   5.527   3.033   8.686  0.1507 -1.0991 -0.4541
   23SAPC  H15X 3097   5.416   3.032   8.675 -0.1488  1.1468  1.6679
   23SAPC  H15Y 3098   5.559   2.940   8.737  0.2185 -1.4967 -1.2068
   23SAPC  C316 3099   5.594   3.030   8.545  0.6523 -0.8317 -0.5038
   23SAPC  H16X 3100   5.686   3.090   8.559 -1.1106  1.6094  1.7600
   23SAPC  H16Y 3101   5.531   3.078   8.467  1.9265  0.6619 -0.6664
   23SAPC  C317 3102   5.629   2.888   8.502 -0.0374 -0.0048  0.0205
   23SAPC  H17X 3103   5.589   2.878   8.399  0.5348 -0.2566 -0.1860
   23SAPC  H17Y 3104   5.582   2.811   8.565  2.6667 -1.2757  0.6481
   23SAPC  C318 3105   5.788   2.862   8.510  0.5387 -0.2096 -0.1365
   23SAPC  H18X 3106   5.848   2.922   8.439 -0.1227 -0.2659 -0.7572
   23SAPC  H18Y 3107   5.809   2.753   8.506 -1.2189 -0.5632 -0.8498
   23SAPC  H18Z 3108   5.816   2.900   8.611 -0.0252  0.5055 -0.2351
   24SAPC     N 3109   3.574   4.173  11.368  0.0485 -0.5655 -0.1819
   24SAPC   C12 3110   3.702   4.201  11.292  0.1728 -0.5482 -0.0386
   24SAPC  H12A 3111   3.716   4.114  11.229  0.5071 -0.7436  0.2974
   24SAPC  H12B 3112   3.789   4.207  11.356  1.0752  0.3187 -1.3086
   24SAPC   C13 3113   3.455   4.150  11.282 -0.5615 -0.0924  0.2147
   24SAPC  H13A 3114   3.450   4.228  11.208  5.5800 -1.4765 -2.2039
   24SAPC  H13B 3115   3.466   4.057  11.227 -0.1255  0.8223 -1.2883
   24SAPC  H13C 3116   3.366   4.164  11.342  1.3613  0.2994  3.1867
   24SAPC   C14 3117   3.576   4.058  11.463 -0.4341 -0.4831  0.1318
   24SAPC  H14A 3118   3.656   4.055  11.535 -1.4393 -1.7394  1.2304
   24SAPC  H14B 3119   3.488   4.056  11.524 -0.4577 -0.6351  0.0937
   24SAPC  H14C 3120   3.573   3.964  11.410  0.9224 -1.1159  1.1295
   24SAPC   C15 3121   3.539   4.296  11.443  0.2033  0.7482 -0.6180
   24SAPC  H15A 3122   3.439   4.301  11.484 -0.2199 -0.5240 -1.4342
   24SAPC  H15B 3123   3.603   4.303  11.529  2.2805  0.0294 -2.0238
   24SAPC  H15C 3124   3.551   4.387  11.386  0.2307  1.5929  0.6816
   24SAPC   C11 3125   3.692   4.325  11.201  0.0655  0.1178  0.4841
   24SAPC  H11A 3126   3.681   4.420  11.259  1.4357 -0.2886  1.4371
   24SAPC  H11B 3127   3.602   4.317  11.135  1.4551  0.8413 -1.6015
   24SAPC     P 3128   3.797   4.279  10.972  0.2519  0.0996  0.2581
   24SAPC   O13 3129   3.926   4.317  10.913  0.1156 -0.1019 -0.3840
   24SAPC   O14 3130   3.761   4.133  10.977  0.2278  0.2339  0.3947
   24SAPC   O12 3131   3.808   4.338  11.121 -0.5107 -0.0510  0.5186
   24SAPC   O11 3132   3.683   4.365  10.906 -0.4980  0.4489  0.3194
   24SAPC    C1 3133   3.690   4.507  10.912  0.0401 -0.3935 -0.5640
   24SAPC    HA 3134   3.658   4.538  11.014  0.5333 -0.1094 -0.4938
   24SAPC    HB 3135   3.794   4.538  10.886 -0.2851 -0.6484 -2.2768
   24SAPC    C2 3136   3.583   4.582  10.825  0.0790  0.2077  0.8884
   24SAPC    HS 3137   3.486   4.544  10.865 -0.5752 -0.0347 -0.8404
   24SAPC   O21 3138   3.605   4.550  10.688  0.0593  0.1192 -0.4417
   24SAPC   C21 3139   3.502   4.558  10.603 -0.2253 -0.0500  0.1494
   24SAPC   O22 3140   3.384   4.560  10.630  0.0310 -0.2640  0.0735
   24SAPC   C22 3141   3.560   4.578  10.467  0.1233 -0.6163 -0.3391
   24SAPC   H2R 3142   3.558   4.683  10.429  1.5269 -0.6018 -0.4230
   24SAPC   H2S 3143   3.666   4.546  10.473  1.0710  2.2066 -0.4558
   24SAPC    C3 3144   3.604   4.732  10.833  0.6850  1.1244  0.7563
   24SAPC    HX 3145   3.691   4.766  10.773  1.0408 -0.6942  0.1654
   24SAPC    HY 3146   3.623   4.757  10.940  1.7646 -0.6302  1.0173
   24SAPC   O31 3147   3.487   4.804  10.788  0.0349  0.9380  0.3133
   24SAPC   C31 3148   3.500   4.890  10.691  0.2683  0.0410 -0.1057
   24SAPC   O32 3149   3.597   4.912  10.620 -0.5616 -0.2204 -0.0469
   24SAPC   C32 3150   3.363   4.946  10.666  0.5823  0.2109 -0.1499
   24SAPC   H2X 3151   3.324   4.987  10.762  1.4220 -0.2950  0.4234
   24SAPC   H2Y 3152   3.297   4.860  10.641  1.1498 -0.5363  0.8395
   24SAPC   C23 3153   3.479   4.493  10.367  0.5605 -0.3023  0.1575
   24SAPC   H3R 3154   3.374   4.529  10.371  0.1675 -0.9222 -2.5668
   24SAPC   H3S 3155   3.486   4.384  10.390 -1.6614 -0.4545  0.3374
   24SAPC   C24 3156   3.512   4.516  10.227 -1.0957 -0.4946 -0.1300
   24SAPC   H4R 3157   3.483   4.623  10.212  0.4699  0.2277  1.5961
   24SAPC   H4S 3158   3.442   4.460  10.161 -1.1312  1.3465 -1.7656
   24SAPC   C25 3159   3.659   4.485  10.205  0.0568 -0.4259  0.4165
   24SAPC   H5R 3160   3.694   4.393  10.255 -1.6151 -1.8383 -0.8959
   24SAPC   C26 3161   3.740   4.553  10.125  0.3098 -1.3635  0.1051
   24SAPC   H6R 3162   3.844   4.520  10.111  1.1162  0.4303  1.4166
   24SAPC   C27 3163   3.704   4.678  10.041 -0.4599 -0.7902 -0.5592
   24SAPC   H7R 3164   3.645   4.749  10.103  1.1704 -1.0087  1.3084
   24SAPC   H7S 3165   3.642   4.647   9.954 -1.7182 -1.3270  0.4998
   24SAPC   C28 3166   3.827   4.756  10.000 -0.0782 -0.2599 -0.0774
   24SAPC   H8R 3167   3.819   4.863  10.026  0.0070 -0.4323  0.6842
   24SAPC   C29 3168   3.910   4.713   9.901 -0.0675 -0.3056 -0.2547
   24SAPC   H9R 3169   3.996   4.779   9.881 -0.3770  0.2187  0.1079
   24SAPC  C210 3170   3.899   4.586   9.819  0.1671 -0.5117 -0.1450
   24SAPC  H10R 3171   3.823   4.518   9.861 -1.1865 -0.2955 -2.1156
   24SAPC  H10S 3172   3.991   4.525   9.827 -1.8122 -3.3672  3.4705
   24SAPC  C211 3173   3.855   4.625   9.683 -0.3887 -0.2618  0.2904
   24SAPC  H11R 3174   3.766   4.687   9.669  1.3887  1.8569 -3.1643
   24SAPC  C212 3175   3.937   4.613   9.574 -0.7640  0.1879 -0.3203
   24SAPC  H12R 3176   3.891   4.652   9.482 -3.3657  0.2048  0.9083
   24SAPC  C213 3177   4.077   4.554   9.562  0.8217 -0.0258 -0.2485
   24SAPC  H13R 3178   4.076   4.484   9.476 -1.9519  0.2362 -0.5132
   24SAPC  H13S 3179   4.104   4.504   9.658 -0.2908  1.6269  0.9881
   24SAPC  C214 3180   4.160   4.678   9.529 -0.3712 -0.0649 -0.5636
   24SAPC  H14R 3181   4.151   4.760   9.602  0.8352 -0.4728  0.0698
   24SAPC  C215 3182   4.247   4.690   9.428 -1.0328 -0.0476 -0.0219
   24SAPC  H15R 3183   4.309   4.781   9.424  0.6576 -1.1841 -0.9712
   24SAPC  C216 3184   4.288   4.594   9.315  0.9045 -1.1136  0.3256
   24SAPC  H16R 3185   4.209   4.605   9.237 -0.1356 -0.0944  1.4680
   24SAPC  H16S 3186   4.294   4.487   9.345  1.3232 -1.4884 -1.0243
   24SAPC  C217 3187   4.414   4.637   9.236  0.7780  0.3378  0.1777
   24SAPC  H17R 3188   4.504   4.656   9.298  1.2989  0.0575 -0.4806
   24SAPC  H17S 3189   4.389   4.735   9.189 -1.3411 -0.0551  0.3719
   24SAPC  C218 3190   4.454   4.538   9.123 -0.2706  1.0139  0.1268
   24SAPC  H18R 3191   4.386   4.524   9.037  1.6155 -0.1730 -1.2510
   24SAPC  H18S 3192   4.452   4.440   9.175 -1.6442  0.7396 -0.4067
   24SAPC  C219 3193   4.590   4.564   9.069  0.5709  0.0622  0.3192
   24SAPC  H19R 3194   4.652   4.612   9.148 -0.7195  1.0074  0.7983
   24SAPC  H19S 3195   4.593   4.649   8.997  0.1024  0.0568  0.2901
   24SAPC  C220 3196   4.656   4.450   8.999 -0.5021  0.6016 -0.3843
   24SAPC  H20R 3197   4.765   4.474   8.998 -0.0333 -1.3334  0.2004
   24SAPC  H20S 3198   4.633   4.429   8.892  0.4296  0.0796 -0.4918
   24SAPC  H20T 3199   4.650   4.363   9.067  0.3313  1.3917  0.7365
   24SAPC   C33 3200   3.361   5.062  10.563  0.5572 -0.0078 -0.4114
   24SAPC   H3X 3201   3.424   5.035  10.476  0.9999 -2.7889  0.6502
   24SAPC   H3Y 3202   3.391   5.160  10.606 -0.4448 -0.3717  1.2362
   24SAPC   C34 3203   3.212   5.086  10.514 -0.3326  0.6683 -0.6134
   24SAPC   H4X 3204   3.146   5.111  10.600  1.4799  0.6645  0.8556
   24SAPC   H4Y 3205   3.172   4.991  10.471 -0.8584  0.9488 -0.7509
   24SAPC   C35 3206   3.191   5.201  10.417  0.0546 -0.1924  0.3669
   24SAPC   H5X 3207   3.214   5.299  10.465 -0.7268  1.6483 -2.7062
   24SAPC   H5Y 3208   3.085   5.207  10.383  0.5191 -1.2100 -1.4226
   24SAPC   C36 3209   3.278   5.181  10.291  0.7468 -0.7283  1.4367
   24SAPC   H6X 3210   3.271   5.073  10.264  1.7960 -1.0610  2.4203
   24SAPC   H6Y 3211   3.386   5.198  10.312  1.5486 -0.6660 -2.0096
   24SAPC   C37 3212   3.240   5.259  10.165 -0.6025  0.0470  0.2439
   24SAPC   H7X 3213   3.254   5.368  10.183 -0.0778  0.3317 -1.7348
   24SAPC   H7Y 3214   3.134   5.239  10.138 -1.0292  1.2160  0.9703
   24SAPC   C38 3215   3.318   5.225  10.040 -0.4269  1.3552  0.8516
   24SAPC   H8X 3216   3.330   5.115  10.035 -2.6522  0.9710  2.2561
   24SAPC   H8Y 3217   3.419   5.268  10.054  0.1065  0.4006 -0.0318
   24SAPC   C39 3218   3.255   5.271   9.912 -0.3630  0.3890 -0.4906
   24SAPC   H9X 3219   3.216   5.374   9.924 -1.9742  0.0317 -2.1346
   24SAPC   H9Y 3220   3.173   5.201   9.887  0.5184 -1.5693  1.7259
   24SAPC  C310 3221   3.352   5.265   9.791 -0.9221 -0.3828  0.0611
   24SAPC  H10X 3222   3.400   5.165   9.784 -0.7142 -0.1931 -1.3828
   24SAPC  H10Y 3223   3.438   5.334   9.804  0.3311 -1.8730  0.0259
   24SAPC  C311 3224   3.278   5.282   9.662  0.0711  0.1608  0.5103
   24SAPC  H11X 3225   3.228   5.381   9.649  1.6097  0.6621 -2.1563
   24SAPC  H11Y 3226   3.200   5.204   9.648 -0.4224  0.9613 -1.5693
   24SAPC  C312 3227   3.376   5.279   9.543  0.3439  0.0774  0.4324
   24SAPC  H12X 3228   3.421   5.178   9.547  0.0547 -0.1155 -0.8137
   24SAPC  H12Y 3229   3.462   5.349   9.557  1.3804 -0.8203 -1.1829
   24SAPC  C313 3230   3.311   5.295   9.404  0.8483  0.1420  0.3707
   24SAPC  H13X 3231   3.275   5.400   9.399  0.3653 -0.0699 -0.8217
   24SAPC  H13Y 3232   3.226   5.224   9.391 -0.2577  1.6616 -1.0595
   24SAPC  C314 3233   3.412   5.278   9.291  0.0116  0.2730 -0.4829
   24SAPC  H14X 3234   3.432   5.171   9.312 -0.4503  0.3314  0.2994
   24SAPC  H14Y 3235   3.503   5.341   9.308 -0.2803 -0.1281  3.6460
   24SAPC  C315 3236   3.344   5.305   9.153  0.1910  0.3143  0.1744
   24SAPC  H15X 3237   3.315   5.412   9.148  1.6297  0.6802 -1.3375
   24SAPC  H15Y 3238   3.260   5.234   9.138  1.0376 -0.8374  0.7007
   24SAPC  C316 3239   3.434   5.283   9.037 -1.0464  0.9369  0.3625
   24SAPC  H16X 3240   3.497   5.374   9.023  0.1203 -0.0525 -1.1191
   24SAPC  H16Y 3241   3.374   5.264   8.945 -2.5965 -0.2822  1.5619
   24SAPC  C317 3242   3.539   5.174   9.050 -0.1662  0.4394 -0.2681
   24SAPC  H17X 3243   3.485   5.081   9.080  2.5476 -0.9082  0.9117
   24SAPC  H17Y 3244   3.613   5.197   9.130 -0.0002  2.4599 -0.9467
   24SAPC  C318 3245   3.617   5.139   8.923  0.5682  0.0818  0.1485
   24SAPC  H18X 3246   3.699   5.068   8.945  1.7500  1.4520  0.3127
   24SAPC  H18Y 3247   3.656   5.234   8.880  1.7695 -1.7383 -3.1450
   24SAPC  H18Z 3248   3.545   5.098   8.849 -1.5871  1.3921  1.3892
   25SAPC     N 3249   3.876   2.088   5.873  0.2789  0.2639 -0.3941
   25SAPC   C12 3250   3.912   2.087   6.021 -0.4248 -0.2138  0.2517
   25SAPC  H12A 3251   3.842   2.154   6.067 -2.0696 -1.0832 -0.8653
   25SAPC  H12B 3252   4.008   2.135   6.019 -0.9452  1.3518 -5.2361
   25SAPC   C13 3253   3.973   1.999   5.801  0.3082  0.2361 -0.0881
   25SAPC  H13A 3254   3.947   1.904   5.846  0.8709  0.7389  1.3622
   25SAPC  H13B 3255   3.954   2.012   5.696 -0.3851  0.5336  0.0624
   25SAPC  H13C 3256   4.073   2.033   5.820 -0.1976  1.6767  0.1693
   25SAPC   C14 3257   3.731   2.067   5.838 -0.8403  0.1817 -0.1305
   25SAPC  H14A 3258   3.662   2.132   5.889 -0.8749 -0.1829  0.2977
   25SAPC  H14B 3259   3.706   2.083   5.734 -2.3844  1.1581  0.3627
   25SAPC  H14C 3260   3.705   1.964   5.857 -0.3101  0.1896  0.6406
   25SAPC   C15 3261   3.898   2.224   5.826 -0.1520  0.2939 -0.7997
   25SAPC  H15A 3262   3.991   2.269   5.858 -0.8032  1.7304 -0.8100
   25SAPC  H15B 3263   3.900   2.210   5.719 -2.0225 -2.8978 -0.5557
   25SAPC  H15C 3264   3.814   2.285   5.858 -0.8083 -0.7478 -0.4868
   25SAPC   C11 3265   3.927   1.953   6.091  0.3209  0.0889  0.7338
   25SAPC  H11A 3266   3.943   1.970   6.200 -1.2816 -1.2908  1.2274
   25SAPC  H11B 3267   4.024   1.905   6.067 -1.4793 -2.2252 -2.9269
   25SAPC     P 3268   3.683   1.901   6.148 -0.6150 -0.3124  0.3655
   25SAPC   O13 3269   3.682   2.042   6.186 -0.4404  0.0489  0.7062
   25SAPC   O14 3270   3.564   1.854   6.072  0.0133  0.4509  0.0028
   25SAPC   O12 3271   3.821   1.859   6.074 -0.4635  0.7837 -0.0091
   25SAPC   O11 3272   3.692   1.816   6.277  0.2130  0.3028  0.5983
   25SAPC    C1 3273   3.740   1.682   6.289  0.4345 -0.1917 -0.0708
   25SAPC    HA 3274   3.714   1.629   6.194  0.0645 -1.5644  0.7733
   25SAPC    HB 3275   3.850   1.678   6.304  0.0932 -0.2586  2.9712
   25SAPC    C2 3276   3.673   1.606   6.405  0.6609  0.2809 -0.4541
   25SAPC    HS 3277   3.566   1.599   6.377  0.7894  2.5231 -1.7543
   25SAPC   O21 3278   3.686   1.685   6.526 -0.1960 -0.0332  0.7054
   25SAPC   C21 3279   3.578   1.714   6.591  0.5431 -0.4744 -0.1301
   25SAPC   O22 3280   3.468   1.676   6.568 -0.2644 -0.0518  0.0893
   25SAPC   C22 3281   3.609   1.800   6.715  0.2178  1.0233  1.5875
   25SAPC   H2R 3282   3.669   1.888   6.684 -0.1659  0.1911 -2.0155
   25SAPC   H2S 3283   3.507   1.825   6.752 -1.2660 -0.5614 -1.0550
   25SAPC    C3 3284   3.737   1.474   6.421  0.1563 -0.0217  0.5823
   25SAPC    HX 3285   3.842   1.495   6.451  1.3904 -0.5562 -2.9235
   25SAPC    HY 3286   3.727   1.415   6.328 -0.8573 -0.2219  0.8107
   25SAPC   O31 3287   3.670   1.405   6.528  0.4332 -0.1634  0.2251
   25SAPC   C31 3288   3.565   1.330   6.503 -0.4037  0.2961 -0.4964
   25SAPC   O32 3289   3.517   1.307   6.390 -0.3267 -0.0735  0.1599
   25SAPC   C32 3290   3.506   1.292   6.637 -0.3673  0.5821  0.1362
   25SAPC   H2X 3291   3.470   1.383   6.689 -1.0606  1.1805 -1.3325
   25SAPC   H2Y 3292   3.593   1.242   6.685 -0.5537 -2.0116 -2.0104
   25SAPC   C23 3293   3.695   1.718   6.818 -0.3840  0.6055 -0.0757
   25SAPC   H3R 3294   3.796   1.693   6.778 -1.8328 -0.4757 -3.4161
   25SAPC   H3S 3295   3.642   1.623   6.840 -0.2662  0.8290  1.2481
   25SAPC   C24 3296   3.702   1.789   6.958  0.5213 -0.5996  0.1497
   25SAPC   H4R 3297   3.725   1.706   7.029  1.7761  0.7916  1.4418
   25SAPC   H4S 3298   3.596   1.818   6.968  0.3152 -1.5526  0.8104
   25SAPC   C25 3299   3.790   1.915   6.961  0.4239  0.4828 -0.4328
   25SAPC   H5R 3300   3.789   1.972   6.867  0.5424  0.4136 -0.4762
   25SAPC   C26 3301   3.889   1.928   7.050  0.2719 -0.2520 -0.5600
   25SAPC   H6R 3302   3.954   2.015   7.033  0.1512 -0.2963 -1.2608
   25SAPC   C27 3303   3.923   1.836   7.164  1.1578 -0.4114  0.1901
   25SAPC   H7R 3304   4.024   1.868   7.196  0.3784 -1.0075  3.6497
   25SAPC   H7S 3305   3.939   1.731   7.130 -0.3749  0.1690 -2.6306
   25SAPC   C28 3306   3.825   1.842   7.286  0.0492  1.1034 -0.4609
   25SAPC   H8R 3307   3.727   1.888   7.266 -1.4731 -1.9448 -0.6076
   25SAPC   C29 3308   3.847   1.773   7.401  0.5163  0.0884 -0.0876
   25SAPC   H9R 3309   3.781   1.788   7.487 -0.4326 -0.3198 -0.7263
   25SAPC  C210 3310   3.968   1.692   7.447  1.0824 -0.2712  0.1590
   25SAPC  H10R 3311   3.993   1.617   7.369 -0.1967  0.0816 -0.6315
   25SAPC  H10S 3312   3.933   1.630   7.533  0.4302  1.0810  0.9055
   25SAPC  C211 3313   4.094   1.765   7.487  0.1714 -1.0362  0.5980
   25SAPC  H11R 3314   4.174   1.744   7.414 -0.4525  0.3567 -0.5260
   25SAPC  C212 3315   4.114   1.853   7.596  0.3680 -0.1255 -0.7808
   25SAPC  H12R 3316   4.208   1.911   7.603 -0.4844  1.2717 -0.5698
   25SAPC  C213 3317   4.015   1.871   7.710  0.0793  0.1182 -0.1014
   25SAPC  H13R 3318   3.925   1.808   7.695 -0.9667  1.5277  0.0065
   25SAPC  H13S 3319   3.976   1.975   7.703 -0.8603 -0.3003 -1.6240
   25SAPC  C214 3320   4.064   1.850   7.852  0.3911  0.9284  0.1233
   25SAPC  H14R 3321   4.172   1.841   7.871  0.2925  1.3447  0.8993
   25SAPC  C215 3322   3.977   1.829   7.955 -0.6891  0.7369 -0.2792
   25SAPC  H15R 3323   4.024   1.812   8.053 -1.5209 -0.8581 -0.1272
   25SAPC  C216 3324   3.829   1.821   7.950 -0.2844  0.1106  0.2737
   25SAPC  H16R 3325   3.789   1.849   7.850  0.8158  0.3003 -0.1325
   25SAPC  H16S 3326   3.795   1.903   8.017  0.1847  2.2367 -1.9557
   25SAPC  C217 3327   3.756   1.693   7.988  0.2870  0.6960  0.0127
   25SAPC  H17R 3328   3.812   1.607   7.946 -1.4340 -1.3931  1.7397
   25SAPC  H17S 3329   3.655   1.710   7.945  0.5901  2.2432 -0.1334
   25SAPC  C218 3330   3.743   1.673   8.143 -0.1857  0.4086 -0.2574
   25SAPC  H18R 3331   3.688   1.760   8.185 -0.2417  1.1461 -1.7703
   25SAPC  H18S 3332   3.845   1.690   8.182 -0.1920  1.2599 -0.5959
   25SAPC  C219 3333   3.691   1.540   8.194 -0.0227 -0.8710 -0.9710
   25SAPC  H19R 3334   3.592   1.532   8.145  0.3736  1.0762 -2.2452
   25SAPC  H19S 3335   3.684   1.553   8.304  0.3264  1.1602 -1.1484
   25SAPC  C220 3336   3.778   1.421   8.156  0.2272 -0.1442  0.5324
   25SAPC  H20R 3337   3.873   1.424   8.212 -0.4108 -0.4327  1.6811
   25SAPC  H20S 3338   3.791   1.407   8.047 -0.8951 -1.5104  0.5393
   25SAPC  H20T 3339   3.728   1.326   8.187 -2.9890  1.3867  0.4606
   25SAPC   C33 3340   3.376   1.202   6.620 -0.8046  0.3403  0.4666
   25SAPC   H3X 3341   3.429   1.115   6.576  1.7295  2.4145 -0.8904
   25SAPC   H3Y 3342   3.304   1.259   6.557  0.1688  1.1839  0.0848
   25SAPC   C34 3343   3.316   1.156   6.749  1.2957 -0.3589  0.0809
   25SAPC   H4X 3344   3.390   1.087   6.796  0.6999 -2.1766 -1.5001
   25SAPC   H4Y 3345   3.233   1.086   6.727  0.3058  0.8020  0.0161
   25SAPC   C35 3346   3.272   1.263   6.843  0.2010  0.3089 -0.0872
   25SAPC   H5X 3347   3.211   1.339   6.788 -1.2566 -1.0227 -0.3884
   25SAPC   H5Y 3348   3.359   1.311   6.892 -0.3689  0.9299  0.3319
   25SAPC   C36 3349   3.183   1.198   6.950  0.3495  0.2340  0.2826
   25SAPC   H6X 3350   3.226   1.100   6.978 -2.0749 -0.7075  0.9703
   25SAPC   H6Y 3351   3.078   1.181   6.915  0.5819  0.7628 -0.7191
   25SAPC   C37 3352   3.165   1.289   7.072 -0.2974 -0.3261 -0.0522
   25SAPC   H7X 3353   3.080   1.246   7.129  0.2704 -0.6579  0.5648
   25SAPC   H7Y 3354   3.123   1.391   7.055  0.5703  0.1645  0.6607
   25SAPC   C38 3355   3.278   1.301   7.170  0.1553 -0.4386  0.9147
   25SAPC   H8X 3356   3.346   1.378   7.129 -1.4481  0.1487 -0.7705
   25SAPC   H8Y 3357   3.336   1.207   7.175  0.6491 -0.4305 -2.4573
   25SAPC   C39 3358   3.228   1.360   7.307  0.1988 -0.1837 -0.0157
   25SAPC   H9X 3359   3.165   1.449   7.287  0.1100  0.2653  2.0525
   25SAPC   H9Y 3360   3.320   1.398   7.356  1.9054 -3.3451 -0.4827
   25SAPC  C310 3361   3.160   1.267   7.401  0.0442  0.8582 -0.6685
   25SAPC  H10X 3362   3.227   1.186   7.437 -0.3824  0.5537 -0.5543
   25SAPC  H10Y 3363   3.076   1.222   7.344  0.2899  1.0353 -1.1674
   25SAPC  C311 3364   3.092   1.334   7.530  0.6805  0.0010 -0.4325
   25SAPC  H11X 3365   3.031   1.263   7.591  1.1350  0.9023  1.1204
   25SAPC  H11Y 3366   3.027   1.423   7.510 -0.3132 -0.8106 -0.9268
   25SAPC  C312 3367   3.208   1.383   7.626  0.0994  0.3574  0.4667
   25SAPC  H12X 3368   3.249   1.477   7.582 -2.0041  0.9135 -0.4738
   25SAPC  H12Y 3369   3.290   1.309   7.632  0.1507  0.3756  0.0459
   25SAPC  C313 3370   3.152   1.400   7.769 -0.3638  1.4618  0.2873
   25SAPC  H13X 3371   3.235   1.420   7.840 -1.3841  2.2138  1.2950
   25SAPC  H13Y 3372   3.116   1.302   7.808 -0.1977  0.9823 -0.7313
   25SAPC  C314 3373   3.042   1.496   7.787  0.1010 -0.2416 -0.0277
   25SAPC  H14X 3374   2.949   1.470   7.733  0.5797 -0.4749 -0.7537
   25SAPC  H14Y 3375   3.079   1.590   7.740  1.0747 -0.1824  0.8115
   25SAPC  C315 3376   2.999   1.521   7.940  0.1543  0.4249  0.0642
   25SAPC  H15X 3377   2.991   1.419   7.983 -1.0627  1.0994  1.5331
   25SAPC  H15Y 3378   2.900   1.570   7.949  0.7253  1.6210 -0.0226
   25SAPC  C316 3379   3.100   1.608   8.017 -0.3461  0.4252 -0.3348
   25SAPC  H16X 3380   3.132   1.699   7.962 -1.0807  0.7037 -0.3089
   25SAPC  H16Y 3381   3.185   1.537   8.026 -1.2688 -0.5784  0.7463
   25SAPC  C317 3382   3.060   1.638   8.167  0.2746  0.0756 -0.2584
   25SAPC  H17X 3383   2.962   1.691   8.165  0.6117  0.7947  1.1542
   25SAPC  H17Y 3384   3.136   1.709   8.206 -1.0493  0.8021  1.1003
   25SAPC  C318 3385   3.037   1.520   8.261 -0.1664 -0.4632  0.0309
   25SAPC  H18X 3386   2.931   1.489   8.246 -0.9342  2.5820 -1.6852
   25SAPC  H18Y 3387   3.051   1.543   8.369  1.2921  3.6832 -0.8451
   25SAPC  H18Z 3388   3.110   1.441   8.235  2.6075  2.5182 -2.0326
   26SAPC     N 3389   3.264   2.668   6.206 -0.5262 -0.1819  0.1284
   26SAPC   C12 3390   3.200   2.783   6.120 -0.0189 -0.8291  0.0420
   26SAPC  H12A 3391   3.142   2.732   6.043  1.6511 -4.4605  0.9509
   26SAPC  H12B 3392   3.284   2.832   6.074 -0.5282  0.8648  0.8639
   26SAPC   C13 3393   3.360   2.590   6.121  0.1559  0.2723  1.1350
   26SAPC  H13A 3394   3.305   2.538   6.044 -2.0949  0.4655  2.5135
   26SAPC  H13B 3395   3.436   2.653   6.079 -0.6072  1.1658  1.0725
   26SAPC  H13C 3396   3.404   2.511   6.181  0.5926 -0.6896 -0.4053
   26SAPC   C14 3397   3.338   2.733   6.324 -0.2187  0.9160 -0.3317
   26SAPC  H14A 3398   3.264   2.783   6.385 -0.6128 -1.3330  1.1450
   26SAPC  H14B 3399   3.362   2.664   6.403  0.5355  0.9238 -0.5482
   26SAPC  H14C 3400   3.425   2.791   6.297  2.3187 -2.5933 -0.3311
   26SAPC   C15 3401   3.156   2.577   6.250 -0.2275  0.1108 -0.2200
   26SAPC  H15A 3402   3.191   2.517   6.332  0.7210  0.3248 -0.4638
   26SAPC  H15B 3403   3.079   2.640   6.290 -0.3052 -0.0261 -0.1516
   26SAPC  H15C 3404   3.126   2.511   6.169  0.1750  0.0572 -0.3285
   26SAPC   C11 3405   3.103   2.883   6.184 -0.0982 -0.0083 -0.1220
   26SAPC  H11A 3406   3.036   2.828   6.254 -1.2824  0.1596 -1.0926
   26SAPC  H11B 3407   3.031   2.925   6.111 -1.4299 -1.7698  0.1169
   26SAPC     P 3408   3.238   3.096   6.204  0.1819  0.0910  0.3528
   26SAPC   O13 3409   3.301   3.051   6.079 -0.0671 -0.3961  0.3792
   26SAPC   O14 3410   3.155   3.218   6.198 -0.2133  0.0171  0.2138
   26SAPC   O12 3411   3.161   2.981   6.268 -0.0419 -0.3890 -0.4745
   26SAPC   O11 3412   3.354   3.131   6.309 -0.5682 -0.7212 -0.2755
   26SAPC    C1 3413   3.344   3.080   6.440  0.9503  0.2414  0.5633
   26SAPC    HA 3414   3.254   3.132   6.479 -0.2166  0.2983 -1.9831
   26SAPC    HB 3415   3.340   2.969   6.443 -2.6601  0.2390  0.5841
   26SAPC    C2 3416   3.462   3.123   6.529 -0.2239  0.1992  0.3368
   26SAPC    HS 3417   3.549   3.067   6.487 -0.8271  1.0027 -2.1624
   26SAPC   O21 3418   3.430   3.090   6.671  0.1458 -0.6951  0.6433
   26SAPC   C21 3419   3.542   3.068   6.740 -0.2868  0.3930 -0.1997
   26SAPC   O22 3420   3.653   3.083   6.700  0.2004 -0.3174  0.1122
   26SAPC   C22 3421   3.499   3.019   6.884 -0.2256  0.3980  1.5459
   26SAPC   H2R 3422   3.388   3.016   6.878 -0.1858  0.6425  0.4522
   26SAPC   H2S 3423   3.537   2.914   6.883 -0.6432  0.1929  3.7348
   26SAPC    C3 3424   3.508   3.268   6.514  0.6141  0.0842 -0.2725
   26SAPC    HX 3425   3.528   3.281   6.405 -1.3452  0.2059 -0.6457
   26SAPC    HY 3426   3.599   3.273   6.577 -0.9735 -3.8951  2.7616
   26SAPC   O31 3427   3.407   3.362   6.555  0.5245 -0.2676 -0.0195
   26SAPC   C31 3428   3.421   3.416   6.682 -0.9186 -0.2718  0.0234
   26SAPC   O32 3429   3.507   3.387   6.756  0.0966 -0.2139  0.5093
   26SAPC   C32 3430   3.298   3.500   6.709 -0.2989 -0.4743  0.3081
   26SAPC   H2X 3431   3.271   3.478   6.814  0.9368 -1.1117  0.5083
   26SAPC   H2Y 3432   3.203   3.463   6.663 -0.5869  0.4084  0.1849
   26SAPC   C23 3433   3.539   3.097   7.003  0.3293 -0.4611 -0.6058
   26SAPC   H3R 3434   3.468   3.183   7.003 -0.3781 -1.0209  0.4010
   26SAPC   H3S 3435   3.640   3.137   6.979 -0.7125  0.8744 -3.2526
   26SAPC   C24 3436   3.529   3.019   7.136 -0.0606  0.5009  0.2482
   26SAPC   H4R 3437   3.556   3.094   7.213 -0.1146 -0.2252  0.9817
   26SAPC   H4S 3438   3.600   2.933   7.135 -0.1709  0.3906  1.2194
   26SAPC   C25 3439   3.395   2.952   7.162 -0.1539 -0.8253 -0.5530
   26SAPC   H5R 3440   3.347   2.890   7.085 -1.3085  0.9391 -1.3126
   26SAPC   C26 3441   3.320   2.973   7.271 -0.0560 -0.7970  1.1343
   26SAPC   H6R 3442   3.224   2.921   7.264 -1.9174  2.5744 -2.7095
   26SAPC   C27 3443   3.343   3.050   7.399  0.8202  0.4021  0.1412
   26SAPC   H7R 3444   3.261   3.122   7.420  1.2201  0.8538  0.1719
   26SAPC   H7S 3445   3.430   3.119   7.392 -0.0082  1.5604  0.9198
   26SAPC   C28 3446   3.344   2.949   7.517  0.1925 -0.0902 -0.5137
   26SAPC   H8R 3447   3.329   2.842   7.496  0.2662 -0.1410 -0.3090
   26SAPC   C29 3448   3.361   2.988   7.645 -1.1175 -0.3043 -0.0899
   26SAPC   H9R 3449   3.364   2.908   7.721 -0.5432 -1.3585 -1.2022
   26SAPC  C210 3450   3.367   3.139   7.694 -0.5457 -0.4453  0.0236
   26SAPC  H10R 3451   3.265   3.167   7.729 -0.7701 -0.7425 -0.3835
   26SAPC  H10S 3452   3.382   3.216   7.615  1.2316  2.2028  2.7326
   26SAPC  C211 3453   3.480   3.167   7.790 -0.4427  0.6085 -0.2900
   26SAPC  H11R 3454   3.582   3.185   7.753  0.6052  0.3297  2.2675
   26SAPC  C212 3455   3.456   3.172   7.925 -0.5017  0.4630  0.1886
   26SAPC  H12R 3456   3.545   3.190   7.987 -0.1642 -0.7822  0.0974
   26SAPC  C213 3457   3.328   3.159   8.004 -0.2598  0.0398 -0.4074
   26SAPC  H13R 3458   3.275   3.061   8.003 -3.9231  1.8075  0.8583
   26SAPC  H13S 3459   3.255   3.228   7.955  0.6450 -0.5833 -2.7835
   26SAPC  C214 3460   3.341   3.190   8.147  0.5020 -0.3270  0.0367
   26SAPC  H14R 3461   3.388   3.110   8.206  0.9362 -0.1445 -0.0539
   26SAPC  C215 3462   3.320   3.308   8.208 -0.2738 -0.1898  0.3671
   26SAPC  H15R 3463   3.328   3.309   8.317 -2.1985  0.1602  0.5305
   26SAPC  C216 3464   3.288   3.437   8.149  0.1573  0.5730 -0.3880
   26SAPC  H16R 3465   3.306   3.423   8.040 -0.6214 -0.5578 -0.3941
   26SAPC  H16S 3466   3.356   3.514   8.191 -0.0394  0.8697 -0.6037
   26SAPC  C217 3467   3.152   3.486   8.176  0.5290 -0.1435  0.7633
   26SAPC  H17R 3468   3.084   3.398   8.168 -0.1748  0.5052 -0.6298
   26SAPC  H17S 3469   3.114   3.552   8.096  1.0740 -2.4119 -1.4851
   26SAPC  C218 3470   3.124   3.553   8.310  0.1583  0.3194  0.6330
   26SAPC  H18R 3471   3.173   3.652   8.312  1.7316 -0.3970 -0.3104
   26SAPC  H18S 3472   3.164   3.484   8.388  0.4298  2.5630  2.5792
   26SAPC  C219 3473   2.981   3.578   8.346  0.4432 -0.3919 -0.2495
   26SAPC  H19R 3474   2.939   3.654   8.276  1.3436  1.9583  1.6178
   26SAPC  H19S 3475   2.966   3.619   8.448  1.2178 -2.0983  0.5881
   26SAPC  C220 3476   2.888   3.458   8.328  0.2414 -0.0535  0.0638
   26SAPC  H20R 3477   2.895   3.420   8.224  1.2916 -0.7683  0.3733
   26SAPC  H20S 3478   2.783   3.491   8.347  0.0586 -0.0508 -0.9146
   26SAPC  H20T 3479   2.915   3.379   8.402  0.7021 -1.5643 -1.6498
   26SAPC   C33 3480   3.323   3.653   6.673 -0.0215 -0.1493 -1.3187
   26SAPC   H3X 3481   3.225   3.704   6.684  0.8236  0.9683  2.2914
   26SAPC   H3Y 3482   3.356   3.656   6.566 -0.2116 -0.7820 -1.3997
   26SAPC   C34 3483   3.413   3.733   6.769 -0.8108 -0.0557 -0.0431
   26SAPC   H4X 3484   3.414   3.838   6.732  1.1282  0.4489  1.3061
   26SAPC   H4Y 3485   3.521   3.712   6.753 -0.5009 -0.5682  2.4119
   26SAPC   C35 3486   3.373   3.721   6.921 -0.1929  0.0464  0.0911
   26SAPC   H5X 3487   3.405   3.620   6.955  0.1524  0.4019  0.8316
   26SAPC   H5Y 3488   3.262   3.730   6.925 -0.1588  1.3473 -1.1724
   26SAPC   C36 3489   3.429   3.825   7.013  0.1881  0.5541 -0.2611
   26SAPC   H6X 3490   3.399   3.929   6.989  0.0156  0.8525  1.1356
   26SAPC   H6Y 3491   3.538   3.821   6.992  0.2597  0.1669  0.1722
   26SAPC   C37 3492   3.392   3.791   7.161  0.1412 -0.1230 -0.0586
   26SAPC   H7X 3493   3.418   3.687   7.189 -0.8728 -0.7010 -1.1866
   26SAPC   H7Y 3494   3.281   3.787   7.153  0.1151 -0.5086  0.5165
   26SAPC   C38 3495   3.423   3.905   7.264 -0.8190  0.3078 -0.0439
   26SAPC   H8X 3496   3.392   4.008   7.237  1.2226  1.2885  1.0992
   26SAPC   H8Y 3497   3.534   3.910   7.269 -0.3914 -4.2790 -0.2253
   26SAPC   C39 3498   3.375   3.870   7.402  0.3602  0.1274 -0.1059
   26SAPC   H9X 3499   3.413   3.766   7.416 -3.2368 -1.2269  0.6688
   26SAPC   H9Y 3500   3.265   3.865   7.388  0.1080  2.5276  0.6066
   26SAPC  C310 3501   3.422   3.955   7.524 -0.5489 -0.7218  0.2868
   26SAPC  H10X 3502   3.382   4.057   7.509 -1.3964 -0.8128  1.7105
   26SAPC  H10Y 3503   3.532   3.958   7.541 -0.7415 -1.5799  1.8573
   26SAPC  C311 3504   3.373   3.898   7.657  0.3919  0.0957 -0.3937
   26SAPC  H11X 3505   3.422   3.799   7.668  1.0177  0.6489  2.4376
   26SAPC  H11Y 3506   3.262   3.894   7.647  0.3397  0.9760 -0.2322
   26SAPC  C312 3507   3.411   3.973   7.780  0.0430 -0.3889 -0.1813
   26SAPC  H12X 3508   3.374   4.078   7.774  1.6544  0.1340 -2.3241
   26SAPC  H12Y 3509   3.522   3.978   7.784 -0.0293  1.5083  1.1994
   26SAPC  C313 3510   3.351   3.908   7.909  0.4640 -0.0346 -0.0352
   26SAPC  H13X 3511   3.375   3.801   7.892  1.2884 -0.0742  1.2496
   26SAPC  H13Y 3512   3.241   3.923   7.915 -0.1925 -3.4499 -1.3279
   26SAPC  C314 3513   3.415   3.947   8.046  0.4406 -0.4014  0.6433
   26SAPC  H14X 3514   3.410   4.057   8.061 -1.0345 -0.2781 -0.5159
   26SAPC  H14Y 3515   3.524   3.924   8.049  1.3850  3.3765  3.5926
   26SAPC  C315 3516   3.351   3.870   8.168  0.4039 -1.0108  1.2600
   26SAPC  H15X 3517   3.346   3.765   8.134 -2.4703 -0.8751  1.0257
   26SAPC  H15Y 3518   3.247   3.909   8.172  0.7091  0.2774 -1.2221
   26SAPC  C316 3519   3.423   3.889   8.299  0.3286 -0.5325  0.2859
   26SAPC  H16X 3520   3.407   3.994   8.332 -0.4644 -0.8673  1.0079
   26SAPC  H16Y 3521   3.529   3.876   8.269 -0.4610 -0.7116 -2.6901
   26SAPC  C317 3522   3.386   3.786   8.412 -0.1565 -0.1179 -0.4970
   26SAPC  H17X 3523   3.404   3.684   8.373 -2.4306 -0.9031  0.3169
   26SAPC  H17Y 3524   3.277   3.793   8.435  0.5547 -0.0538  3.6557
   26SAPC  C318 3525   3.465   3.812   8.545 -0.0357 -0.0813  0.9270
   26SAPC  H18X 3526   3.576   3.803   8.535  0.2609  1.0459  2.8116
   26SAPC  H18Y 3527   3.440   3.741   8.626 -0.1880  0.7199  1.5962
   26SAPC  H18Z 3528   3.438   3.916   8.574 -3.4028 -0.2145 -1.1454
   27SAPC     N 3529   6.291   0.986   6.697 -1.1792  0.5412 -0.1838
   27SAPC   C12 3530   6.254   0.839   6.709 -0.0460 -1.2142 -0.0258
   27SAPC  H12A 3531   6.167   0.826   6.772 -1.0873 -1.8191 -1.5250
   27SAPC  H12B 3532   6.335   0.800   6.768  0.9579  2.3343  1.2228
   27SAPC   C13 3533   6.193   1.078   6.649  0.3655 -0.9140  0.2350
   27SAPC  H13A 3534   6.161   1.059   6.547 -0.9830 -1.0496  0.6573
   27SAPC  H13B 3535   6.108   1.066   6.715  0.4121  0.2549  0.5334
   27SAPC  H13C 3536   6.232   1.179   6.651 -1.2566 -0.2575  0.3109
   27SAPC   C14 3537   6.343   1.031   6.836  0.6106 -0.0233  0.7126
   27SAPC  H14A 3538   6.348   1.139   6.833  1.3818 -0.0811 -0.7392
   27SAPC  H14B 3539   6.270   1.004   6.912 -0.2929  1.7375  0.5280
   27SAPC  H14C 3540   6.440   0.989   6.853  0.4612 -1.6318 -1.9673
   27SAPC   C15 3541   6.408   1.006   6.608  0.2170 -0.3332 -0.0677
   27SAPC  H15A 3542   6.392   0.963   6.510  0.3883  1.0677 -0.7418
   27SAPC  H15B 3543   6.434   1.110   6.594  0.3973  0.4984  4.9219
   27SAPC  H15C 3544   6.496   0.950   6.636  0.9923 -0.5166 -2.5545
   27SAPC   C11 3545   6.215   0.759   6.583  0.6257  0.0878 -0.3451
   27SAPC  H11A 3546   6.203   0.656   6.625  0.4027 -0.3371 -1.4146
   27SAPC  H11B 3547   6.302   0.761   6.514  0.9985  2.7247  0.1243
   27SAPC     P 3548   5.947   0.796   6.564 -0.1515  0.2046 -0.1052
   27SAPC   O13 3549   5.870   0.917   6.513  0.1344  0.0754  0.7467
   27SAPC   O14 3550   5.896   0.664   6.523  0.2101 -0.2573 -0.0166
   27SAPC   O12 3551   6.102   0.815   6.520  0.3808  0.3008 -0.0074
   27SAPC   O11 3552   5.952   0.794   6.724  0.3258  0.2579  0.8847
   27SAPC    C1 3553   5.840   0.852   6.787 -0.3423  0.0098 -0.5054
   27SAPC    HA 3554   5.793   0.938   6.736 -1.2924  0.0477  0.4112
   27SAPC    HB 3555   5.756   0.780   6.793 -0.9977  0.8727  1.2791
   27SAPC    C2 3556   5.892   0.902   6.920  1.2262 -0.2211  0.7258
   27SAPC    HS 3557   5.800   0.920   6.980 -0.1084  1.2815 -1.5976
   27SAPC   O21 3558   5.964   1.021   6.908  0.0775 -0.5571 -0.1340
   27SAPC   C21 3559   5.903   1.133   6.883  0.4612 -0.1135 -0.0827
   27SAPC   O22 3560   5.780   1.142   6.865  0.0851  0.0355 -0.6300
   27SAPC   C22 3561   5.999   1.246   6.862 -0.5615  0.2857 -0.0244
   27SAPC   H2R 3562   6.098   1.219   6.904 -1.4173 -1.1756  1.2011
   27SAPC   H2S 3563   5.998   1.257   6.752  0.3106 -1.9698 -0.3244
   27SAPC    C3 3564   5.970   0.786   6.999  0.4718  0.0234  0.3983
   27SAPC    HX 3565   6.055   0.749   6.938  1.3904  1.5696  0.6720
   27SAPC    HY 3566   5.902   0.699   7.007  0.0432  0.3833  0.6680
   27SAPC   O31 3567   6.017   0.830   7.131  1.0313  0.2456 -0.3291
   27SAPC   C31 3568   6.142   0.867   7.144 -0.2127 -0.7250 -0.4896
   27SAPC   O32 3569   6.223   0.879   7.055  1.2925  0.2569 -0.1834
   27SAPC   C32 3570   6.168   0.878   7.295  0.6077  0.7337 -0.1758
   27SAPC   H2X 3571   6.094   0.820   7.354  1.1365  1.7358  1.5422
   27SAPC   H2Y 3572   6.135   0.981   7.321 -1.6856  0.1200 -0.4453
   27SAPC   C23 3573   5.951   1.374   6.922  0.3408  0.1634  0.2453
   27SAPC   H3R 3574   5.846   1.409   6.921  1.0802  2.5229 -0.0021
   27SAPC   H3S 3575   5.987   1.454   6.854 -0.3198 -0.6505 -1.1125
   27SAPC   C24 3576   6.001   1.414   7.071 -0.1306  0.1990  0.3094
   27SAPC   H4R 3577   5.975   1.334   7.144 -1.1608 -0.1109 -0.3694
   27SAPC   H4S 3578   5.946   1.501   7.113  3.3079  1.6296  2.1614
   27SAPC   C25 3579   6.148   1.443   7.057  0.1293  0.6983 -0.4854
   27SAPC   H5R 3580   6.179   1.497   6.966  1.5289  0.1581 -0.3578
   27SAPC   C26 3581   6.239   1.408   7.155  0.9063 -0.2885  0.4573
   27SAPC   H6R 3582   6.346   1.428   7.140  0.8955 -0.4778  0.1033
   27SAPC   C27 3583   6.207   1.338   7.288  0.7048  0.1036 -0.1659
   27SAPC   H7R 3584   6.110   1.284   7.286  0.1708  1.0455 -1.2933
   27SAPC   H7S 3585   6.199   1.423   7.359 -0.5786 -1.0446  1.1290
   27SAPC   C28 3586   6.301   1.232   7.325 -0.1814 -0.4366  0.0071
   27SAPC   H8R 3587   6.322   1.151   7.253 -1.0082  0.7893 -1.6948
   27SAPC   C29 3588   6.344   1.212   7.451 -0.2617  0.0860 -0.2840
   27SAPC   H9R 3589   6.424   1.137   7.464  0.0296  0.0812 -1.8793
   27SAPC  C210 3590   6.300   1.291   7.580 -0.7331 -0.0737  0.7817
   27SAPC  H10R 3591   6.198   1.261   7.612  0.3757 -1.4189  3.3259
   27SAPC  H10S 3592   6.300   1.399   7.551 -0.2082  0.4408  2.5832
   27SAPC  C211 3593   6.401   1.264   7.694  0.0029  0.5094  1.0678
   27SAPC  H11R 3594   6.502   1.280   7.654 -0.3448 -0.5729 -0.3355
   27SAPC  C212 3595   6.377   1.230   7.819 -0.0359 -0.4591 -0.2235
   27SAPC  H12R 3596   6.463   1.229   7.887  1.9605 -0.0188 -2.6146
   27SAPC  C213 3597   6.243   1.205   7.882 -0.2238 -0.2246  0.0094
   27SAPC  H13R 3598   6.266   1.147   7.974 -0.5527  0.2505  0.3934
   27SAPC  H13S 3599   6.184   1.149   7.807  1.4460 -0.6720 -1.0132
   27SAPC  C214 3600   6.172   1.333   7.915 -0.0276  0.1236  0.0821
   27SAPC  H14R 3601   6.134   1.382   7.824  2.7001 -1.6137 -2.1741
   27SAPC  C215 3602   6.139   1.375   8.039 -0.6187  0.2567 -0.1028
   27SAPC  H15R 3603   6.106   1.479   8.048 -1.9954 -0.0935 -0.8230
   27SAPC  C216 3604   6.165   1.304   8.173 -0.1612 -0.6196  0.4076
   27SAPC  H16R 3605   6.209   1.383   8.237 -1.0904  0.1864  0.0689
   27SAPC  H16S 3606   6.244   1.226   8.179  0.2523 -0.0833  4.2245
   27SAPC  C217 3607   6.031   1.249   8.226  0.7921 -0.0578 -0.2819
   27SAPC  H17R 3608   5.960   1.205   8.153  0.0370  1.0699 -0.2489
   27SAPC  H17S 3609   5.979   1.340   8.261 -0.4396 -1.0039  0.4261
   27SAPC  C218 3610   6.056   1.135   8.323  0.1197 -0.3645  0.2290
   27SAPC  H18R 3611   5.965   1.122   8.385 -0.3669  2.3589  0.2259
   27SAPC  H18S 3612   6.134   1.160   8.398 -0.8990  0.2779  1.1116
   27SAPC  C219 3613   6.077   1.001   8.254  0.7608 -0.3067 -0.2313
   27SAPC  H19R 3614   6.157   1.017   8.177  1.2470 -2.3806 -0.2042
   27SAPC  H19S 3615   5.977   0.981   8.210 -0.5168  1.7720  1.5313
   27SAPC  C220 3616   6.105   0.883   8.349  0.7070  0.3102  0.4547
   27SAPC  H20R 3617   6.012   0.823   8.359 -0.8459  2.7446  1.3998
   27SAPC  H20S 3618   6.138   0.927   8.446 -1.2763 -0.3398  1.4912
   27SAPC  H20T 3619   6.178   0.811   8.305 -0.3278  0.5010 -1.7181
   27SAPC   C33 3620   6.317   0.862   7.321  0.1130  0.1163  0.0016
   27SAPC   H3X 3621   6.390   0.936   7.284  0.5781 -0.6061 -0.5667
   27SAPC   H3Y 3622   6.362   0.775   7.268 -0.8371 -0.5577  0.2524
   27SAPC   C34 3623   6.341   0.833   7.466  0.2303 -0.9486 -0.1838
   27SAPC   H4X 3624   6.285   0.745   7.504 -2.7357  0.7704 -0.2353
   27SAPC   H4Y 3625   6.305   0.923   7.521  0.7356 -0.8998  0.0727
   27SAPC   C35 3626   6.490   0.821   7.493 -0.1005 -0.4677 -0.5237
   27SAPC   H5X 3627   6.537   0.919   7.467  0.0481 -0.2267  0.5875
   27SAPC   H5Y 3628   6.531   0.742   7.427  0.7456  0.3514 -1.0149
   27SAPC   C36 3629   6.539   0.796   7.635 -0.0322  0.0196  0.4285
   27SAPC   H6X 3630   6.647   0.774   7.621 -0.1666 -0.6526  0.3980
   27SAPC   H6Y 3631   6.496   0.701   7.673 -1.7854  0.5116 -0.1797
   27SAPC   C37 3632   6.530   0.901   7.738  0.6151 -0.5208  0.9389
   27SAPC   H7X 3633   6.423   0.925   7.750  0.5137 -0.1092 -0.5510
   27SAPC   H7Y 3634   6.580   0.990   7.694  0.4471 -1.3638 -1.0976
   27SAPC   C38 3635   6.590   0.850   7.866 -0.0374 -0.5439  0.2638
   27SAPC   H8X 3636   6.699   0.830   7.867 -0.1756 -1.3678  1.7524
   27SAPC   H8Y 3637   6.542   0.753   7.892  0.8844 -0.9659  0.4167
   27SAPC   C39 3638   6.561   0.945   7.984  0.4460  0.0264 -0.2117
   27SAPC   H9X 3639   6.451   0.943   7.998  0.2676  1.2716 -1.2700
   27SAPC   H9Y 3640   6.595   1.048   7.962  0.6911  0.5870  2.4714
   27SAPC  C310 3641   6.611   0.904   8.122 -0.2262 -0.5998  0.7450
   27SAPC  H10X 3642   6.614   0.794   8.132  1.5275 -0.8891 -1.8920
   27SAPC  H10Y 3643   6.549   0.949   8.202  1.2350  0.4676  1.3236
   27SAPC  C311 3644   6.753   0.963   8.155  0.6208  0.4971 -0.1223
   27SAPC  H11X 3645   6.751   1.070   8.125  2.6770  0.2965 -1.1614
   27SAPC  H11Y 3646   6.825   0.897   8.103  1.6883  1.3534  0.2257
   27SAPC  C312 3647   6.781   0.961   8.302  0.1325  0.4271 -0.0023
   27SAPC  H12X 3648   6.744   0.867   8.348  0.7341 -1.0376 -2.3485
   27SAPC  H12Y 3649   6.717   1.042   8.343 -0.3218  0.0392  0.0669
   27SAPC  C313 3650   6.933   0.987   8.352 -0.0303  0.1588  0.3391
   27SAPC  H13X 3651   6.948   1.092   8.321  1.7172 -0.7333 -2.1979
   27SAPC  H13Y 3652   7.010   0.927   8.299  1.7912  3.5210 -1.1253
   27SAPC  C314 3653   6.962   0.976   8.500  0.0690  0.2647 -0.2116
   27SAPC  H14X 3654   6.960   0.869   8.531 -0.7982  0.1301 -0.7038
   27SAPC  H14Y 3655   6.878   1.022   8.556  0.1429 -0.7898  0.8286
   27SAPC  C315 3656   7.088   1.054   8.543  0.3531  0.1389 -0.6739
   27SAPC  H15X 3657   7.064   1.160   8.522 -1.7195 -0.0122  0.6613
   27SAPC  H15Y 3658   7.179   1.016   8.492  0.5769 -1.8849  1.1202
   27SAPC  C316 3659   7.133   1.046   8.692  0.5297 -0.6563  0.3425
   27SAPC  H16X 3660   7.154   0.940   8.714  0.4311 -0.6447  0.5000
   27SAPC  H16Y 3661   7.043   1.080   8.749  0.3732  0.4429 -0.5237
   27SAPC  C317 3662   7.257   1.130   8.714 -0.3725  0.1480 -0.1061
   27SAPC  H17X 3663   7.248   1.151   8.823  0.1692  3.1298 -0.5638
   27SAPC  H17Y 3664   7.264   1.229   8.665  1.1316 -0.0176 -0.2821
   27SAPC  C318 3665   7.389   1.048   8.685 -0.0066  0.2170  0.2102
   27SAPC  H18X 3666   7.400   0.966   8.760 -0.3266  0.0393  0.0618
   27SAPC  H18Y 3667   7.479   1.112   8.694  1.4068 -1.3958 -1.4721
   27SAPC  H18Z 3668   7.395   1.005   8.583  1.5700 -2.2131  1.2224
   28SAPC     N 3669   5.368   4.377   6.372  0.6880  0.1092  0.6934
   28SAPC   C12 3670   5.235   4.453   6.397  0.2699 -0.2726  0.0174
   28SAPC  H12A 3671   5.160   4.375   6.401  1.3712 -1.3438  0.4243
   28SAPC  H12B 3672   5.218   4.523   6.317 -0.9455 -1.9421 -1.2658
   28SAPC   C13 3673   5.380   4.316   6.238  0.3466  0.1065  0.0886
   28SAPC  H13A 3674   5.462   4.246   6.242  0.3161  0.1127  1.6812
   28SAPC  H13B 3675   5.287   4.276   6.199  0.9853 -1.9261  0.5129
   28SAPC  H13C 3676   5.420   4.391   6.173 -0.9494  1.8353  1.1878
   28SAPC   C14 3677   5.485   4.463   6.395 -0.6065 -0.3254 -0.2289
   28SAPC  H14A 3678   5.472   4.559   6.348 -2.1036 -1.8308 -3.1299
   28SAPC  H14B 3679   5.485   4.478   6.502  1.3378 -2.0038  0.0794
   28SAPC  H14C 3680   5.576   4.408   6.375 -0.5512 -1.1090  1.9292
   28SAPC   C15 3681   5.371   4.268   6.468 -0.5086 -0.3871  0.2071
   28SAPC  H15A 3682   5.356   4.300   6.570 -1.1425  1.9375 -0.5509
   28SAPC  H15B 3683   5.293   4.194   6.453  0.4090 -1.4089  0.3685
   28SAPC  H15C 3684   5.462   4.212   6.454  0.1515  0.9530 -1.1635
   28SAPC   C11 3685   5.234   4.536   6.527  0.1617  0.3558  0.5205
   28SAPC  H11A 3686   5.275   4.468   6.605  2.7892  2.2400  0.9142
   28SAPC  H11B 3687   5.132   4.558   6.565 -1.2629 -0.2230 -2.6997
   28SAPC     P 3688   5.266   4.779   6.447  0.5367 -0.1367 -0.1334
   28SAPC   O13 3689   5.384   4.860   6.404  0.2177 -0.1913  0.3309
   28SAPC   O14 3690   5.164   4.761   6.344 -0.1935 -0.0262  0.0927
   28SAPC   O12 3691   5.312   4.650   6.523 -0.1998 -0.1604  0.4261
   28SAPC   O11 3692   5.190   4.872   6.556  0.9967  0.1267  0.0709
   28SAPC    C1 3693   5.190   4.846   6.698  0.4518 -0.4230  0.3827
   28SAPC    HA 3694   5.092   4.868   6.747  0.2998 -0.9425  0.3154
   28SAPC    HB 3695   5.211   4.738   6.716 -0.2615 -0.2702  2.4525
   28SAPC    C2 3696   5.299   4.935   6.770  0.8029 -0.3170  0.1367
   28SAPC    HS 3697   5.397   4.910   6.722  0.4921 -1.4993  0.0889
   28SAPC   O21 3698   5.298   4.912   6.912  0.4075 -0.2001  0.6636
   28SAPC   C21 3699   5.414   4.921   6.973 -0.1271  0.5002  0.2339
   28SAPC   O22 3700   5.524   4.914   6.919 -0.1570 -0.0150 -0.8881
   28SAPC   C22 3701   5.385   4.937   7.122  0.3037  0.5928  0.0629
   28SAPC   H2R 3702   5.430   5.031   7.162  0.3640  0.3604  0.5476
   28SAPC   H2S 3703   5.275   4.931   7.139  0.0323 -1.3026 -1.9344
   28SAPC    C3 3704   5.271   5.085   6.744  0.0735 -0.2897 -0.4075
   28SAPC    HX 3705   5.166   5.097   6.778 -0.6415 -1.3665 -2.1084
   28SAPC    HY 3706   5.283   5.114   6.637  0.4880 -1.4724 -0.6992
   28SAPC   O31 3707   5.358   5.162   6.832  0.5719  0.0002  0.0811
   28SAPC   C31 3708   5.448   5.242   6.775  0.5372  0.1501 -0.0964
   28SAPC   O32 3709   5.471   5.247   6.654 -0.8767 -0.1886  0.0613
   28SAPC   C32 3710   5.519   5.310   6.893 -0.8144 -0.2026 -0.2304
   28SAPC   H2X 3711   5.465   5.406   6.907 -0.3187 -0.0798  1.0040
   28SAPC   H2Y 3712   5.620   5.345   6.863 -1.4575  0.5803 -1.5346
   28SAPC   C23 3713   5.447   4.821   7.205  0.1119  0.2964  0.2079
   28SAPC   H3R 3714   5.557   4.828   7.188 -0.0180 -1.2904 -1.6001
   28SAPC   H3S 3715   5.404   4.731   7.157 -0.6110  0.7319  0.0330
   28SAPC   C24 3716   5.427   4.824   7.358  0.3602 -0.0694 -0.3093
   28SAPC   H4R 3717   5.442   4.929   7.391 -0.1668 -0.1367  0.1568
   28SAPC   H4S 3718   5.321   4.807   7.386  0.5686 -0.5278  0.2474
   28SAPC   C25 3719   5.508   4.721   7.436 -0.5875  0.1843  0.2337
   28SAPC   H5R 3720   5.617   4.736   7.449 -0.1429 -0.9466 -1.7299
   28SAPC   C26 3721   5.475   4.591   7.460  0.5701 -0.2622 -0.1592
   28SAPC   H6R 3722   5.552   4.531   7.511 -1.5009 -1.3426  1.8774
   28SAPC   C27 3723   5.349   4.514   7.420  0.1067 -0.0055 -0.7464
   28SAPC   H7R 3724   5.373   4.492   7.314  1.2065 -0.0174 -0.5096
   28SAPC   H7S 3725   5.262   4.583   7.432 -0.1038 -0.7046  3.0959
   28SAPC   C28 3726   5.338   4.385   7.501  0.0484  0.0936 -0.7166
   28SAPC   H8R 3727   5.368   4.295   7.445 -2.4963 -2.2587  1.4424
   28SAPC   C29 3728   5.281   4.374   7.626  0.3721  0.8777  0.1744
   28SAPC   H9R 3729   5.276   4.269   7.660 -1.5774  0.1858 -1.9173
   28SAPC  C210 3730   5.217   4.488   7.703 -0.6039  0.5592  0.8196
   28SAPC  H10R 3731   5.155   4.431   7.776 -1.5369 -0.0007 -0.3788
   28SAPC  H10S 3732   5.152   4.542   7.631  1.0697  1.6833  0.0958
   28SAPC  C211 3733   5.293   4.592   7.779  1.0838 -0.2349 -0.5718
   28SAPC  H11R 3734   5.354   4.643   7.703  0.0600 -1.6288 -2.4389
   28SAPC  C212 3735   5.295   4.612   7.916 -0.4020  0.2284 -0.4521
   28SAPC  H12R 3736   5.365   4.689   7.954 -0.6793  0.6625 -0.8153
   28SAPC  C213 3737   5.223   4.535   8.023  0.3762 -0.8812  0.2975
   28SAPC  H13R 3738   5.240   4.426   8.022 -0.5518 -1.0420 -0.7428
   28SAPC  H13S 3739   5.117   4.558   7.998  0.6618  0.2755  0.0750
   28SAPC  C214 3740   5.246   4.588   8.163  0.5757  0.5734 -0.6264
   28SAPC  H14R 3741   5.159   4.645   8.201  0.0457 -0.1748 -0.7008
   28SAPC  C215 3742   5.364   4.572   8.227 -0.1180  0.7109  0.3529
   28SAPC  H15R 3743   5.362   4.616   8.328 -2.6841  0.8103  0.3273
   28SAPC  C216 3744   5.488   4.501   8.187 -0.5135  0.3383  0.3012
   28SAPC  H16R 3745   5.482   4.452   8.087 -1.3138  2.0396 -0.5357
   28SAPC  H16S 3746   5.517   4.426   8.262 -1.1291  1.3645  1.6067
   28SAPC  C217 3747   5.606   4.598   8.155  1.1501  0.9981  0.1962
   28SAPC  H17R 3748   5.575   4.698   8.194  1.2982  0.1610  2.6032
   28SAPC  H17S 3749   5.628   4.618   8.048  2.2415  0.2492  0.2668
   28SAPC  C218 3750   5.737   4.569   8.228 -0.1440 -0.4201 -0.8454
   28SAPC  H18R 3751   5.819   4.637   8.196 -0.2742 -0.8309 -2.0896
   28SAPC  H18S 3752   5.767   4.467   8.198 -1.0893 -1.0153  0.1589
   28SAPC  C219 3753   5.724   4.575   8.383  0.2912  0.3492 -0.4801
   28SAPC  H19R 3754   5.644   4.505   8.416  1.4201 -0.3506  0.8766
   28SAPC  H19S 3755   5.709   4.683   8.404  0.6792  0.8593 -2.6552
   28SAPC  C220 3756   5.850   4.522   8.457 -0.3663 -0.1562  0.1066
   28SAPC  H20R 3757   5.824   4.514   8.565 -4.8755  0.0454 -0.7633
   28SAPC  H20S 3758   5.939   4.584   8.434 -0.2595 -0.8695 -1.5960
   28SAPC  H20T 3759   5.879   4.419   8.425 -0.4909 -0.4098  0.8016
   28SAPC   C33 3760   5.504   5.258   7.032 -0.1530  0.8491  0.1530
   28SAPC   H3X 3761   5.571   5.172   7.053  0.2794  0.7650 -1.4403
   28SAPC   H3Y 3762   5.403   5.216   7.048 -0.4761  0.4592 -2.4416
   28SAPC   C34 3763   5.553   5.362   7.129  0.0668  0.1378  0.1780
   28SAPC   H4X 3764   5.473   5.437   7.143 -0.2023  0.1589 -1.3008
   28SAPC   H4Y 3765   5.634   5.415   7.075  0.2713  1.4465  1.7027
   28SAPC   C35 3766   5.601   5.300   7.260  0.2769  0.0753 -0.4267
   28SAPC   H5X 3767   5.684   5.227   7.250 -0.2993 -0.4017 -2.3517
   28SAPC   H5Y 3768   5.528   5.232   7.310  0.6496  0.9289  1.3128
   28SAPC   C36 3769   5.647   5.402   7.366 -0.0524  0.5434 -0.4234
   28SAPC   H6X 3770   5.565   5.474   7.387 -0.1370 -0.0173  1.3834
   28SAPC   H6Y 3771   5.735   5.465   7.340 -1.1410  2.0613 -0.5557
   28SAPC   C37 3772   5.681   5.334   7.500 -0.6268  0.5223 -0.6161
   28SAPC   H7X 3773   5.768   5.268   7.480 -1.0969 -0.1812 -0.3380
   28SAPC   H7Y 3774   5.593   5.277   7.535 -2.5233  3.5761 -0.0651
   28SAPC   C38 3775   5.711   5.424   7.620  0.4516 -0.7868 -0.5117
   28SAPC   H8X 3776   5.634   5.505   7.621  0.9286 -0.3205 -0.8577
   28SAPC   H8Y 3777   5.808   5.477   7.607 -1.8380  3.8045 -1.2779
   28SAPC   C39 3778   5.716   5.358   7.755 -0.1615  0.3194  0.3330
   28SAPC   H9X 3779   5.808   5.297   7.749  1.0133  2.0515 -0.0727
   28SAPC   H9Y 3780   5.626   5.293   7.767 -1.0362  1.5563  0.7092
   28SAPC  C310 3781   5.727   5.471   7.862 -0.0128 -0.3950 -0.6588
   28SAPC  H10X 3782   5.632   5.527   7.847 -0.3389 -0.8721 -0.4185
   28SAPC  H10Y 3783   5.809   5.544   7.847  1.6275 -2.2176 -0.9333
   28SAPC  C311 3784   5.704   5.425   8.013 -0.0529  0.1717  0.6328
   28SAPC  H11X 3785   5.787   5.359   8.049 -1.2195 -0.9087  1.4281
   28SAPC  H11Y 3786   5.612   5.364   8.011 -0.8525  1.3563 -1.0262
   28SAPC  C312 3787   5.675   5.539   8.113 -0.4729  0.4094  0.0880
   28SAPC  H12X 3788   5.612   5.609   8.055  0.4497 -0.5750 -2.2275
   28SAPC  H12Y 3789   5.772   5.594   8.117 -0.3219  0.3897 -2.0691
   28SAPC  C313 3790   5.609   5.499   8.248  1.2332  0.4200 -0.6134
   28SAPC  H13X 3791   5.524   5.432   8.222 -0.7004  1.9517  1.3701
   28SAPC  H13Y 3792   5.547   5.589   8.270  1.2860  0.5127 -0.8460
   28SAPC  C314 3793   5.692   5.445   8.364  0.0937 -0.0085  0.2217
   28SAPC  H14X 3794   5.758   5.361   8.333  0.6844  0.8817 -1.0207
   28SAPC  H14Y 3795   5.613   5.425   8.440 -0.3646 -1.3494 -0.5708
   28SAPC  C315 3796   5.788   5.556   8.417  0.0920 -0.0437 -0.0921
   28SAPC  H15X 3797   5.870   5.595   8.354  1.1311  0.3689  1.4658
   28SAPC  H15Y 3798   5.844   5.511   8.501 -0.6867  0.7156  0.8533
   28SAPC  C316 3799   5.716   5.671   8.473 -0.2097  0.2567 -0.3005
   28SAPC  H16X 3800   5.623   5.640   8.526  0.3701 -0.9209  0.0633
   28SAPC  H16Y 3801   5.694   5.746   8.395 -0.6593  0.1003 -0.3292
   28SAPC  C317 3802   5.800   5.749   8.576 -0.4356  0.3097 -0.0393
   28SAPC  H17X 3803   5.903   5.769   8.540 -0.2537 -1.1778 -0.4249
   28SAPC  H17Y 3804   5.805   5.675   8.659 -1.2769 -0.4574 -0.6539
   28SAPC  C318 3805   5.734   5.877   8.627  0.1523  0.8993 -0.9171
   28SAPC  H18X 3806   5.623   5.876   8.638  0.3211  0.7501  1.1482
   28SAPC  H18Y 3807   5.754   5.968   8.567 -1.2778  1.1010 -1.1305
   28SAPC  H18Z 3808   5.776   5.910   8.724 -2.7162  0.5292  0.5634
   29SAPC     N 3809   1.813   1.295   5.879  0.9731  0.4222  0.3290
   29SAPC   C12 3810   1.708   1.299   5.990 -0.2864 -0.2217 -0.7016
   29SAPC  H12A 3811   1.678   1.197   6.009  0.6334 -0.7795 -2.1419
   29SAPC  H12B 3812   1.624   1.355   5.951  0.9510  1.3379 -1.2091
   29SAPC   C13 3813   1.917   1.190   5.901 -0.7439 -0.4568  0.0958
   29SAPC  H13A 3814   1.969   1.197   5.995 -2.1476 -1.2922  0.9657
   29SAPC  H13B 3815   1.875   1.090   5.903  0.0581 -0.8085 -0.2560
   29SAPC  H13C 3816   1.982   1.184   5.815 -1.1455 -0.2639 -0.2258
   29SAPC   C14 3817   1.737   1.251   5.754 -0.0096  0.4223  0.6699
   29SAPC  H14A 3818   1.694   1.152   5.760 -0.0994  0.2032 -2.4045
   29SAPC  H14B 3819   1.659   1.320   5.727  1.6173  1.9748 -0.2403
   29SAPC  H14C 3820   1.807   1.253   5.672 -0.6772  0.3646  0.1002
   29SAPC   C15 3821   1.882   1.425   5.842  0.1480  0.6824 -0.1347
   29SAPC  H15A 3822   1.946   1.413   5.756 -0.4202  1.7279 -0.7124
   29SAPC  H15B 3823   1.806   1.500   5.829 -0.2190 -0.1722 -4.2668
   29SAPC  H15C 3824   1.955   1.453   5.917  1.1799  2.2025 -1.6287
   29SAPC   C11 3825   1.745   1.373   6.122  0.0840  0.3908 -0.2616
   29SAPC  H11A 3826   1.846   1.342   6.157  1.0053  2.3878 -1.0002
   29SAPC  H11B 3827   1.688   1.349   6.214  1.6912 -1.4129  0.3234
   29SAPC     P 3828   1.871   1.616   6.146  0.1574 -0.4685  0.4233
   29SAPC   O13 3829   2.000   1.560   6.101 -0.2054  0.0293  0.2371
   29SAPC   O14 3830   1.846   1.760   6.114 -0.0741  0.2223 -0.2649
   29SAPC   O12 3831   1.748   1.517   6.098  0.1581  0.3172  0.6491
   29SAPC   O11 3832   1.850   1.588   6.303  0.2030  0.1388  0.1961
   29SAPC    C1 3833   1.734   1.627   6.375  0.4580 -0.2772 -0.4471
   29SAPC    HA 3834   1.646   1.624   6.308 -1.1447 -1.8362  1.5912
   29SAPC    HB 3835   1.730   1.555   6.460  0.8774  1.9566  1.5760
   29SAPC    C2 3836   1.754   1.770   6.439  0.5797 -1.0442 -0.2235
   29SAPC    HS 3837   1.781   1.847   6.363  0.1786 -0.1718  0.5006
   29SAPC   O21 3838   1.856   1.751   6.527 -0.0854 -0.2759 -0.9955
   29SAPC   C21 3839   1.943   1.847   6.537  0.5259  0.3904  0.1455
   29SAPC   O22 3840   1.937   1.955   6.487  0.7581 -0.3002 -0.2172
   29SAPC   C22 3841   2.067   1.806   6.616 -0.0710 -0.3954  0.5774
   29SAPC   H2R 3842   2.152   1.828   6.547  0.2703 -0.6041  0.9263
   29SAPC   H2S 3843   2.075   1.879   6.699  3.0972  1.6575 -1.3171
   29SAPC    C3 3844   1.622   1.833   6.506 -0.3200  0.1027  0.1753
   29SAPC    HX 3845   1.557   1.858   6.420  1.0719  1.5349 -0.5129
   29SAPC    HY 3846   1.642   1.929   6.560 -0.7408  0.6620 -0.6429
   29SAPC   O31 3847   1.554   1.744   6.601  0.3014  0.1075 -0.0482
   29SAPC   C31 3848   1.588   1.754   6.732  0.5328  0.3620 -0.9295
   29SAPC   O32 3849   1.671   1.832   6.767 -0.2487 -0.6385  0.4304
   29SAPC   C32 3850   1.504   1.657   6.819  0.3073 -0.0832  0.3677
   29SAPC   H2X 3851   1.576   1.580   6.854  0.0538  0.1030  1.3390
   29SAPC   H2Y 3852   1.425   1.610   6.756  0.5200  0.4553 -0.3024
   29SAPC   C23 3853   2.067   1.663   6.674  0.3186  0.2378 -0.0759
   29SAPC   H3R 3854   2.025   1.594   6.598 -1.0113  1.5549 -0.5860
   29SAPC   H3S 3855   2.006   1.660   6.766 -0.6599 -0.0742 -0.7163
   29SAPC   C24 3856   2.218   1.629   6.700 -0.8186  0.5704  0.9086
   29SAPC   H4R 3857   2.274   1.600   6.608 -0.0105 -3.8459  2.5635
   29SAPC   H4S 3858   2.207   1.524   6.734 -0.5656  0.4784  0.7049
   29SAPC   C25 3859   2.273   1.715   6.811 -0.3006 -0.2224  0.1866
   29SAPC   H5R 3860   2.294   1.819   6.783 -1.3372  0.3792  1.5117
   29SAPC   C26 3861   2.292   1.672   6.935  0.4310  0.4811 -0.4913
   29SAPC   H6R 3862   2.326   1.744   7.011  1.1730 -0.3933  0.0206
   29SAPC   C27 3863   2.252   1.533   6.994  0.2800 -0.0691  0.0060
   29SAPC   H7R 3864   2.291   1.455   6.925  1.6705  0.8406 -0.2809
   29SAPC   H7S 3865   2.141   1.525   7.002  0.0895  1.8113 -0.2655
   29SAPC   C28 3866   2.313   1.525   7.135  0.1634  0.2775 -0.0118
   29SAPC   H8R 3867   2.422   1.537   7.126  0.0749  0.0680 -1.9365
   29SAPC   C29 3868   2.252   1.473   7.247  0.0510 -0.1310 -0.1438
   29SAPC   H9R 3869   2.310   1.483   7.340 -0.3179  1.9120 -0.0877
   29SAPC  C210 3870   2.111   1.425   7.247  0.4134 -0.0618 -0.7547
   29SAPC  H10R 3871   2.079   1.364   7.159  0.5488  0.5972 -1.2688
   29SAPC  H10S 3872   2.057   1.519   7.223  3.1808  1.0558 -3.2439
   29SAPC  C211 3873   2.057   1.376   7.385  1.1153 -0.1539 -0.1451
   29SAPC  H11R 3874   2.118   1.363   7.476 -2.1030 -0.1034  2.2176
   29SAPC  C212 3875   1.927   1.337   7.405 -0.8073 -0.0558 -0.1747
   29SAPC  H12R 3876   1.892   1.313   7.507  1.9329 -1.5106  0.5317
   29SAPC  C213 3877   1.822   1.337   7.300  0.0856  0.1677 -0.3916
   29SAPC  H13R 3878   1.817   1.434   7.246  0.3298  0.1114 -0.5177
   29SAPC  H13S 3879   1.730   1.331   7.362  1.5173 -1.2226  1.7329
   29SAPC  C214 3880   1.860   1.223   7.201  0.0520  0.6064  0.4187
   29SAPC  H14R 3881   1.916   1.137   7.241  1.0926  1.0996  0.0534
   29SAPC  C215 3882   1.822   1.229   7.069 -0.2713  0.8775  0.3482
   29SAPC  H15R 3883   1.840   1.141   7.006  2.1563  1.4760  0.1230
   29SAPC  C216 3884   1.747   1.340   7.001 -0.1976 -0.5145  0.4742
   29SAPC  H16R 3885   1.744   1.436   7.057  2.1078  0.0554 -0.2604
   29SAPC  H16S 3886   1.646   1.310   6.965 -0.5579  0.2019  0.8581
   29SAPC  C217 3887   1.835   1.369   6.869  0.0121 -0.1628  0.0860
   29SAPC  H17R 3888   1.941   1.385   6.900 -0.0930  0.7928 -0.0115
   29SAPC  H17S 3889   1.797   1.462   6.822 -0.1386 -0.9419 -1.3823
   29SAPC  C218 3890   1.839   1.263   6.761  0.5433  0.2988 -0.8349
   29SAPC  H18R 3891   1.736   1.270   6.720 -0.4389  1.5559  1.6906
   29SAPC  H18S 3892   1.852   1.162   6.806 -1.9449  0.1527 -0.2849
   29SAPC  C219 3893   1.948   1.280   6.651 -0.2192 -0.0296 -0.1956
   29SAPC  H19R 3894   2.051   1.262   6.688 -0.0401  0.0982 -0.6233
   29SAPC  H19S 3895   1.949   1.387   6.621  1.4056  0.5381  1.7258
   29SAPC  C220 3896   1.916   1.207   6.521 -0.4626 -0.5065  0.5076
   29SAPC  H20R 3897   1.807   1.208   6.497 -0.3500 -0.2160 -0.0061
   29SAPC  H20S 3898   1.957   1.104   6.530 -0.0523 -0.4320 -0.4657
   29SAPC  H20T 3899   1.961   1.245   6.427  1.0767 -1.7180  0.7229
   29SAPC   C33 3900   1.449   1.718   6.952 -0.0651 -0.1397 -0.5263
   29SAPC   H3X 3901   1.351   1.762   6.924 -0.3667 -0.8737 -0.6448
   29SAPC   H3Y 3902   1.509   1.804   6.987  1.2727 -0.6365 -1.4778
   29SAPC   C34 3903   1.461   1.604   7.061 -1.1228  0.1806  0.5916
   29SAPC   H4X 3904   1.555   1.550   7.038 -0.3330  1.8784 -0.4099
   29SAPC   H4Y 3905   1.385   1.527   7.039  2.6066 -2.9750 -3.0845
   29SAPC   C35 3906   1.466   1.652   7.211  0.3058 -0.4507  0.7545
   29SAPC   H5X 3907   1.363   1.687   7.236 -0.8271 -1.4508 -2.0626
   29SAPC   H5Y 3908   1.540   1.732   7.232  1.7147 -1.6997  0.6671
   29SAPC   C36 3909   1.494   1.535   7.303 -0.1477 -0.1944  0.1078
   29SAPC   H6X 3910   1.581   1.475   7.269  0.1999  0.1480  0.3740
   29SAPC   H6Y 3911   1.400   1.476   7.309 -0.3658  0.1153 -0.1998
   29SAPC   C37 3912   1.540   1.569   7.449 -0.0157 -0.2917 -0.7587
   29SAPC   H7X 3913   1.626   1.640   7.446  1.5922 -1.9824  1.4492
   29SAPC   H7Y 3914   1.591   1.474   7.478 -0.4012 -0.0544  0.7996
   29SAPC   C38 3915   1.429   1.602   7.544  0.3261  0.0442 -1.1015
   29SAPC   H8X 3916   1.350   1.525   7.530  1.0447 -1.1058  0.7328
   29SAPC   H8Y 3917   1.369   1.692   7.519 -1.2873 -0.7154 -0.1232
   29SAPC   C39 3918   1.472   1.588   7.693 -0.2750  0.1507  0.7439
   29SAPC   H9X 3919   1.565   1.648   7.706 -0.9209  0.7401  3.0231
   29SAPC   H9Y 3920   1.508   1.484   7.710  0.6466  0.3925  0.3356
   29SAPC  C310 3921   1.363   1.627   7.801 -0.5854 -0.1476  1.0460
   29SAPC  H10X 3922   1.273   1.563   7.801 -1.0502  0.4492 -0.7330
   29SAPC  H10Y 3923   1.336   1.732   7.778  0.9921 -0.0075 -0.4229
   29SAPC  C311 3924   1.437   1.619   7.936  0.5145 -0.1989 -0.5351
   29SAPC  H11X 3925   1.523   1.690   7.934  1.2433 -0.9316  1.4444
   29SAPC  H11Y 3926   1.480   1.517   7.949  0.6436 -0.3577 -2.0584
   29SAPC  C312 3927   1.338   1.643   8.061  0.5127 -0.7461  0.6089
   29SAPC  H12X 3928   1.262   1.563   8.071 -1.3061  0.6582 -1.0978
   29SAPC  H12Y 3929   1.281   1.733   8.027  1.5025 -0.9066 -1.6677
   29SAPC  C313 3930   1.405   1.654   8.196  0.5707 -0.4612 -0.1388
   29SAPC  H13X 3931   1.483   1.578   8.216  1.7399  0.6782 -0.2876
   29SAPC  H13Y 3932   1.325   1.638   8.272  0.1087  0.1601 -0.4824
   29SAPC  C314 3933   1.471   1.781   8.229 -0.2210  0.4529 -0.2297
   29SAPC  H14X 3934   1.406   1.864   8.195 -2.2113 -1.1926 -0.6065
   29SAPC  H14Y 3935   1.567   1.797   8.174 -0.0356 -0.4368 -0.1708
   29SAPC  C315 3936   1.495   1.796   8.376 -0.1141 -0.0869 -0.7304
   29SAPC  H15X 3937   1.435   1.734   8.445 -0.1373  1.4078  0.6671
   29SAPC  H15Y 3938   1.469   1.901   8.401 -0.4455  0.0301 -1.5455
   29SAPC  C316 3939   1.647   1.781   8.405  0.4079  0.3170  0.0153
   29SAPC  H16X 3940   1.702   1.844   8.332 -1.3657 -0.5102 -2.1361
   29SAPC  H16Y 3941   1.673   1.675   8.381 -0.3484  0.6649 -2.6717
   29SAPC  C317 3942   1.692   1.802   8.547  0.1769 -0.0012  1.1331
   29SAPC  H17X 3943   1.661   1.906   8.571 -0.0919 -0.0675  1.0759
   29SAPC  H17Y 3944   1.802   1.796   8.553  0.1542  0.2635  1.8969
   29SAPC  C318 3945   1.652   1.691   8.649 -0.4430 -0.3466  0.2740
   29SAPC  H18X 3946   1.696   1.589   8.638  0.3073 -0.3152  2.4507
   29SAPC  H18Y 3947   1.541   1.698   8.651 -0.5376 -0.4508 -2.0172
   29SAPC  H18Z 3948   1.681   1.714   8.754  0.3735  0.6047 -0.1393
   30SAPC     N 3949   3.615   4.402   6.015  0.0044 -0.5132  0.5761
   30SAPC   C12 3950   3.695   4.515   6.089  0.5541 -0.0660  0.1734
   30SAPC  H12A 3951   3.703   4.602   6.025  0.5852 -1.1610 -1.3692
   30SAPC  H12B 3952   3.797   4.483   6.100  0.6139 -0.1016 -0.4544
   30SAPC   C13 3953   3.695   4.360   5.890  0.4962  0.6413  0.3195
   30SAPC  H13A 3954   3.779   4.303   5.924 -0.2196 -1.1806 -0.8563
   30SAPC  H13B 3955   3.635   4.303   5.820  2.0098 -3.0792  1.8104
   30SAPC  H13C 3956   3.730   4.447   5.836 -0.1307  0.5546 -0.2437
   30SAPC   C14 3957   3.594   4.290   6.109 -0.2243 -0.3125  0.3616
   30SAPC  H14A 3958   3.683   4.279   6.168 -0.6398  2.0748  1.5246
   30SAPC  H14B 3959   3.527   4.320   6.188  0.3495  1.8230  0.0851
   30SAPC  H14C 3960   3.575   4.195   6.060  1.4092 -0.5908  0.2272
   30SAPC   C15 3961   3.487   4.460   5.983  0.0096  0.3804 -0.0627
   30SAPC  H15A 3962   3.492   4.542   5.912 -0.8173 -1.4404 -2.3413
   30SAPC  H15B 3963   3.413   4.390   5.948  0.9042 -1.4995  1.6153
   30SAPC  H15C 3964   3.444   4.488   6.077 -0.0627 -2.4558  0.8366
   30SAPC   C11 3965   3.637   4.559   6.224 -0.0395  0.6351  0.1733
   30SAPC  H11A 3966   3.713   4.628   6.269 -1.2952  0.7589  2.2658
   30SAPC  H11B 3967   3.631   4.473   6.293 -0.6467  2.3009  2.3318
   30SAPC     P 3968   3.482   4.772   6.221  0.0111  0.2637  0.0147
   30SAPC   O13 3969   3.576   4.822   6.120 -0.2092  0.1715  0.0993
   30SAPC   O14 3970   3.337   4.798   6.193 -0.3859 -0.0845 -0.4185
   30SAPC   O12 3971   3.514   4.617   6.234 -0.5264 -0.0958  0.5306
   30SAPC   O11 3972   3.515   4.819   6.369  0.0937 -0.0994 -0.7531
   30SAPC    C1 3973   3.440   4.773   6.489  0.2143 -0.0927  0.2574
   30SAPC    HA 3974   3.373   4.686   6.470  0.9546 -0.4930 -0.5930
   30SAPC    HB 3975   3.514   4.731   6.560  1.2762 -1.4952 -1.5693
   30SAPC    C2 3976   3.361   4.876   6.575  0.0904  0.0645 -0.6217
   30SAPC    HS 3977   3.276   4.911   6.513 -0.8644  1.4481  1.3653
   30SAPC   O21 3978   3.446   4.981   6.617 -0.3134 -0.0350 -0.2423
   30SAPC   C21 3979   3.386   5.085   6.671 -0.3947  0.6437  0.5192
   30SAPC   O22 3980   3.265   5.101   6.691  0.0555  0.0641 -0.3491
   30SAPC   C22 3981   3.496   5.190   6.713  0.0163 -1.2127  0.0591
   30SAPC   H2R 3982   3.536   5.230   6.618  2.4772 -1.9970  0.7040
   30SAPC   H2S 3983   3.455   5.271   6.778  1.5909  0.3322 -0.7903
   30SAPC    C3 3984   3.301   4.805   6.697  0.3933 -0.4172 -0.2409
   30SAPC    HX 3985   3.255   4.870   6.774 -0.2815 -1.8598  0.6274
   30SAPC    HY 3986   3.391   4.772   6.752 -0.8847 -1.1137  1.5300
   30SAPC   O31 3987   3.219   4.697   6.663 -0.0909  0.5720  0.0996
   30SAPC   C31 3988   3.091   4.728   6.652  0.7545  0.0933  0.1374
   30SAPC   O32 3989   3.041   4.842   6.660  0.2467  0.4618 -0.9113
   30SAPC   C32 3990   3.010   4.606   6.649  0.9085  0.1371 -0.3620
   30SAPC   H2X 3991   3.081   4.531   6.610  2.6451  2.0472 -1.0457
   30SAPC   H2Y 3992   2.924   4.626   6.581  0.3196 -0.3447  0.2235
   30SAPC   C23 3993   3.617   5.138   6.791  0.0856  0.8297  0.1065
   30SAPC   H3R 3994   3.701   5.210   6.781  0.7526 -0.1619 -1.9632
   30SAPC   H3S 3995   3.645   5.042   6.744 -0.8367  0.4466  0.3147
   30SAPC   C24 3996   3.585   5.115   6.933  0.5421 -0.1307 -0.3809
   30SAPC   H4R 3997   3.676   5.077   6.984  0.9711 -1.5354 -2.0770
   30SAPC   H4S 3998   3.508   5.035   6.941  0.4903  0.0601  1.2902
   30SAPC   C25 3999   3.549   5.229   7.030  0.5702 -0.3168  0.1207
   30SAPC   H5R 4000   3.540   5.327   6.981 -0.2753  0.0720  1.0163
   30SAPC   C26 4001   3.556   5.240   7.167  0.5208 -0.3702 -0.0133
   30SAPC   H6R 4002   3.527   5.334   7.216  2.9091 -0.4500  1.7129
   30SAPC   C27 4003   3.595   5.130   7.262 -0.6374 -0.4265 -0.6333
   30SAPC   H7R 4004   3.670   5.066   7.212  0.3662 -1.8803  2.4556
   30SAPC   H7S 4005   3.520   5.053   7.291  0.5066 -0.9784  1.0202
   30SAPC   C28 4006   3.661   5.196   7.382 -0.0118  0.2344  0.3326
   30SAPC   H8R 4007   3.744   5.264   7.361 -0.6516  0.5273 -1.4446
   30SAPC   C29 4008   3.618   5.185   7.513  0.2686 -0.6662 -0.0192
   30SAPC   H9R 4009   3.680   5.238   7.586  1.9774 -0.4438 -1.5472
   30SAPC  C210 4010   3.498   5.107   7.574 -0.7328 -0.3565  0.5273
   30SAPC  H10R 4011   3.425   5.127   7.493 -1.5985 -1.2349  1.0685
   30SAPC  H10S 4012   3.475   5.167   7.664  1.0539  0.1816  0.6551
   30SAPC  C211 4013   3.517   4.965   7.596  0.9660 -0.4288  0.2715
   30SAPC  H11R 4014   3.596   4.938   7.666 -0.8207 -0.2270  2.4879
   30SAPC  C212 4015   3.435   4.869   7.540  0.0761  0.5106  0.2490
   30SAPC  H12R 4016   3.460   4.767   7.570 -1.6176  0.0622  0.2507
   30SAPC  C213 4017   3.326   4.887   7.433  0.0919 -0.1528  0.0203
   30SAPC  H13R 4018   3.350   4.955   7.348  1.5366 -0.5544  0.0814
   30SAPC  H13S 4019   3.241   4.935   7.486  0.6476 -0.9253  1.6868
   30SAPC  C214 4020   3.293   4.749   7.379 -0.0142  0.1141  0.2737
   30SAPC  H14R 4021   3.387   4.701   7.351  1.5151  3.2495 -0.4862
   30SAPC  C215 4022   3.171   4.701   7.354 -0.3646  0.6141  0.4374
   30SAPC  H15R 4023   3.155   4.602   7.308  0.0015  0.7801 -0.0515
   30SAPC  C216 4024   3.044   4.771   7.383 -0.0278  0.0777 -0.4231
   30SAPC  H16R 4025   3.059   4.881   7.388 -0.9104  0.1457  2.4501
   30SAPC  H16S 4026   2.991   4.738   7.475 -2.8975 -0.3391 -2.1294
   30SAPC  C217 4027   2.934   4.741   7.276  0.0664 -0.4820  0.2488
   30SAPC  H17R 4028   2.844   4.793   7.316 -1.1370 -2.4507  0.2721
   30SAPC  H17S 4029   2.920   4.630   7.281  1.3982 -0.6100  1.7987
   30SAPC  C218 4030   2.959   4.782   7.134 -0.0357 -0.3229  0.2095
   30SAPC  H18R 4031   2.888   4.734   7.064  2.5028 -0.1970 -2.6487
   30SAPC  H18S 4032   3.052   4.739   7.094  0.5630  0.4658  0.7172
   30SAPC  C219 4033   2.957   4.935   7.106 -0.5398 -0.1655 -0.4220
   30SAPC  H19R 4034   3.008   5.006   7.176 -1.1262  1.2637 -1.4157
   30SAPC  H19S 4035   2.853   4.973   7.107 -0.0147  1.3920  1.4036
   30SAPC  C220 4036   3.012   4.962   6.972 -0.8130 -0.1933 -0.4504
   30SAPC  H20R 4037   3.122   4.946   6.978 -0.8138  0.2611  1.3570
   30SAPC  H20S 4038   3.002   5.070   6.947  0.7409  0.0632 -0.0376
   30SAPC  H20T 4039   2.961   4.908   6.890 -0.0670 -1.9819  0.2197
   30SAPC   C33 4040   2.955   4.540   6.774  0.4167 -0.8389 -0.1293
   30SAPC   H3X 4041   2.884   4.461   6.742  0.5689 -0.3014 -1.9317
   30SAPC   H3Y 4042   2.886   4.608   6.830  0.6848 -0.5639 -0.1317
   30SAPC   C34 4043   3.058   4.473   6.868 -0.7413  0.1067  0.5232
   30SAPC   H4X 4044   3.124   4.558   6.897 -1.3172  0.5427  0.5772
   30SAPC   H4Y 4045   3.118   4.393   6.818 -1.4862 -0.2412  0.1796
   30SAPC   C35 4046   2.981   4.410   6.982  0.4103 -0.9669 -0.3324
   30SAPC   H5X 4047   2.900   4.350   6.935 -1.4636  0.3960  1.0300
   30SAPC   H5Y 4048   2.937   4.492   7.043 -0.5093 -2.1759  0.6849
   30SAPC   C36 4049   3.075   4.335   7.073 -0.3262  0.3784 -0.2265
   30SAPC   H6X 4050   3.149   4.416   7.090  1.0053 -0.6151 -1.0163
   30SAPC   H6Y 4051   3.107   4.252   7.006  1.4249  0.9844 -0.2018
   30SAPC   C37 4052   3.014   4.285   7.203 -0.5294  0.0577 -1.0785
   30SAPC   H7X 4053   2.930   4.215   7.186  1.4202 -3.0154  0.9285
   30SAPC   H7Y 4054   2.978   4.377   7.254  2.6701  0.3538  0.9758
   30SAPC   C38 4055   3.117   4.209   7.284  0.3911  0.0259  0.4395
   30SAPC   H8X 4056   3.217   4.252   7.262 -0.3088  0.5558 -1.9703
   30SAPC   H8Y 4057   3.109   4.104   7.251 -2.3451  1.1593 -3.2346
   30SAPC   C39 4058   3.098   4.213   7.435 -0.2802 -0.5336 -0.1865
   30SAPC   H9X 4059   3.176   4.153   7.486 -0.7778 -0.7574  0.3236
   30SAPC   H9Y 4060   2.998   4.170   7.459 -0.0387 -2.5105 -2.3232
   30SAPC  C310 4061   3.097   4.356   7.484  0.1924 -0.5077  0.1424
   30SAPC  H10X 4062   3.005   4.413   7.460  0.4326 -0.1800 -0.0191
   30SAPC  H10Y 4063   3.183   4.397   7.426  0.3078 -1.2654 -0.2369
   30SAPC  C311 4064   3.116   4.361   7.633 -0.0892 -0.6810 -0.6276
   30SAPC  H11X 4065   3.204   4.302   7.665 -0.5214 -1.7587 -1.3882
   30SAPC  H11Y 4066   3.031   4.301   7.673 -1.2178  1.3788  0.2522
   30SAPC  C312 4067   3.106   4.501   7.691 -0.3688  0.3849  0.3250
   30SAPC  H12X 4068   3.001   4.539   7.693 -0.5676 -0.1631  1.5020
   30SAPC  H12Y 4069   3.170   4.578   7.644  1.3189 -1.5209 -0.6156
   30SAPC  C313 4070   3.156   4.494   7.842 -0.0740 -0.2105  0.3596
   30SAPC  H13X 4071   3.263   4.468   7.828 -0.6318 -2.2613 -0.4511
   30SAPC  H13Y 4072   3.092   4.412   7.880 -1.8147  0.4104 -1.0836
   30SAPC  C314 4073   3.133   4.624   7.919  0.0657  0.1592  0.2843
   30SAPC  H14X 4074   3.024   4.644   7.933  0.1439  0.3956  0.5706
   30SAPC  H14Y 4075   3.174   4.708   7.859 -1.1983  0.6398  0.0403
   30SAPC  C315 4076   3.183   4.628   8.058 -0.0800 -0.7249 -0.0780
   30SAPC  H15X 4077   3.180   4.732   8.095 -0.4990 -1.9651  3.8572
   30SAPC  H15Y 4078   3.290   4.595   8.058  0.1517 -0.0632  1.7608
   30SAPC  C316 4079   3.102   4.544   8.148  0.8302  0.6501  0.2329
   30SAPC  H16X 4080   3.099   4.442   8.104  1.8649  0.3428  0.8429
   30SAPC  H16Y 4081   2.996   4.577   8.149  0.8691  0.8501 -0.7140
   30SAPC  C317 4082   3.165   4.519   8.274  0.0109 -0.7390 -1.0882
   30SAPC  H17X 4083   3.274   4.495   8.267  0.3466 -0.7229  2.2854
   30SAPC  H17Y 4084   3.124   4.434   8.331  2.1376 -1.3070 -0.2942
   30SAPC  C318 4085   3.169   4.643   8.368  0.0922  0.6303 -0.2263
   30SAPC  H18X 4086   3.068   4.681   8.396 -0.6689 -0.4210 -1.4124
   30SAPC  H18Y 4087   3.224   4.726   8.318  0.7650  1.8553  2.3686
   30SAPC  H18Z 4088   3.217   4.613   8.463  2.6616 -0.4181 -1.7603
   31SAPC     N 4089   4.308   3.646   6.460 -0.2250  0.2139  0.3689
   31SAPC   C12 4090   4.170   3.670   6.405  0.3682 -0.4813 -0.2693
   31SAPC  H12A 4091   4.127   3.752   6.462  3.0565 -0.1761  1.4941
   31SAPC  H12B 4092   4.118   3.576   6.416  0.8050 -0.6067  0.9859
   31SAPC   C13 4093   4.373   3.776   6.467  0.7389  0.1485 -0.2536
   31SAPC  H13A 4094   4.357   3.839   6.380  0.6590  0.0648 -0.2999
   31SAPC  H13B 4095   4.336   3.829   6.554  0.9869  2.3661 -1.4182
   31SAPC  H13C 4096   4.478   3.758   6.477  0.3398 -1.4341  1.6641
   31SAPC   C14 4097   4.305   3.583   6.592 -0.0080 -0.5028  0.2987
   31SAPC  H14A 4098   4.409   3.561   6.616 -0.1305 -0.9067  0.4663
   31SAPC  H14B 4099   4.267   3.643   6.674  0.2128  0.6458 -0.4204
   31SAPC  H14C 4100   4.254   3.488   6.586 -1.4723  0.1394  1.7315
   31SAPC   C15 4101   4.383   3.559   6.365 -0.8483 -0.2694  0.5838
   31SAPC  H15A 4102   4.489   3.570   6.377 -0.8437  1.2285 -0.5387
   31SAPC  H15B 4103   4.364   3.453   6.374  1.3539 -0.6154  1.6439
   31SAPC  H15C 4104   4.369   3.593   6.263 -1.3293 -0.4215  0.5949
   31SAPC   C11 4105   4.159   3.730   6.260  0.4502  0.0508 -0.0950
   31SAPC  H11A 4106   4.057   3.721   6.218 -0.4058 -0.4726  1.9394
   31SAPC  H11B 4107   4.223   3.674   6.189  0.6764 -0.3952  0.4561
   31SAPC     P 4108   4.141   3.993   6.325  0.1200 -0.3652 -0.2039
   31SAPC   O13 4109   4.225   4.109   6.286 -0.3407  0.0384  0.1126
   31SAPC   O14 4110   3.996   4.007   6.304 -0.3162  0.3669  0.1016
   31SAPC   O12 4111   4.206   3.865   6.261 -0.2734 -0.5995 -0.2653
   31SAPC   O11 4112   4.164   3.972   6.481  0.0391 -0.6536 -0.4165
   31SAPC    C1 4113   4.155   4.085   6.566  0.7027  0.4443 -0.0056
   31SAPC    HA 4114   4.230   4.163   6.544  0.1338  1.1690  0.5948
   31SAPC    HB 4115   4.059   4.141   6.569  2.4096  3.5499  1.9580
   31SAPC    C2 4116   4.197   4.033   6.711  0.1163  0.7289 -0.1569
   31SAPC    HS 4117   4.180   4.107   6.792  2.0362 -1.1729  2.1257
   31SAPC   O21 4118   4.338   3.998   6.710  0.1938 -0.0340 -0.0897
   31SAPC   C21 4119   4.421   4.104   6.707  0.9802 -0.3716 -0.0469
   31SAPC   O22 4120   4.391   4.223   6.713  0.0188  0.1690 -0.3982
   31SAPC   C22 4121   4.567   4.067   6.710  1.0263  0.5167  0.1121
   31SAPC   H2R 4122   4.576   3.988   6.632  0.5224  1.3774 -0.8495
   31SAPC   H2S 4123   4.626   4.160   6.689  0.1955  1.2940  1.1329
   31SAPC    C3 4124   4.108   3.916   6.752 -0.2442  0.3613 -0.3126
   31SAPC    HX 4125   4.129   3.827   6.688 -2.1990 -0.1961 -0.2529
   31SAPC    HY 4126   4.001   3.942   6.735  0.0030  1.3599 -0.3716
   31SAPC   O31 4127   4.124   3.884   6.891  0.0291  0.2296  0.0240
   31SAPC   C31 4128   4.216   3.796   6.924 -0.2474  0.3266 -0.1871
   31SAPC   O32 4129   4.287   3.730   6.849  0.3155 -0.3818 -0.0793
   31SAPC   C32 4130   4.247   3.807   7.074  0.9534 -0.2016  0.9904
   31SAPC   H2X 4131   4.259   3.916   7.095 -0.2715  0.1198  0.0596
   31SAPC   H2Y 4132   4.335   3.746   7.105  0.5095 -0.1453  2.4465
   31SAPC   C23 4133   4.614   4.011   6.847  0.0849 -0.7063  0.4056
   31SAPC   H3R 4134   4.722   3.985   6.839  0.3395  0.7377 -1.5506
   31SAPC   H3S 4135   4.553   3.926   6.883  1.0361 -0.8907  1.6481
   31SAPC   C24 4136   4.603   4.118   6.960  0.0906 -0.1824 -0.1137
   31SAPC   H4R 4137   4.494   4.122   6.983  0.1047 -0.6935  0.0620
   31SAPC   H4S 4138   4.637   4.220   6.932 -0.4251 -0.3995 -1.6324
   31SAPC   C25 4139   4.679   4.072   7.080 -0.0861  0.2248 -0.6157
   31SAPC   H5R 4140   4.665   3.965   7.098  1.3887 -0.0668 -1.1080
   31SAPC   C26 4141   4.755   4.136   7.176  0.5940  0.8033 -0.1252
   31SAPC   H6R 4142   4.768   4.077   7.267 -1.9282 -0.0572 -0.2287
   31SAPC   C27 4143   4.785   4.289   7.180  1.0307 -0.2477  0.0494
   31SAPC   H7R 4144   4.765   4.336   7.081 -0.2517  1.5837  1.1362
   31SAPC   H7S 4145   4.894   4.305   7.193  0.9044 -0.2625  1.1727
   31SAPC   C28 4146   4.696   4.348   7.296 -0.5207 -0.1454  0.9224
   31SAPC   H8R 4147   4.597   4.386   7.265 -0.9626 -3.0744 -1.7321
   31SAPC   C29 4148   4.727   4.361   7.429 -0.2106  0.1778 -0.8290
   31SAPC   H9R 4149   4.652   4.392   7.503  1.3671 -1.9481  1.8345
   31SAPC  C210 4150   4.857   4.311   7.491 -0.7769 -0.5922  0.2531
   31SAPC  H10R 4151   4.900   4.390   7.556  1.9754 -2.2185  0.5421
   31SAPC  H10S 4152   4.930   4.293   7.410 -0.7423 -0.5229  0.2688
   31SAPC  C211 4153   4.838   4.197   7.583 -0.5346  0.1092  0.2856
   31SAPC  H11R 4154   4.854   4.104   7.526 -2.0753  1.1460 -2.0109
   31SAPC  C212 4155   4.821   4.197   7.718  0.1726  0.6192  1.0892
   31SAPC  H12R 4156   4.819   4.099   7.768 -0.8669  1.1625  2.1790
   31SAPC  C213 4157   4.807   4.320   7.807 -0.1134 -0.4604 -0.7521
   31SAPC  H13R 4158   4.860   4.404   7.757 -2.4541  1.1035 -0.8167
   31SAPC  H13S 4159   4.857   4.312   7.906 -2.6442  4.6016  1.3206
   31SAPC  C214 4160   4.664   4.378   7.808 -0.4975  0.2339  0.0211
   31SAPC  H14R 4161   4.635   4.439   7.721 -2.1838 -1.2454 -0.5348
   31SAPC  C215 4162   4.578   4.366   7.915 -0.1825  0.0980  0.6820
   31SAPC  H15R 4163   4.482   4.421   7.907 -1.1305 -1.6784 -1.0811
   31SAPC  C216 4164   4.616   4.298   8.049  0.2351 -0.0267  0.2367
   31SAPC  H16R 4165   4.642   4.374   8.127 -0.6879  2.3243 -1.6282
   31SAPC  H16S 4166   4.700   4.227   8.035  0.2301  0.0028  0.0621
   31SAPC  C217 4167   4.505   4.213   8.102  0.5176 -0.3975  0.3118
   31SAPC  H17R 4168   4.496   4.117   8.048 -1.9560 -1.8752  3.0906
   31SAPC  H17S 4169   4.407   4.264   8.095  0.2089 -1.2009 -2.3756
   31SAPC  C218 4170   4.518   4.175   8.250 -0.1842 -0.2408 -0.0809
   31SAPC  H18R 4171   4.536   4.263   8.315 -1.7677 -0.1280  0.2470
   31SAPC  H18S 4172   4.604   4.105   8.257 -0.9396 -1.2506 -0.6731
   31SAPC  C219 4173   4.392   4.101   8.302 -0.1376 -0.0237 -0.6668
   31SAPC  H19R 4174   4.391   3.991   8.283 -0.2655 -0.6543  2.5293
   31SAPC  H19S 4175   4.296   4.139   8.262 -2.1882 -0.9053  3.0408
   31SAPC  C220 4176   4.365   4.115   8.454 -0.8452  0.4757 -0.1865
   31SAPC  H20R 4177   4.294   4.200   8.467 -0.5381  1.2298 -2.7935
   31SAPC  H20S 4178   4.456   4.113   8.518 -1.9529 -1.1316  1.4389
   31SAPC  H20T 4179   4.316   4.021   8.488 -1.3204  0.5964 -0.5247
   31SAPC   C33 4180   4.134   3.752   7.162 -0.4555  0.3055  0.3399
   31SAPC   H3X 4181   4.105   3.652   7.124  0.2580  0.1453  0.2031
   31SAPC   H3Y 4182   4.042   3.813   7.151 -0.7194  0.1897  1.7234
   31SAPC   C34 4183   4.178   3.740   7.310  0.6296 -0.2662 -0.1228
   31SAPC   H4X 4184   4.197   3.848   7.323  0.5333 -0.2240 -0.3391
   31SAPC   H4Y 4185   4.274   3.685   7.318  1.7456  1.6590  0.1479
   31SAPC   C35 4186   4.073   3.675   7.405  0.2480 -0.1641 -0.2002
   31SAPC   H5X 4187   4.036   3.576   7.370 -0.0606 -0.2368  0.3348
   31SAPC   H5Y 4188   3.988   3.743   7.424  3.7140  4.7549 -0.1585
   31SAPC   C36 4189   4.140   3.646   7.545 -0.2155 -0.5265 -0.8633
   31SAPC   H6X 4190   4.221   3.571   7.535 -1.1765 -2.0152  1.6174
   31SAPC   H6Y 4191   4.059   3.598   7.603  0.6124 -0.0339  0.7738
   31SAPC   C37 4192   4.196   3.765   7.638 -0.1974  0.4105 -0.4399
   31SAPC   H7X 4193   4.114   3.839   7.651  0.2594  0.6258  1.7335
   31SAPC   H7Y 4194   4.280   3.813   7.584  2.3560 -1.8558  1.2296
   31SAPC   C38 4195   4.231   3.724   7.780 -0.6541  0.4996 -0.3708
   31SAPC   H8X 4196   4.325   3.665   7.788 -1.0702 -0.1977 -0.5043
   31SAPC   H8Y 4197   4.166   3.639   7.810 -0.1201  0.0507 -0.4568
   31SAPC   C39 4198   4.234   3.834   7.888  1.0662 -0.3374  0.5482
   31SAPC   H9X 4199   4.136   3.886   7.883  2.3837  2.1446 -2.2299
   31SAPC   H9Y 4200   4.304   3.911   7.851  1.9649 -1.6900 -0.6909
   31SAPC  C310 4201   4.282   3.794   8.034  0.1582  0.6220  0.6361
   31SAPC  H10X 4202   4.220   3.705   8.059  0.9796 -0.8105 -2.0343
   31SAPC  H10Y 4203   4.271   3.870   8.114  0.2569  1.1455  0.1529
   31SAPC  C311 4204   4.426   3.739   8.025  0.2857  0.8771  0.2556
   31SAPC  H11X 4205   4.488   3.812   7.969  1.3522 -0.9262 -1.0154
   31SAPC  H11Y 4206   4.437   3.639   7.978 -0.3145  0.5952  0.6886
   31SAPC  C312 4207   4.478   3.731   8.168  0.0297 -0.1616 -0.5940
   31SAPC  H12X 4208   4.399   3.695   8.237  1.3343 -1.2130  0.3880
   31SAPC  H12Y 4209   4.517   3.830   8.197 -1.3688  0.3567 -0.3871
   31SAPC  C313 4210   4.598   3.634   8.171 -0.9755  0.0979 -0.1060
   31SAPC  H13X 4211   4.667   3.662   8.089 -2.0527 -0.6372 -1.3020
   31SAPC  H13Y 4212   4.560   3.536   8.133 -1.2712 -0.1412  0.7697
   31SAPC  C314 4213   4.660   3.618   8.310  0.6430 -0.0058  0.3522
   31SAPC  H14X 4214   4.710   3.519   8.307  2.2496  0.7633 -2.9688
   31SAPC  H14Y 4215   4.579   3.600   8.384  0.1867 -3.1559 -0.7365
   31SAPC  C315 4216   4.758   3.723   8.363  0.4932  0.1153  0.3108
   31SAPC  H15X 4217   4.714   3.823   8.347 -2.8671 -1.1841  0.5064
   31SAPC  H15Y 4218   4.848   3.712   8.298  0.0544  1.2616 -0.5208
   31SAPC  C316 4219   4.806   3.717   8.511 -0.3067  0.0969  0.3028
   31SAPC  H16X 4220   4.873   3.629   8.521  0.9672  1.1975  2.0401
   31SAPC  H16Y 4221   4.719   3.704   8.580 -2.3962 -1.4148 -2.3994
   31SAPC  C317 4222   4.890   3.844   8.564  0.2650 -0.1377  0.1834
   31SAPC  H17X 4223   4.872   3.855   8.673  1.9522 -1.3361  0.6265
   31SAPC  H17Y 4224   4.852   3.925   8.498 -2.2758 -3.0123 -2.2308
   31SAPC  C318 4225   5.042   3.830   8.554  0.3187  0.5821  0.5864
   31SAPC  H18X 4226   5.093   3.925   8.582 -0.7121  0.3430  3.6219
   31SAPC  H18Y 4227   5.071   3.795   8.453  0.7649  2.3025  0.0832
   31SAPC  H18Z 4228   5.084   3.763   8.632  0.5235 -0.1330 -0.1247
   32SAPC     N 4229   3.775   5.299   5.894  0.9010  0.3037  0.4150
   32SAPC   C12 4230   3.852   5.425   5.880 -0.8819 -0.2780  0.1046
   32SAPC  H12A 4231   3.806   5.504   5.937 -2.0175 -1.5899  1.0629
   32SAPC  H12B 4232   3.850   5.442   5.773  0.2996 -0.6904  0.0013
   32SAPC   C13 4233   3.775   5.250   6.034  0.2989  0.7739 -0.3963
   32SAPC  H13A 4234   3.735   5.331   6.094 -0.7658  1.3325 -1.7934
   32SAPC  H13B 4235   3.715   5.161   6.047 -1.6001  2.0389 -0.0574
   32SAPC  H13C 4236   3.876   5.235   6.069 -1.0377 -1.8249  2.8088
   32SAPC   C14 4237   3.639   5.312   5.844  0.3485  0.9097  0.5939
   32SAPC  H14A 4238   3.570   5.231   5.860  1.3882 -0.3515 -1.0644
   32SAPC  H14B 4239   3.588   5.395   5.892  0.7652  1.1212  0.6718
   32SAPC  H14C 4240   3.644   5.327   5.737  0.2418  1.9027  0.7132
   32SAPC   C15 4241   3.835   5.191   5.805 -0.4247  0.1757 -0.6853
   32SAPC  H15A 4242   3.845   5.227   5.703  1.4619 -1.4342 -1.1168
   32SAPC  H15B 4243   3.932   5.170   5.848 -0.6473  2.2316  0.9850
   32SAPC  H15C 4244   3.779   5.100   5.789  1.6237 -1.5970  1.5863
   32SAPC   C11 4245   3.997   5.425   5.935  0.6853 -0.6274 -0.1773
   32SAPC  H11A 4246   4.061   5.505   5.893  0.3593 -1.4364 -2.3510
   32SAPC  H11B 4247   4.042   5.328   5.905  0.1258 -0.7202 -0.7257
   32SAPC     P 4248   3.962   5.560   6.156  0.1867  0.3716  0.3506
   32SAPC   O13 4249   4.082   5.639   6.165 -0.5625  0.1389  0.1358
   32SAPC   O14 4250   3.839   5.622   6.102  0.3532 -0.7399  0.1027
   32SAPC   O12 4251   3.986   5.428   6.079 -0.2063  0.3610 -0.3655
   32SAPC   O11 4252   3.937   5.518   6.305 -0.3438 -0.1933 -0.2376
   32SAPC    C1 4253   3.821   5.445   6.346  0.5820 -0.3439 -0.0593
   32SAPC    HA 4254   3.747   5.525   6.368  0.1437 -0.3944 -1.2664
   32SAPC    HB 4255   3.778   5.387   6.261  0.1708  0.3537 -0.3323
   32SAPC    C2 4256   3.849   5.353   6.463 -0.1792  0.4663  0.4226
   32SAPC    HS 4257   3.761   5.290   6.490  0.2646 -0.6152 -0.5316
   32SAPC   O21 4258   3.890   5.424   6.574  0.2228  0.0897 -0.3281
   32SAPC   C21 4259   3.800   5.494   6.652  0.4546  0.1292 -0.4499
   32SAPC   O22 4260   3.689   5.522   6.612 -0.4374 -0.3067 -0.5471
   32SAPC   C22 4261   3.857   5.536   6.790  0.1963 -0.2302 -0.4358
   32SAPC   H2R 4262   3.948   5.476   6.814 -0.8187 -0.9641  1.9430
   32SAPC   H2S 4263   3.883   5.644   6.779 -0.9699 -0.0823 -2.0940
   32SAPC    C3 4264   3.957   5.248   6.426 -0.6823  0.3292  0.0067
   32SAPC    HX 4265   4.058   5.294   6.421 -0.6673  0.1861 -1.3410
   32SAPC    HY 4266   3.938   5.213   6.322  1.2088  1.2665 -0.7012
   32SAPC   O31 4267   3.964   5.135   6.515 -0.0875  0.6505  0.4017
   32SAPC   C31 4268   4.042   5.148   6.617 -0.5024  0.2653  0.4816
   32SAPC   O32 4269   4.115   5.242   6.638  0.0187 -0.5079  0.7054
   32SAPC   C32 4270   4.034   5.017   6.700 -0.3244  0.3493 -0.4933
   32SAPC   H2X 4271   4.074   4.937   6.633 -0.9364  0.5437 -1.1039
   32SAPC   H2Y 4272   3.924   5.001   6.709 -0.1229 -0.0512  2.0240
   32SAPC   C23 4273   3.761   5.501   6.906  0.4619  0.3400  0.3974
   32SAPC   H3R 4274   3.804   5.494   7.008 -1.0883  0.9679  1.1217
   32SAPC   H3S 4275   3.710   5.405   6.881  1.2398  0.5197 -2.2607
   32SAPC   C24 4276   3.652   5.619   6.917  0.4590  0.3614 -0.4971
   32SAPC   H4R 4277   3.599   5.638   6.821 -0.3273  0.1788 -0.1021
   32SAPC   H4S 4278   3.709   5.713   6.937 -0.5702  0.8726  0.1157
   32SAPC   C25 4279   3.550   5.594   7.027 -0.0073  0.0077 -0.4527
   32SAPC   H5R 4280   3.447   5.565   6.999 -0.3889  2.3710 -1.7494
   32SAPC   C26 4281   3.569   5.610   7.163  0.1525 -0.1316  0.0034
   32SAPC   H6R 4282   3.492   5.594   7.240  2.2338  0.2835  2.3098
   32SAPC   C27 4283   3.705   5.653   7.220 -0.1559 -1.3502 -0.3575
   32SAPC   H7R 4284   3.689   5.742   7.285 -1.2568 -0.3957 -1.8551
   32SAPC   H7S 4285   3.763   5.705   7.140  0.4864 -3.0670 -1.0450
   32SAPC   C28 4286   3.792   5.543   7.278 -0.0463  0.0306  0.7841
   32SAPC   H8R 4287   3.834   5.468   7.210  1.6149  1.7664 -0.2124
   32SAPC   C29 4288   3.815   5.531   7.408 -0.4270  0.3562  0.6379
   32SAPC   H9R 4289   3.854   5.435   7.446 -0.8371 -0.3142 -0.5752
   32SAPC  C210 4290   3.771   5.628   7.517  0.2471 -0.0952  0.0819
   32SAPC  H10R 4291   3.784   5.734   7.488 -1.0495 -0.0325 -0.3441
   32SAPC  H10S 4292   3.830   5.611   7.610  2.0788  0.5031 -0.9353
   32SAPC  C211 4293   3.627   5.599   7.551  0.5939  0.1053 -0.7425
   32SAPC  H11R 4294   3.555   5.643   7.480 -0.6413 -2.9043 -1.5073
   32SAPC  C212 4295   3.576   5.545   7.663 -0.6240 -0.6251  0.3363
   32SAPC  H12R 4296   3.467   5.554   7.678 -0.7493  1.1936 -1.3667
   32SAPC  C213 4297   3.655   5.501   7.787 -0.7991 -0.0483  0.0854
   32SAPC  H13R 4298   3.667   5.596   7.843 -1.4495  0.3172 -0.3806
   32SAPC  H13S 4299   3.756   5.471   7.752 -1.0412  0.5975 -1.2297
   32SAPC  C214 4300   3.576   5.404   7.877 -0.0830 -0.2678  0.8510
   32SAPC  H14R 4301   3.504   5.337   7.828  0.6540  0.8092 -1.8535
   32SAPC  C215 4302   3.596   5.377   8.004  0.7568  0.4757  0.1209
   32SAPC  H15R 4303   3.537   5.301   8.057  0.0814 -0.5270 -1.9616
   32SAPC  C216 4304   3.687   5.452   8.091  0.1849 -0.1568  0.1323
   32SAPC  H16R 4305   3.699   5.557   8.057 -0.7057  0.3478  1.3127
   32SAPC  H16S 4306   3.791   5.414   8.082 -0.2645 -1.9073  1.6366
   32SAPC  C217 4307   3.645   5.463   8.241 -0.2083 -0.3719  0.1920
   32SAPC  H17R 4308   3.547   5.515   8.245  0.4959  1.1233 -0.9996
   32SAPC  H17S 4309   3.713   5.528   8.301 -0.5085 -0.4666  0.6468
   32SAPC  C218 4310   3.639   5.326   8.316  0.3283  0.1257 -0.0791
   32SAPC  H18R 4311   3.734   5.274   8.294 -0.6198 -0.7474 -2.4193
   32SAPC  H18S 4312   3.555   5.265   8.276 -0.2933  0.9198 -0.0220
   32SAPC  C219 4313   3.622   5.351   8.469 -0.1424 -0.4116 -0.0139
   32SAPC  H19R 4314   3.588   5.253   8.508  0.6614 -1.2010 -1.2441
   32SAPC  H19S 4315   3.540   5.425   8.487 -2.0236 -2.2111 -0.7404
   32SAPC  C220 4316   3.748   5.395   8.544  0.5010 -1.0141  0.3158
   32SAPC  H20R 4317   3.730   5.419   8.651 -0.6857  1.6195 -0.3905
   32SAPC  H20S 4318   3.788   5.494   8.512 -1.1399  0.7783  3.3359
   32SAPC  H20T 4319   3.827   5.317   8.543 -1.0446 -2.6777  1.3573
   32SAPC   C33 4320   4.123   5.018   6.825 -0.1652  0.3893 -0.2726
   32SAPC   H3X 4321   4.219   5.069   6.802 -0.8361  1.5619 -0.5716
   32SAPC   H3Y 4322   4.152   4.917   6.860  1.0195  0.7818 -0.0653
   32SAPC   C34 4323   4.052   5.080   6.944  0.8023 -0.3507 -0.0155
   32SAPC   H4X 4324   3.962   5.019   6.967  0.8805 -0.8180 -0.9157
   32SAPC   H4Y 4325   4.015   5.184   6.934  1.5868  0.4833  4.0188
   32SAPC   C35 4326   4.141   5.076   7.070 -0.2812 -0.3182  0.9821
   32SAPC   H5X 4327   4.237   5.132   7.061 -0.8023  0.3987 -0.5804
   32SAPC   H5Y 4328   4.163   4.968   7.079 -0.6786 -0.2670  2.9161
   32SAPC   C36 4329   4.065   5.121   7.193 -0.2399 -0.9463 -0.0435
   32SAPC   H6X 4330   3.969   5.068   7.203 -1.7446  1.8561  1.6037
   32SAPC   H6Y 4331   4.037   5.228   7.181 -0.1757 -1.1721 -2.7574
   32SAPC   C37 4332   4.144   5.117   7.324 -0.6876 -0.4088 -0.2304
   32SAPC   H7X 4333   4.203   5.207   7.349  0.5310 -1.4217  0.7121
   32SAPC   H7Y 4334   4.208   5.025   7.319 -0.6742 -0.4355  0.3979
   32SAPC   C38 4335   4.049   5.087   7.440  0.0068  0.0033 -0.4047
   32SAPC   H8X 4336   4.025   4.979   7.434  1.0469 -0.2862  0.3598
   32SAPC   H8Y 4337   3.954   5.143   7.433 -0.3723 -0.5735 -0.0257
   32SAPC   C39 4338   4.114   5.100   7.582 -0.1749 -0.4824  0.4040
   32SAPC   H9X 4339   4.224   5.095   7.565 -0.4232 -0.1621 -1.4742
   32SAPC   H9Y 4340   4.084   5.012   7.643  1.4647  0.7255  3.1864
   32SAPC  C310 4341   4.074   5.234   7.653  0.8132 -0.1469 -0.0606
   32SAPC  H10X 4342   3.964   5.248   7.650  0.1546 -2.9822  3.5777
   32SAPC  H10Y 4343   4.128   5.320   7.610 -2.2501  1.9253 -0.0311
   32SAPC  C311 4344   4.122   5.238   7.799  0.1843  0.1344 -0.3056
   32SAPC  H11X 4345   4.232   5.223   7.801  0.1919  0.0290 -1.1783
   32SAPC  H11Y 4346   4.085   5.147   7.849  0.4248  0.8590  1.2448
   32SAPC  C312 4347   4.066   5.344   7.882  0.8049 -0.4139 -0.3803
   32SAPC  H12X 4348   3.956   5.344   7.864  0.7781 -4.1489 -1.1720
   32SAPC  H12Y 4349   4.104   5.446   7.863  0.7612 -0.3592 -0.1783
   32SAPC  C313 4350   4.079   5.338   8.038 -0.2549 -0.6688  0.5184
   32SAPC  H13X 4351   4.011   5.418   8.075 -0.6585 -1.1969  0.9429
   32SAPC  H13Y 4352   4.187   5.354   8.056 -0.0845 -0.3225 -0.7218
   32SAPC  C314 4353   4.037   5.211   8.111  0.7732 -0.0451 -0.1674
   32SAPC  H14X 4354   4.097   5.122   8.081  2.8155  1.4600 -0.7965
   32SAPC  H14Y 4355   3.927   5.200   8.101  0.8280  0.0193 -0.9151
   32SAPC  C315 4356   4.077   5.217   8.263 -0.3756  0.2864 -0.2117
   32SAPC  H15X 4357   4.017   5.304   8.296 -1.6722  1.5165 -5.0029
   32SAPC  H15Y 4358   4.185   5.236   8.280  0.0669  0.1220 -2.5027
   32SAPC  C316 4359   4.015   5.103   8.340  0.4112 -0.1711 -0.6688
   32SAPC  H16X 4360   4.045   5.006   8.295  0.8195  0.7129 -2.3643
   32SAPC  H16Y 4361   3.906   5.121   8.325  0.6573  1.6226 -0.5183
   32SAPC  C317 4362   4.044   5.116   8.491  0.7977  1.0085 -0.2484
   32SAPC  H17X 4363   4.007   5.216   8.523  0.6267  0.5777  0.9646
   32SAPC  H17Y 4364   4.153   5.111   8.509  0.3952 -1.2966  2.3077
   32SAPC  C318 4365   3.989   5.001   8.573  0.2295  0.0524 -0.1539
   32SAPC  H18X 4366   4.031   4.903   8.544  0.8436  0.1654  0.3465
   32SAPC  H18Y 4367   3.878   5.001   8.571  0.1836 -1.7361  0.5655
   32SAPC  H18Z 4368   4.016   5.019   8.679 -1.1079  0.4969  0.1349
   33POPC     N 4369   3.712   5.449  11.069 -0.5350 -0.0503 -0.2034
   33POPC   C12 4370   3.641   5.491  10.939  0.2205  0.1267  0.1859
   33POPC  H12A 4371   3.567   5.569  10.949  0.8885  0.7342  0.4754
   33POPC  H12B 4372   3.584   5.403  10.913  0.0364 -0.2532  1.7812
   33POPC   C13 4373   3.794   5.570  11.125  0.3202  0.1923 -0.0962
   33POPC  H13A 4374   3.831   5.544  11.223  0.1806  2.1874  0.5227
   33POPC  H13B 4375   3.868   5.592  11.049  1.0458  0.8840  0.7905
   33POPC  H13C 4376   3.742   5.661  11.151  0.1722 -0.0981  0.6392
   33POPC   C14 4377   3.609   5.420  11.163  0.2350 -0.0703  0.0105
   33POPC  H14A 4378   3.538   5.343  11.134 -1.1670  1.3876 -0.5696
   33POPC  H14B 4379   3.645   5.381  11.257  1.0234 -2.8060 -1.3173
   33POPC  H14C 4380   3.546   5.505  11.186 -1.9917 -1.4229 -0.7822
   33POPC   C15 4381   3.793   5.330  11.052  0.2679  0.2959  0.4334
   33POPC  H15A 4382   3.738   5.251  11.003  0.7758  0.5447 -0.5491
   33POPC  H15B 4383   3.824   5.289  11.147 -0.3774 -0.6334  0.2594
   33POPC  H15C 4384   3.874   5.346  10.983 -0.2024 -1.5315 -0.5980
   33POPC   C11 4385   3.710   5.533  10.805 -1.5452  0.5671  0.3072
   33POPC  H11A 4386   3.772   5.622  10.826 -0.1663 -0.0489 -0.9896
   33POPC  H11B 4387   3.628   5.578  10.745 -0.2103  1.2099 -1.0859
   33POPC     P 4388   3.711   5.312  10.694  0.2641 -0.2358  0.2145
   33POPC   O13 4389   3.641   5.238  10.805  0.4161 -0.4106  0.0074
   33POPC   O14 4390   3.791   5.245  10.594  0.0366  0.1915 -0.2544
   33POPC   O12 4391   3.796   5.435  10.742  0.0349 -0.3613  0.4420
   33POPC   O11 4392   3.599   5.393  10.614 -0.1554  0.2031 -0.2863
   33POPC    C1 4393   3.573   5.370  10.478  0.2445 -0.5150  0.2793
   33POPC    HA 4394   3.588   5.265  10.444  0.3107 -0.9166  1.5333
   33POPC    HB 4395   3.467   5.397  10.464  0.1159 -0.9878  0.3181
   33POPC    C2 4396   3.647   5.472  10.397 -0.1776  0.1548  0.2566
   33POPC    HS 4397   3.753   5.445  10.412 -0.1570 -1.9861 -2.8920
   33POPC   O21 4398   3.608   5.606  10.433  0.0743 -0.3128 -0.0290
   33POPC   C21 4399   3.694   5.701  10.468  0.3226  0.4834  0.2969
   33POPC   O22 4400   3.815   5.690  10.475 -0.4132 -0.2204 -0.4496
   33POPC   C22 4401   3.620   5.830  10.488  0.3698 -0.0155 -0.2403
   33POPC   H2R 4402   3.592   5.833  10.596  3.5873  0.0349  0.7060
   33POPC   H2S 4403   3.519   5.818  10.444 -0.7009  0.3948  1.9382
   33POPC    C3 4404   3.625   5.446  10.245  0.0862  0.5408  0.3820
   33POPC    HX 4405   3.655   5.531  10.179 -1.8861  0.1386 -1.1289
   33POPC    HY 4406   3.516   5.466  10.242 -0.1925 -0.9377 -0.4896
   33POPC   O31 4407   3.657   5.311  10.198  0.1260  0.0814 -0.1690
   33POPC   C31 4408   3.787   5.288  10.171 -0.1282 -0.1567  0.2173
   33POPC   O32 4409   3.874   5.373  10.162  0.5335  0.4157  0.9839
   33POPC   C32 4410   3.800   5.144  10.120 -0.2875  0.3074 -0.2702
   33POPC   H2X 4411   3.700   5.100  10.100 -0.2964 -0.3414  1.0454
   33POPC   H2Y 4412   3.843   5.091  10.208 -2.5997  2.6204  2.4588
   33POPC   C23 4413   3.703   5.956  10.450  0.0041  0.6076 -0.4202
   33POPC   H3R 4414   3.783   5.964  10.526 -2.4705 -1.7174  2.7349
   33POPC   H3S 4415   3.636   6.043  10.463 -3.1087 -1.3892 -1.7619
   33POPC   C24 4416   3.769   5.959  10.310  0.2780  0.5765 -0.7268
   33POPC   H4R 4417   3.873   5.922  10.306  1.6806  3.3785  3.0081
   33POPC   H4S 4418   3.780   6.068  10.294  0.1443  0.3770 -2.2612
   33POPC   C25 4419   3.692   5.903  10.192  0.0623  0.6380 -0.2199
   33POPC   H5R 4420   3.599   5.963  10.183 -1.4681 -1.4848  0.3879
   33POPC   H5S 4421   3.645   5.805  10.217 -1.6118  1.5194  0.2554
   33POPC   C26 4422   3.769   5.891  10.063  0.4071  0.0970 -0.3441
   33POPC   H6R 4423   3.866   5.837  10.074  0.3508 -0.0591 -0.6075
   33POPC   H6S 4424   3.794   5.997  10.041 -0.1858  1.0530  3.0306
   33POPC   C27 4425   3.703   5.828   9.944  0.0992  0.0035 -0.0471
   33POPC   H7R 4426   3.625   5.897   9.906 -0.7897 -0.4329  0.9517
   33POPC   H7S 4427   3.663   5.736   9.992 -0.7368  0.9550  1.1236
   33POPC   C28 4428   3.802   5.773   9.839 -0.9795 -0.4240  0.1679
   33POPC   H8R 4429   3.742   5.706   9.773 -0.4079  1.0641 -1.9520
   33POPC   H8S 4430   3.872   5.702   9.889 -1.1503 -0.6986  0.0230
   33POPC   C29 4431   3.876   5.879   9.768 -0.4155 -0.3689 -0.2928
   33POPC   H91 4432   3.913   5.965   9.827  0.6700 -0.2764 -1.0751
   33POPC  C210 4433   3.901   5.864   9.636  0.4498  0.3428 -0.1675
   33POPC  H101 4434   3.972   5.932   9.586  2.1355  0.0003  1.6285
   33POPC  C211 4435   3.855   5.755   9.543 -0.5375 -0.9807  0.3218
   33POPC  H11R 4436   3.807   5.670   9.596  0.7426 -2.7727 -1.2727
   33POPC  H11S 4437   3.942   5.711   9.489 -0.0034 -0.5753  0.8346
   33POPC  C212 4438   3.763   5.814   9.430  0.1241 -0.1069  0.3134
   33POPC  H12R 4439   3.690   5.888   9.472 -0.5572 -0.7631  0.3080
   33POPC  H12S 4440   3.688   5.741   9.393 -1.2967  1.7685 -0.7443
   33POPC  C213 4441   3.835   5.901   9.325 -0.1970 -0.3463 -0.3567
   33POPC  H13R 4442   3.879   5.993   9.369  0.1494 -0.5240 -0.3232
   33POPC  H13S 4443   3.751   5.941   9.264 -0.1634  2.3320  1.2298
   33POPC  C214 4444   3.927   5.820   9.231 -0.9805 -0.1632 -0.5208
   33POPC  H14R 4445   3.876   5.729   9.193 -2.4931 -0.5286  2.1841
   33POPC  H14S 4446   4.022   5.797   9.284 -0.2070  1.1560 -1.2933
   33POPC  C215 4447   3.961   5.907   9.107  0.3906  0.0872 -0.7913
   33POPC  H15R 4448   4.015   5.998   9.142 -2.1632  1.5809 -0.5361
   33POPC  H15S 4449   3.863   5.946   9.073  1.6564  2.0497 -2.3788
   33POPC  C216 4450   4.040   5.830   8.998  0.2142  0.0050 -0.4597
   33POPC  H16R 4451   3.967   5.770   8.938 -0.4722  0.5234 -0.1571
   33POPC  H16S 4452   4.106   5.757   9.050 -0.5656 -0.0415  0.5077
   33POPC  C217 4453   4.123   5.920   8.901  0.3163 -0.1608  0.0438
   33POPC  H17R 4454   4.050   5.985   8.848 -0.7388 -1.0177  0.4294
   33POPC  H17S 4455   4.164   5.857   8.819  0.8568 -0.1280  0.2806
   33POPC  C218 4456   4.231   6.013   8.959 -0.1978  0.1538 -0.5328
   33POPC  H18R 4457   4.280   5.970   9.049  1.1715  2.7428  0.0648
   33POPC  H18S 4458   4.200   6.110   9.002 -0.5050 -0.7898  1.4938
   33POPC  H18T 4459   4.303   6.036   8.877  0.4552  2.7208  0.6770
   33POPC   C33 4460   3.888   5.144   9.993 -0.2256  0.1019 -0.0701
   33POPC   H3X 4461   3.927   5.040   9.993 -1.5791 -0.4457  1.6250
   33POPC   H3Y 4462   3.967   5.222  10.001  0.9686 -1.1490  1.0062
   33POPC   C34 4463   3.817   5.153   9.864 -0.2138  0.4710  0.7031
   33POPC   H4X 4464   3.778   5.257   9.866  2.1543  1.4389  0.4242
   33POPC   H4Y 4465   3.740   5.073   9.853  0.1707  0.4560 -3.8718
   33POPC   C35 4466   3.910   5.156   9.742  0.0303  0.5675 -0.4414
   33POPC   H5X 4467   3.957   5.056   9.736 -0.6792  0.2313 -0.4549
   33POPC   H5Y 4468   3.989   5.233   9.757  0.5970 -0.2585  1.0253
   33POPC   C36 4469   3.843   5.178   9.608  0.3356 -0.5819 -0.8405
   33POPC   H6X 4470   3.763   5.101   9.606  1.1947 -1.5237 -0.2537
   33POPC   H6Y 4471   3.918   5.163   9.528 -0.2633 -0.6730 -1.3886
   33POPC   C37 4472   3.784   5.321   9.590  0.3706  0.1789  0.7682
   33POPC   H7X 4473   3.852   5.408   9.594 -1.1158  1.5806 -1.8705
   33POPC   H7Y 4474   3.704   5.338   9.665  0.4961  1.2530  0.6661
   33POPC   C38 4475   3.738   5.334   9.447  0.2306  0.8251  0.0093
   33POPC   H8X 4476   3.701   5.438   9.431 -2.5149 -0.1084 -0.2742
   33POPC   H8Y 4477   3.661   5.259   9.422 -0.5218  0.2594  3.5819
   33POPC   C39 4478   3.846   5.338   9.347 -0.1444  0.2617 -0.1331
   33POPC   H9X 4479   3.875   5.236   9.312  1.0085  0.2585  0.7797
   33POPC   H9Y 4480   3.937   5.386   9.387 -0.4655  0.3132  0.5638
   33POPC  C310 4481   3.817   5.410   9.210 -0.5641 -0.1467  0.4797
   33POPC  H10X 4482   3.843   5.517   9.224 -1.9437  0.0645  1.6901
   33POPC  H10Y 4483   3.707   5.418   9.200 -0.4818 -1.1303 -1.5948
   33POPC  C311 4484   3.883   5.349   9.087  0.2236  0.4011 -0.8239
   33POPC  H11X 4485   3.844   5.250   9.057 -0.0882  0.8410 -1.9168
   33POPC  H11Y 4486   3.991   5.330   9.108  0.6831  2.7733 -0.7103
   33POPC  C312 4487   3.882   5.440   8.968 -0.2887 -0.5197 -0.2812
   33POPC  H12X 4488   3.891   5.546   9.001 -2.3806 -0.7783  1.3206
   33POPC  H12Y 4489   3.779   5.439   8.927  0.0586  1.1913 -1.2649
   33POPC  C313 4490   3.976   5.405   8.860 -0.5647 -0.4795 -0.1104
   33POPC  H13X 4491   3.931   5.435   8.763  2.2863  0.6418 -1.1873
   33POPC  H13Y 4492   3.989   5.295   8.851  0.9593 -0.5424  2.1346
   33POPC  C314 4493   4.115   5.470   8.866  0.0878  0.6587 -0.0828
   33POPC  H14X 4494   4.168   5.428   8.953 -0.2169 -0.7016 -0.5368
   33POPC  H14Y 4495   4.112   5.581   8.867 -1.4591  0.7046 -2.2674
   33POPC  C315 4496   4.199   5.438   8.736 -1.2028  0.4615 -0.2178
   33POPC  H15X 4497   4.196   5.328   8.719  0.0447  0.7563 -2.6041
   33POPC  H15Y 4498   4.300   5.475   8.761 -0.6002  1.4669 -3.7159
   33POPC  C316 4499   4.167   5.512   8.604  0.1941  0.8434  0.2345
   33POPC  H16X 4500   4.237   5.475   8.526  0.1898 -0.8611  0.9922
   33POPC  H16Y 4501   4.164   5.622   8.622 -0.4878  0.6333  1.5727
   33POPC  H16Z 4502   4.067   5.470   8.578  1.3417 -0.1845 -2.9186
   34POPC     N 4503   0.334   6.462  11.147  0.5645 -0.0277  0.6138
   34POPC   C12 4504   0.222   6.476  11.041 -0.7829  0.0817 -0.6281
   34POPC  H12A 4505   0.212   6.581  11.019 -1.6694 -0.5432 -3.6685
   34POPC  H12B 4506   0.129   6.442  11.083 -0.8772  0.6402 -0.3828
   34POPC   C13 4507   0.317   6.560  11.252  0.1994  0.1802  0.0963
   34POPC  H13A 4508   0.328   6.663  11.221  1.0246 -0.3900 -1.6159
   34POPC  H13B 4509   0.216   6.553  11.290 -0.0579  0.7477 -0.4624
   34POPC  H13C 4510   0.386   6.546  11.334  0.7206 -0.0737 -0.3880
   34POPC   C14 4511   0.346   6.323  11.192 -0.1425  0.1287 -0.0086
   34POPC  H14A 4512   0.427   6.295  11.258 -0.0801 -1.7359 -0.7970
   34POPC  H14B 4513   0.255   6.287  11.238 -1.7573  1.7446 -1.7957
   34POPC  H14C 4514   0.377   6.260  11.109  0.2439 -0.4482  0.5629
   34POPC   C15 4515   0.469   6.492  11.076  0.0428  0.0453  1.4794
   34POPC  H15A 4516   0.480   6.418  10.998  0.6780  1.7385 -0.0991
   34POPC  H15B 4517   0.551   6.485  11.145 -0.4559  0.4160  2.1292
   34POPC  H15C 4518   0.470   6.593  11.037 -0.7596  0.0854  1.5292
   34POPC   C11 4519   0.236   6.395  10.908 -0.5030 -0.0758 -0.3426
   34POPC  H11A 4520   0.332   6.412  10.854  0.1613 -0.5945  0.6207
   34POPC  H11B 4521   0.160   6.422  10.833  0.0586  0.1815 -0.8316
   34POPC     P 4522   0.119   6.171  10.913 -0.0638  0.5243 -0.3500
   34POPC   O13 4523  -0.001   6.228  10.974 -0.1605 -0.1576  0.0842
   34POPC   O14 4524   0.152   6.035  10.955 -0.1809  0.1313  0.2835
   34POPC   O12 4525   0.239   6.257  10.945  0.3203  0.5802  0.7654
   34POPC   O11 4526   0.105   6.183  10.757 -0.6816  0.0212 -0.2180
   34POPC    C1 4527   0.174   6.082  10.680 -0.0829 -0.1494  0.8912
   34POPC    HA 4528   0.129   5.984  10.704  1.9273 -0.6846  2.8382
   34POPC    HB 4529   0.281   6.069  10.706 -0.3761 -2.1745  1.2321
   34POPC    C2 4530   0.177   6.117  10.527  0.0717 -0.2428  0.0163
   34POPC    HS 4531   0.275   6.162  10.502 -0.9070  1.5905 -0.6905
   34POPC   O21 4532   0.061   6.195  10.495  0.2171  0.2528 -0.0449
   34POPC   C21 4533   0.078   6.318  10.455  0.2105 -0.2400  0.3166
   34POPC   O22 4534   0.185   6.376  10.441 -0.1961  0.2671  0.0793
   34POPC   C22 4535  -0.063   6.378  10.417 -0.7423 -0.1005  0.4693
   34POPC   H2R 4536  -0.127   6.397  10.505 -2.2192 -0.7037 -0.4244
   34POPC   H2S 4537  -0.104   6.299  10.350  0.5081 -0.5457  0.1953
   34POPC    C3 4538   0.174   5.985  10.450 -0.2569 -0.4185  0.5368
   34POPC    HX 4539   0.078   5.933  10.468 -0.3912 -0.2769  0.2321
   34POPC    HY 4540   0.261   5.931  10.493  1.6685  2.9512  1.2832
   34POPC   O31 4541   0.223   5.995  10.317  0.4055  0.2938 -0.0532
   34POPC   C31 4542   0.217   5.882  10.241  0.2989  0.0419  0.7170
   34POPC   O32 4543   0.172   5.777  10.282  0.5451  0.3993  0.0599
   34POPC   C32 4544   0.271   5.901  10.097 -0.0807 -0.5645 -0.5809
   34POPC   H2X 4545   0.380   5.924  10.106  0.0210 -1.1710 -0.2534
   34POPC   H2Y 4546   0.227   5.994  10.054  1.6209 -0.4189 -2.1285
   34POPC   C23 4547  -0.046   6.503  10.323  0.1724  0.1766  0.0701
   34POPC   H3R 4548   0.013   6.583  10.372  2.3001  0.2165 -2.3514
   34POPC   H3S 4549  -0.145   6.550  10.302  0.0670 -0.3036 -0.5255
   34POPC   C24 4550   0.018   6.471  10.188 -0.5727 -0.6838 -0.5049
   34POPC   H4R 4551  -0.036   6.385  10.142 -0.4137 -1.5045  0.7742
   34POPC   H4S 4552   0.124   6.442  10.205 -0.4747 -0.4243 -0.6759
   34POPC   C25 4553   0.010   6.589  10.083 -0.0693  0.3636  0.0047
   34POPC   H5R 4554   0.077   6.666  10.127 -2.6196  2.3410  0.6711
   34POPC   H5S 4555  -0.091   6.633  10.074  0.7497  2.2493 -0.5954
   34POPC   C26 4556   0.061   6.554   9.945  0.3518  0.1316 -0.0501
   34POPC   H6R 4557   0.016   6.461   9.903  0.9958 -0.2410  0.0781
   34POPC   H6S 4558   0.167   6.522   9.953  0.4205  0.8253  3.0523
   34POPC   C27 4559   0.022   6.659   9.844 -0.0679 -0.0268 -0.2117
   34POPC   H7R 4560   0.062   6.756   9.880  0.6277 -0.2817 -0.2774
   34POPC   H7S 4561  -0.089   6.664   9.851 -0.2296 -1.7456 -0.9176
   34POPC   C28 4562   0.081   6.621   9.711 -0.3329 -0.4943  0.2709
   34POPC   H8R 4563   0.010   6.550   9.664 -0.3487  1.5564 -3.1360
   34POPC   H8S 4564   0.184   6.583   9.723 -0.5278 -0.3508  3.1414
   34POPC   C29 4565   0.082   6.738   9.621 -0.0858  0.3811  0.4612
   34POPC   H91 4566   0.015   6.820   9.649  1.1538  0.6351  2.8529
   34POPC  C210 4567   0.174   6.755   9.522  0.5672  0.0477  0.5275
   34POPC  H101 4568   0.161   6.846   9.462  1.2071  0.6532  1.2966
   34POPC  C211 4569   0.291   6.676   9.478 -0.5945  0.0345 -0.7754
   34POPC  H11R 4570   0.367   6.643   9.552 -1.8003 -1.2149 -0.0792
   34POPC  H11S 4571   0.343   6.751   9.414  0.9792 -1.5956 -1.4874
   34POPC  C212 4572   0.238   6.559   9.403 -0.4804  0.1301  0.0246
   34POPC  H12R 4573   0.169   6.490   9.456 -1.0048 -0.3000 -1.1768
   34POPC  H12S 4574   0.331   6.499   9.391 -0.4237 -1.1509  4.8747
   34POPC  C213 4575   0.172   6.587   9.264  0.1018 -0.0946 -0.1021
   34POPC  H13R 4576   0.226   6.667   9.210 -1.7217  0.4157 -1.2493
   34POPC  H13S 4577   0.069   6.624   9.283 -0.4539 -1.2830 -0.6809
   34POPC  C214 4578   0.165   6.469   9.163 -0.7931  0.2711 -0.2710
   34POPC  H14R 4579   0.162   6.369   9.211  0.6761  0.4756  0.2936
   34POPC  H14S 4580   0.258   6.464   9.103 -0.6082 -1.5074  0.1015
   34POPC  C215 4581   0.045   6.478   9.064  0.9311  0.1427 -0.4142
   34POPC  H15R 4582  -0.040   6.509   9.129 -0.6267  0.0300 -2.3026
   34POPC  H15S 4583   0.023   6.381   9.014  0.0246 -0.1494  0.4887
   34POPC  C216 4584   0.053   6.595   8.966 -0.7951 -0.4910 -0.0612
   34POPC  H16R 4585   0.149   6.592   8.910  0.2142  3.3550  1.1496
   34POPC  H16S 4586   0.050   6.690   9.024 -1.3840 -1.1299  0.9824
   34POPC  C217 4587  -0.067   6.601   8.872 -0.0903 -0.3380  0.4430
   34POPC  H17R 4588  -0.068   6.699   8.820  0.8271 -0.5637 -0.0234
   34POPC  H17S 4589  -0.162   6.589   8.928  1.5451 -2.2955  3.0082
   34POPC  C218 4590  -0.057   6.491   8.766  0.0009 -0.2564  0.5566
   34POPC  H18R 4591   0.036   6.508   8.708  0.7199  0.0560  1.7825
   34POPC  H18S 4592  -0.149   6.479   8.705  0.6572  1.9480 -0.9927
   34POPC  H18T 4593  -0.049   6.393   8.818 -3.2258 -0.8293  0.1667
   34POPC   C33 4594   0.251   5.782  10.003 -0.5627  0.2687 -0.1522
   34POPC   H3X 4595   0.144   5.755  10.000 -0.2117 -1.2495 -0.0100
   34POPC   H3Y 4596   0.316   5.697  10.034  2.4667  2.5955  0.4374
   34POPC   C34 4597   0.306   5.821   9.860  0.0486 -0.8937 -0.3096
   34POPC   H4X 4598   0.414   5.842   9.868 -0.3340  1.0802  0.2209
   34POPC   H4Y 4599   0.251   5.915   9.837 -0.0458 -0.3624  1.8439
   34POPC   C35 4600   0.290   5.705   9.760  0.7239 -0.5237  0.2449
   34POPC   H5X 4601   0.191   5.655   9.759  0.3921  0.0635 -2.3387
   34POPC   H5Y 4602   0.343   5.612   9.792 -0.2367 -1.6722 -1.3477
   34POPC   C36 4603   0.331   5.750   9.619 -0.4168  0.0981  0.2128
   34POPC   H6X 4604   0.274   5.835   9.576 -0.2224  1.0289  1.7341
   34POPC   H6Y 4605   0.329   5.663   9.549 -0.9403 -1.9283  2.5994
   34POPC   C37 4606   0.478   5.792   9.612  0.1466 -0.5281  0.5123
   34POPC   H7X 4607   0.538   5.740   9.690  0.0466 -0.5082  0.6040
   34POPC   H7Y 4608   0.488   5.898   9.646  0.2494 -0.5257  0.4745
   34POPC   C38 4609   0.545   5.768   9.477 -0.0721  0.1552  0.2442
   34POPC   H8X 4610   0.640   5.826   9.480  0.4752 -0.7366  2.5868
   34POPC   H8Y 4611   0.484   5.799   9.389  0.9505 -2.4789 -1.4870
   34POPC   C39 4612   0.588   5.618   9.462 -0.5105 -0.0183  0.0423
   34POPC   H9X 4613   0.492   5.569   9.433  0.8592 -1.7182 -1.9126
   34POPC   H9Y 4614   0.629   5.583   9.558 -0.6621  2.7895  1.2176
   34POPC  C310 4615   0.686   5.595   9.352 -0.5735  0.6367 -0.2867
   34POPC  H10X 4616   0.713   5.488   9.363 -2.8899  0.0102 -0.2432
   34POPC  H10Y 4617   0.775   5.658   9.370  1.1723 -1.6824 -0.3560
   34POPC  C311 4618   0.627   5.635   9.211  0.1887 -0.6322 -0.1551
   34POPC  H11X 4619   0.617   5.745   9.216 -0.9116 -0.6784 -1.0401
   34POPC  H11Y 4620   0.527   5.586   9.217  0.4696 -1.2868 -0.6293
   34POPC  C312 4621   0.697   5.585   9.090  0.0645 -0.3218  0.0758
   34POPC  H12X 4622   0.671   5.477   9.092 -0.2731 -0.2731  3.2009
   34POPC  H12Y 4623   0.805   5.592   9.114  0.3033 -0.1702 -1.0067
   34POPC  C313 4624   0.657   5.654   8.949 -0.2862 -0.0747 -0.0650
   34POPC  H13X 4625   0.732   5.634   8.870 -0.5563  1.6856 -0.7988
   34POPC  H13Y 4626   0.651   5.764   8.956  0.3870 -0.0483  0.2240
   34POPC  C314 4627   0.511   5.614   8.903  0.5044 -0.8077 -0.1068
   34POPC  H14X 4628   0.442   5.614   8.990  1.9688 -0.1050  1.1121
   34POPC  H14Y 4629   0.517   5.506   8.878  0.5593 -0.7730 -0.2483
   34POPC  C315 4630   0.456   5.696   8.781  1.4824 -0.6864  0.3362
   34POPC  H15X 4631   0.394   5.773   8.831  0.1497 -0.7451 -1.1417
   34POPC  H15Y 4632   0.375   5.636   8.734 -2.3926  1.9238  3.0793
   34POPC  C316 4633   0.547   5.765   8.680 -0.1043  0.2235 -0.1263
   34POPC  H16X 4634   0.619   5.825   8.741 -2.2008  1.4291  1.3036
   34POPC  H16Y 4635   0.497   5.828   8.603  0.3295  0.9131  0.1446
   34POPC  H16Z 4636   0.599   5.686   8.622 -0.5016 -0.8253  0.8919
   35POPC     N 4637   0.297   0.995  10.728 -0.9373 -0.6261  0.2060
   35POPC   C12 4638   0.317   0.847  10.757 -1.2512  0.1036  0.0301
   35POPC  H12A 4639   0.391   0.811  10.688  0.0808  3.1551 -0.2996
   35POPC  H12B 4640   0.223   0.798  10.736 -0.4903 -1.5994  0.4128
   35POPC   C13 4641   0.179   1.055  10.802  0.6622  0.9439  0.2459
   35POPC  H13A 4642   0.187   1.162  10.818 -0.2346  0.7808  1.9784
   35POPC  H13B 4643   0.083   1.034  10.757  0.9059 -0.4335  0.3475
   35POPC  H13C 4644   0.176   1.021  10.904  0.4039  0.4994  0.0918
   35POPC   C14 4645   0.421   1.079  10.756  0.1110 -0.4853 -0.0357
   35POPC  H14A 4646   0.402   1.182  10.731 -0.2013 -0.6898 -0.6820
   35POPC  H14B 4647   0.444   1.073  10.861 -1.0382 -0.3740  0.2417
   35POPC  H14C 4648   0.504   1.060  10.689  0.5164 -1.0556  0.6123
   35POPC   C15 4649   0.280   1.013  10.578  0.9533 -0.2102  0.7001
   35POPC  H15A 4650   0.193   0.962  10.537  1.8677 -0.5111 -0.9496
   35POPC  H15B 4651   0.362   0.966  10.527  1.6155  0.9100  0.7006
   35POPC  H15C 4652   0.279   1.117  10.550 -2.5592 -0.7797 -1.9894
   35POPC   C11 4653   0.362   0.818  10.908  0.2227  0.7474 -0.3233
   35POPC  H11A 4654   0.451   0.878  10.939 -0.3246  1.0746  0.6494
   35POPC  H11B 4655   0.399   0.713  10.906  0.8025  0.8442  1.9861
   35POPC     P 4656   0.125   0.746  10.999 -0.6056 -0.0503  0.1441
   35POPC   O13 4657   0.014   0.831  11.050 -0.5868  0.9108  1.2089
   35POPC   O14 4658   0.156   0.628  11.079 -0.0796 -0.2730 -0.1203
   35POPC   O12 4659   0.254   0.834  10.990  0.1925  0.5564 -0.0089
   35POPC   O11 4660   0.093   0.699  10.856 -0.1896 -0.2733  0.6437
   35POPC    C1 4661  -0.010   0.614  10.824 -0.4771  0.1987  0.4415
   35POPC    HA 4662  -0.093   0.676  10.785 -0.1632 -0.9541 -2.3221
   35POPC    HB 4663  -0.051   0.563  10.914  0.2142  1.7880  1.6886
   35POPC    C2 4664   0.038   0.511  10.720 -0.3331 -0.3412 -0.3699
   35POPC    HS 4665   0.098   0.437  10.778  0.8094 -0.2926 -1.4530
   35POPC   O21 4666   0.126   0.579  10.628 -0.5548 -0.0053 -0.1764
   35POPC   C21 4667   0.216   0.499  10.558  0.5451  0.0327 -0.5599
   35POPC   O22 4668   0.227   0.378  10.585  0.6672 -0.1686 -0.2972
   35POPC   C22 4669   0.309   0.575  10.459  0.4099 -0.1274 -0.5905
   35POPC   H2R 4670   0.352   0.499  10.390  0.2959 -0.6151 -0.1348
   35POPC   H2S 4671   0.398   0.603  10.520  0.5587 -0.5637 -0.6010
   35POPC    C3 4672  -0.075   0.438  10.653 -0.0409 -0.2815 -0.0480
   35POPC    HX 4673  -0.126   0.396  10.742 -0.1571 -0.6401 -0.2823
   35POPC    HY 4674  -0.042   0.347  10.599  0.1894 -0.9994  1.2847
   35POPC   O31 4675  -0.164   0.526  10.582  0.0975  0.1400 -0.0745
   35POPC   C31 4676  -0.149   0.524  10.448 -0.4500  0.5840 -0.0862
   35POPC   O32 4677  -0.080   0.449  10.384 -0.3621  0.2787  0.0830
   35POPC   C32 4678  -0.235   0.631  10.392 -0.0133  0.1559  0.6402
   35POPC   H2X 4679  -0.192   0.730  10.367 -1.3304  0.2385 -1.6127
   35POPC   H2Y 4680  -0.322   0.668  10.449 -0.3768 -2.8391  2.2104
   35POPC   C23 4681   0.237   0.694  10.395 -1.2149 -0.3429  0.7588
   35POPC   H3R 4682   0.303   0.783  10.403 -2.9045  0.8845  1.6412
   35POPC   H3S 4683   0.142   0.722  10.445 -1.1878 -0.8130  1.0745
   35POPC   C24 4684   0.210   0.661  10.245 -0.5906  0.2770  0.3946
   35POPC   H4R 4685   0.178   0.555  10.236  0.5113  0.0971 -2.6102
   35POPC   H4S 4686   0.311   0.671  10.199 -1.0585 -1.6259 -1.1905
   35POPC   C25 4687   0.094   0.744  10.190 -0.0883 -0.2922 -0.0165
   35POPC   H5R 4688   0.123   0.848  10.217  0.9901 -0.3383 -0.9057
   35POPC   H5S 4689   0.003   0.720  10.249  0.7104 -3.0268  0.2220
   35POPC   C26 4690   0.072   0.727  10.040  0.5680 -0.7671 -0.0041
   35POPC   H6R 4691  -0.009   0.795  10.004  1.1940  0.2316  0.4168
   35POPC   H6S 4692   0.034   0.624  10.026 -0.7740 -0.8103  3.0185
   35POPC   C27 4693   0.206   0.738   9.963  0.6943 -0.0649  0.6157
   35POPC   H7R 4694   0.278   0.655   9.980 -0.4155 -1.1245  0.3560
   35POPC   H7S 4695   0.261   0.831   9.990 -1.3600  1.0524  1.1893
   35POPC   C28 4696   0.184   0.738   9.804  0.4740 -0.0341  0.2599
   35POPC   H8R 4697   0.145   0.645   9.759 -1.0050  1.1110 -0.9307
   35POPC   H8S 4698   0.290   0.742   9.773  1.5944  0.8071  3.7306
   35POPC   C29 4699   0.118   0.856   9.735 -0.3554  0.7161 -0.5073
   35POPC   H91 4700   0.049   0.915   9.797 -0.6028 -1.4677  1.4379
   35POPC  C210 4701   0.131   0.892   9.604  0.8315  0.2707  0.0607
   35POPC  H101 4702   0.075   0.979   9.568 -0.8014 -1.4881 -1.9014
   35POPC  C211 4703   0.208   0.820   9.501 -0.0036 -0.4563 -0.0628
   35POPC  H11R 4704   0.259   0.735   9.550 -0.0040  1.1139  2.8385
   35POPC  H11S 4705   0.289   0.886   9.462  1.6743 -0.2235  3.4318
   35POPC  C212 4706   0.114   0.766   9.392  0.5945 -0.5992  0.0956
   35POPC  H12R 4707   0.081   0.668   9.433  1.8137 -1.0758 -0.0400
   35POPC  H12S 4708   0.178   0.750   9.303 -1.5174 -0.8419 -1.4772
   35POPC  C213 4709  -0.005   0.849   9.322  0.5246  0.1122  0.4319
   35POPC  H13R 4710   0.031   0.953   9.311  0.3951  0.3552  2.0726
   35POPC  H13S 4711  -0.097   0.845   9.384  0.6859 -0.1117  0.6611
   35POPC  C214 4712  -0.040   0.799   9.180  0.7609 -0.5159  0.7934
   35POPC  H14R 4713  -0.141   0.842   9.164  1.2938  1.0092  1.3478
   35POPC  H14S 4714  -0.050   0.689   9.191 -0.3665 -0.3581  1.6027
   35POPC  C215 4715   0.065   0.842   9.077 -0.2069  0.0024 -0.0826
   35POPC  H15R 4716   0.159   0.790   9.102 -1.2676 -1.5064  0.9633
   35POPC  H15S 4717   0.069   0.953   9.077 -1.1469  0.1171 -2.7698
   35POPC  C216 4718   0.001   0.815   8.942  0.7324  0.0697  0.0552
   35POPC  H16R 4719  -0.073   0.733   8.933  0.7428  0.3143 -3.6850
   35POPC  H16S 4720   0.085   0.798   8.871  1.6039 -1.6870  1.4460
   35POPC  C217 4721  -0.088   0.941   8.903  0.1621  1.4745 -0.2360
   35POPC  H17R 4722  -0.026   1.032   8.895 -0.2029  1.6550 -1.0663
   35POPC  H17S 4723  -0.168   0.959   8.978  0.5058  1.3202  0.1679
   35POPC  C218 4724  -0.154   0.906   8.767  0.6539 -0.4095  0.2587
   35POPC  H18R 4725  -0.084   0.861   8.693 -0.7199  0.2370 -1.4896
   35POPC  H18S 4726  -0.190   0.996   8.714  1.5206 -0.0276  0.2937
   35POPC  H18T 4727  -0.236   0.831   8.778  1.2652 -0.8300  2.5202
   35POPC   C33 4728  -0.308   0.577  10.258  0.2172  0.4097 -0.9439
   35POPC   H3X 4729  -0.405   0.631  10.260  0.3406  0.6224  0.1561
   35POPC   H3Y 4730  -0.314   0.466  10.258 -0.4222  0.4219  0.2493
   35POPC   C34 4731  -0.230   0.614  10.136 -0.1185  0.4299 -1.1956
   35POPC   H4X 4732  -0.138   0.551  10.139 -0.7479 -0.5033 -0.8913
   35POPC   H4Y 4733  -0.210   0.721  10.157 -0.2754  0.0888  0.9521
   35POPC   C35 4734  -0.317   0.588  10.007 -0.5300 -0.3592 -0.0440
   35POPC   H5X 4735  -0.407   0.653   9.994 -0.5638 -0.2645  0.6634
   35POPC   H5Y 4736  -0.364   0.489  10.023 -3.4485  1.0088  0.6010
   35POPC   C36 4737  -0.237   0.590   9.873 -0.2802 -0.3158 -0.4040
   35POPC   H6X 4738  -0.135   0.545   9.879  0.0881  0.6370  0.8863
   35POPC   H6Y 4739  -0.201   0.694   9.856  0.7097 -0.6935 -0.6955
   35POPC   C37 4740  -0.303   0.535   9.749 -0.6362 -0.4042  0.8092
   35POPC   H7X 4741  -0.412   0.553   9.759 -0.4034  0.4497  2.1839
   35POPC   H7Y 4742  -0.281   0.426   9.749 -2.7589 -0.8955  1.7245
   35POPC   C38 4743  -0.247   0.593   9.613  0.1953 -0.5244 -0.5282
   35POPC   H8X 4744  -0.144   0.557   9.592  0.4800 -0.6614  0.9942
   35POPC   H8Y 4745  -0.226   0.702   9.619 -2.0978  0.0926 -2.2953
   35POPC   C39 4746  -0.338   0.549   9.488 -0.7834 -0.4710 -0.2275
   35POPC   H9X 4747  -0.435   0.604   9.488 -0.3101  0.4596 -1.9141
   35POPC   H9Y 4748  -0.354   0.439   9.486 -0.2381 -0.5493 -0.4807
   35POPC  C310 4749  -0.269   0.588   9.356  0.4131  0.0523 -0.6069
   35POPC  H10X 4750  -0.171   0.537   9.349  0.2434 -0.3623 -0.0203
   35POPC  H10Y 4751  -0.248   0.697   9.366  1.4960 -0.3167  1.6884
   35POPC  C311 4752  -0.365   0.550   9.240  0.0262 -0.4445  0.3239
   35POPC  H11X 4753  -0.465   0.577   9.280 -0.5289 -0.3926 -1.0678
   35POPC  H11Y 4754  -0.353   0.440   9.237 -0.4253 -0.4797 -0.2453
   35POPC  C312 4755  -0.333   0.619   9.108 -0.0632 -0.5614  0.3195
   35POPC  H12X 4756  -0.235   0.580   9.072  1.0931  2.5008 -0.1671
   35POPC  H12Y 4757  -0.320   0.729   9.106  0.0451 -0.5223 -3.0168
   35POPC  C313 4758  -0.441   0.601   9.003 -0.3471 -0.2003  1.0648
   35POPC  H13X 4759  -0.548   0.618   9.028 -0.6859  0.6395 -0.7819
   35POPC  H13Y 4760  -0.430   0.495   8.970 -0.9531  0.4392 -1.3218
   35POPC  C314 4761  -0.413   0.683   8.873  0.6534  0.3997 -0.5307
   35POPC  H14X 4762  -0.319   0.644   8.830 -0.4069 -2.6840 -0.2559
   35POPC  H14Y 4763  -0.400   0.789   8.904 -2.4347  0.5165  0.7601
   35POPC  C315 4764  -0.527   0.678   8.775  0.1926  0.6641  0.4698
   35POPC  H15X 4765  -0.619   0.692   8.836 -0.2435 -3.4041  1.0111
   35POPC  H15Y 4766  -0.528   0.580   8.724  0.6809  1.1666 -0.5275
   35POPC  C316 4767  -0.511   0.784   8.661 -0.1181  0.4151  1.0033
   35POPC  H16X 4768  -0.421   0.774   8.598 -1.0311  0.3759 -0.3293
   35POPC  H16Y 4769  -0.519   0.884   8.710  2.1756  0.5006  1.2964
   35POPC  H16Z 4770  -0.597   0.765   8.594  0.5610 -1.7613  0.6790
   36POPC     N 4771   3.411   1.965  10.854 -0.0783  0.8118  0.5200
   36POPC   C12 4772   3.516   2.044  10.779  0.3412 -0.5049  0.0779
   36POPC  H12A 4773   3.534   1.991  10.687 -2.1597 -1.1652 -0.1087
   36POPC  H12B 4774   3.607   2.054  10.835 -0.1424 -1.9228  1.1651
   36POPC   C13 4775   3.278   1.964  10.792 -0.3060 -0.2273  0.0694
   36POPC  H13A 4776   3.249   2.067  10.785  1.0737  0.0832 -2.2410
   36POPC  H13B 4777   3.259   1.919  10.695  1.1037  2.5670 -1.6580
   36POPC  H13C 4778   3.213   1.914  10.862 -1.1481 -0.4097 -0.8219
   36POPC   C14 4779   3.459   1.827  10.858  0.5063  0.2004  0.6347
   36POPC  H14A 4780   3.449   1.782  10.760 -1.7899 -0.9540  1.3226
   36POPC  H14B 4781   3.561   1.817  10.892  1.0907  0.3415 -0.9876
   36POPC  H14C 4782   3.404   1.761  10.924 -0.8610  0.5297 -0.1477
   36POPC   C15 4783   3.390   2.024  10.989  0.6954  0.1484  0.8056
   36POPC  H15A 4784   3.461   1.991  11.063  1.5190  3.3330  1.5837
   36POPC  H15B 4785   3.296   1.984  11.023 -0.0336  0.6034 -0.5764
   36POPC  H15C 4786   3.379   2.132  10.987  1.9213  0.3687  3.0793
   36POPC   C11 4787   3.475   2.186  10.720 -0.2036  0.4347  0.8551
   36POPC  H11A 4788   3.388   2.177  10.651 -1.3102  0.7436  2.1505
   36POPC  H11B 4789   3.563   2.224  10.664 -0.7203  0.7081  0.2123
   36POPC     P 4790   3.532   2.371  10.886  0.2798  0.2184 -0.0479
   36POPC   O13 4791   3.668   2.312  10.871  0.0146  0.7681 -0.2927
   36POPC   O14 4792   3.477   2.403  11.022  0.2895 -0.5276  1.1645
   36POPC   O12 4793   3.427   2.278  10.816  0.2789  0.1600 -0.2774
   36POPC   O11 4794   3.517   2.490  10.790 -0.3956 -0.5340 -0.3491
   36POPC    C1 4795   3.584   2.503  10.665 -0.6754 -0.4429 -0.2758
   36POPC    HA 4796   3.660   2.423  10.649 -1.5474 -0.8131 -3.0914
   36POPC    HB 4797   3.635   2.602  10.659  1.5345 -1.5664 -1.0754
   36POPC    C2 4798   3.486   2.503  10.543 -0.4674 -0.4931  0.2488
   36POPC    HS 4799   3.459   2.399  10.519 -0.5148 -0.6469  0.9387
   36POPC   O21 4800   3.551   2.570  10.432 -0.4427 -0.0119 -1.0811
   36POPC   C21 4801   3.663   2.505  10.393  0.7559 -0.2725  0.1294
   36POPC   O22 4802   3.696   2.391  10.410  0.1328  0.1319  0.1929
   36POPC   C22 4803   3.739   2.603  10.300 -1.4992  0.1981 -0.7240
   36POPC   H2R 4804   3.802   2.665  10.367 -2.3516  2.1382 -1.6174
   36POPC   H2S 4805   3.659   2.659  10.246  0.4200  1.1069 -2.7876
   36POPC    C3 4806   3.346   2.576  10.570  0.5028 -0.8941 -0.1512
   36POPC    HX 4807   3.357   2.686  10.580 -2.5916 -0.3228 -1.8761
   36POPC    HY 4808   3.307   2.534  10.665 -1.5888  1.5328  0.1622
   36POPC   O31 4809   3.250   2.557  10.466  0.0784  0.0749 -0.4631
   36POPC   C31 4810   3.137   2.629  10.481 -0.5924  0.6507  0.2994
   36POPC   O32 4811   3.105   2.685  10.586  0.7413  0.1064  1.0093
   36POPC   C32 4812   3.057   2.616  10.350  0.3729  0.3634 -0.7258
   36POPC   H2X 4813   3.022   2.510  10.359  1.5993  0.1029  1.7300
   36POPC   H2Y 4814   3.127   2.607  10.264  0.1273 -1.1671 -0.8078
   36POPC   C23 4815   3.837   2.527  10.204 -0.1906 -0.1324  0.5546
   36POPC   H3R 4816   3.885   2.445  10.261  0.3396  0.0220  0.3371
   36POPC   H3S 4817   3.915   2.601  10.179  1.1429 -1.6612 -0.0024
   36POPC   C24 4818   3.766   2.467  10.079 -0.1825 -0.3876  0.0629
   36POPC   H4R 4819   3.665   2.431  10.107  0.0892 -0.6318  0.7556
   36POPC   H4S 4820   3.826   2.377  10.056 -1.7656 -0.9802 -2.0503
   36POPC   C25 4821   3.773   2.559   9.957  0.0946  0.6858 -0.0679
   36POPC   H5R 4822   3.880   2.584   9.942  0.9494 -3.1720 -1.3919
   36POPC   H5S 4823   3.714   2.652   9.975 -4.0384 -1.7380  0.0603
   36POPC   C26 4824   3.713   2.493   9.829  0.4737 -0.3358  0.1851
   36POPC   H6R 4825   3.602   2.491   9.827  0.3934  2.0353 -0.6634
   36POPC   H6S 4826   3.752   2.389   9.820  0.6009 -0.4404  1.7020
   36POPC   C27 4827   3.752   2.567   9.703  0.3822 -0.8091 -0.0409
   36POPC   H7R 4828   3.861   2.582   9.688  0.5849 -3.4782 -2.1230
   36POPC   H7S 4829   3.716   2.671   9.713  2.5024  0.0648 -0.8596
   36POPC   C28 4830   3.683   2.511   9.576 -1.0206  0.0989  0.0932
   36POPC   H8R 4831   3.689   2.592   9.500  3.6751  0.1933  0.3141
   36POPC   H8S 4832   3.576   2.488   9.598 -1.3863  0.0521 -1.5776
   36POPC   C29 4833   3.753   2.383   9.530  0.7239  0.3665  0.1882
   36POPC   H91 4834   3.795   2.326   9.614 -1.9604 -0.5578  1.0087
   36POPC  C210 4835   3.774   2.344   9.403  0.5680 -0.5587  0.5621
   36POPC  H101 4836   3.825   2.248   9.390  0.6006 -0.6163  1.0903
   36POPC  C211 4837   3.743   2.413   9.269 -0.2412 -0.8372  0.1258
   36POPC  H11R 4838   3.846   2.441   9.241  0.3409 -1.5281  1.4985
   36POPC  H11S 4839   3.685   2.507   9.284  0.5805 -0.3274  0.1642
   36POPC  C212 4840   3.683   2.336   9.144 -0.4875  0.2771 -0.0587
   36POPC  H12R 4841   3.583   2.300   9.174  0.6082 -3.3732 -0.2583
   36POPC  H12S 4842   3.744   2.247   9.119  2.0091  1.7139  0.5388
   36POPC  C213 4843   3.663   2.415   9.019  0.3871 -0.7936  0.3380
   36POPC  H13R 4844   3.574   2.477   9.047  0.4822 -0.9049  0.8911
   36POPC  H13S 4845   3.640   2.350   8.932  1.2111 -0.8322  0.1401
   36POPC  C214 4846   3.788   2.503   8.976 -0.2033  0.4298 -0.3177
   36POPC  H14R 4847   3.887   2.452   8.968  0.3217  0.9172  2.1421
   36POPC  H14S 4848   3.796   2.583   9.053  0.2990  1.1092 -1.0591
   36POPC  C215 4849   3.751   2.565   8.842  0.2532 -0.6259  0.7152
   36POPC  H15R 4850   3.657   2.618   8.866 -0.8218 -2.4459  0.7370
   36POPC  H15S 4851   3.729   2.486   8.766  0.7283  0.5084 -0.6467
   36POPC  C216 4852   3.859   2.659   8.781  0.1766  0.7754 -0.3319
   36POPC  H16R 4853   3.939   2.589   8.751 -0.2922 -0.7990  1.8367
   36POPC  H16S 4854   3.904   2.724   8.859  1.8665  0.9577 -1.4100
   36POPC  C217 4855   3.805   2.749   8.672  0.0759 -0.0747 -0.1062
   36POPC  H17R 4856   3.708   2.794   8.702  1.3156  3.0420 -0.3422
   36POPC  H17S 4857   3.761   2.698   8.584  1.0589  0.1772 -0.7597
   36POPC  C218 4858   3.905   2.855   8.616  0.1451 -0.3465  0.0239
   36POPC  H18R 4859   3.997   2.804   8.580  0.1081 -0.2010 -0.2847
   36POPC  H18S 4860   3.928   2.927   8.696 -0.0644  0.4824 -0.6463
   36POPC  H18T 4861   3.845   2.896   8.532  2.9409  2.4166 -0.8203
   36POPC   C33 4862   2.955   2.724  10.330  0.2350 -0.2407  0.1090
   36POPC   H3X 4863   3.008   2.820  10.340  0.4207 -0.1534 -1.4335
   36POPC   H3Y 4864   2.884   2.709  10.414  0.2114  1.3101  0.3926
   36POPC   C34 4865   2.878   2.717  10.201 -1.1513 -0.1301  0.0112
   36POPC   H4X 4866   2.803   2.799  10.190 -0.7727  0.0876 -1.0373
   36POPC   H4Y 4867   2.826   2.621  10.181  0.4499 -0.6097 -2.2032
   36POPC   C35 4868   2.967   2.732  10.069  0.1627 -0.3999 -0.3256
   36POPC   H5X 4869   3.018   2.634  10.076  0.6250 -0.0955  0.9899
   36POPC   H5Y 4870   3.041   2.813  10.084  2.9038 -2.1813 -3.0585
   36POPC   C36 4871   2.865   2.751   9.946 -0.1256 -0.3903  0.1589
   36POPC   H6X 4872   2.812   2.847   9.964 -0.6109 -0.7300  0.5660
   36POPC   H6Y 4873   2.782   2.677   9.948 -1.4238  1.0479  0.9507
   36POPC   C37 4874   2.937   2.764   9.806 -0.5274  0.1186  0.0459
   36POPC   H7X 4875   2.984   2.667   9.778 -0.3271  0.8604 -2.4889
   36POPC   H7Y 4876   3.016   2.841   9.816  0.8880 -1.3494  0.5368
   36POPC   C38 4877   2.840   2.798   9.686 -0.2094  0.3036  0.3243
   36POPC   H8X 4878   2.820   2.907   9.700  3.2811  1.3434 -1.5346
   36POPC   H8Y 4879   2.742   2.747   9.699  0.4974 -0.9729  0.8577
   36POPC   C39 4880   2.890   2.766   9.542  0.3548  0.3396  0.0953
   36POPC   H9X 4881   2.802   2.767   9.475 -1.1324 -0.5400  1.9506
   36POPC   H9Y 4882   2.932   2.664   9.554 -2.4289 -0.9212 -0.0652
   36POPC  C310 4883   2.987   2.874   9.503  0.4247 -0.5391  0.1362
   36POPC  H10X 4884   3.058   2.895   9.586 -2.8392  1.8793  2.5910
   36POPC  H10Y 4885   2.928   2.966   9.484  2.0686  0.2968 -1.1625
   36POPC  C311 4886   3.064   2.832   9.383  0.0319  0.3540  0.0591
   36POPC  H11X 4887   3.059   2.722   9.364  0.4082  0.6088 -1.6288
   36POPC  H11Y 4888   3.167   2.872   9.377  0.3197 -0.3601  0.1698
   36POPC  C312 4889   3.000   2.896   9.261 -0.0302 -0.1743  0.2750
   36POPC  H12X 4890   3.000   3.006   9.272 -0.3571  0.0144 -1.3724
   36POPC  H12Y 4891   2.898   2.854   9.246  0.5152 -0.8488 -1.9878
   36POPC  C313 4892   3.083   2.866   9.141 -1.1991 -0.3681  0.1027
   36POPC  H13X 4893   3.077   2.756   9.124 -0.9037 -0.6131  1.4572
   36POPC  H13Y 4894   3.184   2.894   9.176 -2.1571  0.2487  2.6080
   36POPC  C314 4895   3.036   2.934   9.015 -0.3787 -0.1481  0.0925
   36POPC  H14X 4896   3.033   3.045   9.018 -1.8197 -0.1730  2.5226
   36POPC  H14Y 4897   2.932   2.895   9.015 -0.3076 -0.4109  1.4987
   36POPC  C315 4898   3.117   2.888   8.894  0.1688  0.0649  0.3240
   36POPC  H15X 4899   3.066   2.897   8.796  1.8991 -0.7778 -0.6958
   36POPC  H15Y 4900   3.135   2.780   8.909  1.0537 -0.2724 -2.5663
   36POPC  C316 4901   3.254   2.958   8.885  0.1131  0.1103  0.3836
   36POPC  H16X 4902   3.316   2.907   8.807  4.0662  2.1472  1.9385
   36POPC  H16Y 4903   3.305   2.953   8.983  1.6791  0.2972 -0.4036
   36POPC  H16Z 4904   3.243   3.060   8.844 -0.0789 -0.2001 -0.3576
   37POPC     N 4905   0.357   2.166   6.527 -0.6354  0.1282  0.3207
   37POPC   C12 4906   0.284   2.163   6.664  0.1654  0.5521 -0.0758
   37POPC  H12A 4907   0.341   2.094   6.725  0.3624 -0.4422 -1.3462
   37POPC  H12B 4908   0.196   2.102   6.653 -0.5064  1.4911 -0.0392
   37POPC   C13 4909   0.363   2.026   6.469 -0.1506 -0.0965 -0.1282
   37POPC  H13A 4910   0.412   2.034   6.373 -1.6580 -0.0167 -0.9202
   37POPC  H13B 4911   0.422   1.965   6.537 -2.0515  1.4916  3.1814
   37POPC  H13C 4912   0.270   1.975   6.453  1.0194 -2.1457 -0.8330
   37POPC   C14 4913   0.296   2.262   6.431 -0.0901 -0.4704  0.5779
   37POPC  H14A 4914   0.276   2.358   6.475 -0.8986 -0.7304  0.8060
   37POPC  H14B 4915   0.355   2.274   6.342 -0.3760  0.1538  0.4691
   37POPC  H14C 4916   0.192   2.237   6.414 -0.1995  1.1720 -1.5508
   37POPC   C15 4917   0.500   2.212   6.548  0.2157 -0.3354  0.0766
   37POPC  H15A 4918   0.546   2.142   6.616 -1.5883 -0.2474  1.4834
   37POPC  H15B 4919   0.510   2.315   6.578  0.9115 -0.6076  0.8077
   37POPC  H15C 4920   0.548   2.196   6.452 -2.0426 -0.8143 -1.0725
   37POPC   C11 4921   0.252   2.291   6.736 -0.0281 -0.4307  0.4118
   37POPC  H11A 4922   0.348   2.347   6.742 -0.4826  0.2417  2.6165
   37POPC  H11B 4923   0.225   2.276   6.843  2.0849 -0.2058  1.0263
   37POPC     P 4924   0.002   2.300   6.679 -0.1429 -0.3007 -0.1376
   37POPC   O13 4925  -0.022   2.172   6.609 -0.7693 -0.7811 -0.5593
   37POPC   O14 4926  -0.091   2.400   6.631 -0.3232  0.7148 -0.2259
   37POPC   O12 4927   0.146   2.356   6.663  0.1019  0.2174 -0.1268
   37POPC   O11 4928  -0.018   2.273   6.840  0.4866 -0.6042  0.2562
   37POPC    C1 4929  -0.121   2.346   6.913  0.1542 -0.1879  0.9853
   37POPC    HA 4930  -0.113   2.301   7.014  2.4365 -0.2378  0.8398
   37POPC    HB 4931  -0.223   2.337   6.869  1.2005 -1.3652 -1.4109
   37POPC    C2 4932  -0.090   2.500   6.923  0.0591 -0.2581 -0.3028
   37POPC    HS 4933  -0.111   2.548   6.825  1.5142 -0.2923 -0.6577
   37POPC   O21 4934   0.049   2.511   6.956 -0.1131  0.0475 -0.4316
   37POPC   C21 4935   0.096   2.630   6.945  0.5807  0.7543  0.2864
   37POPC   O22 4936   0.034   2.725   6.890 -0.1832  0.5100  0.1994
   37POPC   C22 4937   0.239   2.629   7.002  0.1338  0.2884 -0.6752
   37POPC   H2R 4938   0.304   2.669   6.921  0.9654 -0.7879 -0.5682
   37POPC   H2S 4939   0.261   2.524   7.029 -0.4200  0.2822 -0.2281
   37POPC    C3 4940  -0.179   2.560   7.041 -0.0113 -0.6415 -0.7648
   37POPC    HX 4941  -0.288   2.558   7.020 -0.4492 -0.7445  1.2932
   37POPC    HY 4942  -0.153   2.668   7.050 -2.3083 -0.0682 -0.3323
   37POPC   O31 4943  -0.158   2.494   7.169  0.2442  0.4312 -0.1801
   37POPC   C31 4944  -0.216   2.553   7.273  0.3449  0.5244  0.8431
   37POPC   O32 4945  -0.271   2.661   7.271 -0.0945  0.1065 -0.2013
   37POPC   C32 4946  -0.194   2.470   7.403  0.0108  0.0125 -0.2408
   37POPC   H2X 4947  -0.087   2.483   7.432  0.5465 -2.3363 -0.9654
   37POPC   H2Y 4948  -0.214   2.363   7.383 -0.5337  0.1816 -0.6192
   37POPC   C23 4949   0.263   2.728   7.120 -0.2227 -0.0509  0.2115
   37POPC   H3R 4950   0.223   2.826   7.086  1.9460  0.6207 -0.5813
   37POPC   H3S 4951   0.372   2.740   7.141 -0.1822  0.1993 -0.1195
   37POPC   C24 4952   0.193   2.684   7.254  0.2967  0.4252  0.0609
   37POPC   H4R 4953   0.253   2.597   7.291  0.0464 -0.4840 -1.5675
   37POPC   H4S 4954   0.091   2.647   7.229  0.6188 -0.6471  0.2690
   37POPC   C25 4955   0.196   2.789   7.366  0.3962  0.3836  0.0932
   37POPC   H5R 4956   0.158   2.889   7.340  3.8027  2.3897  2.0722
   37POPC   H5S 4957   0.302   2.795   7.399  0.2315 -0.4680  0.8273
   37POPC   C26 4958   0.102   2.741   7.477 -0.6482  0.2641 -0.0846
   37POPC   H6R 4959   0.134   2.644   7.520  0.3358  0.0055 -1.3555
   37POPC   H6S 4960   0.001   2.724   7.434 -0.2426  2.6941 -2.2499
   37POPC   C27 4961   0.090   2.836   7.601 -0.3764 -0.0680  0.3701
   37POPC   H7R 4962   0.056   2.933   7.559  1.5775 -1.1122 -4.3117
   37POPC   H7S 4963   0.187   2.842   7.655 -0.4001 -0.8255  0.5065
   37POPC   C28 4964  -0.010   2.786   7.705 -0.2974  0.6359  0.0237
   37POPC   H8R 4965  -0.112   2.777   7.661 -0.2079 -0.4466  0.0136
   37POPC   H8S 4966  -0.019   2.870   7.777 -1.6325 -0.7481  1.5396
   37POPC   C29 4967   0.028   2.645   7.757  0.0246 -0.0856 -0.0933
   37POPC   H91 4968  -0.006   2.560   7.696 -0.5405  0.3542 -0.4037
   37POPC  C210 4969   0.084   2.625   7.875  0.2206  0.5690  1.2065
   37POPC  H101 4970   0.104   2.522   7.908 -0.1600  0.5947  1.5207
   37POPC  C211 4971   0.115   2.737   7.970  0.0429  0.5534  0.2694
   37POPC  H11R 4972   0.030   2.756   8.039  1.3243  2.5747  1.3996
   37POPC  H11S 4973   0.129   2.833   7.916 -0.6862 -0.3057 -1.5306
   37POPC  C212 4974   0.237   2.702   8.052 -0.0764  0.0601 -0.1719
   37POPC  H12R 4975   0.330   2.696   7.992 -0.2396  0.4158 -0.4634
   37POPC  H12S 4976   0.223   2.600   8.094 -0.3538 -0.3058 -1.1270
   37POPC  C213 4977   0.253   2.795   8.168 -0.5990 -0.1319 -0.5052
   37POPC  H13R 4978   0.354   2.778   8.209  0.6051  2.6960 -2.0344
   37POPC  H13S 4979   0.180   2.769   8.248 -0.2229  1.7774  0.5026
   37POPC  C214 4980   0.245   2.950   8.140 -0.3340  0.0748  0.0766
   37POPC  H14R 4981   0.147   2.975   8.094 -0.7532 -3.1549 -1.0422
   37POPC  H14S 4982   0.323   2.973   8.065 -0.6694  0.3597 -0.1885
   37POPC  C215 4983   0.263   3.018   8.275 -0.5063 -0.6801 -0.3256
   37POPC  H15R 4984   0.365   3.001   8.316 -0.8434 -0.7742  0.4841
   37POPC  H15S 4985   0.193   2.982   8.353 -1.2519  1.1959 -0.0699
   37POPC  C216 4986   0.229   3.167   8.260 -0.1074  0.1605  0.4692
   37POPC  H16R 4987   0.124   3.192   8.234  0.3967  1.4937 -0.3601
   37POPC  H16S 4988   0.284   3.200   8.170 -2.0789 -0.7857 -1.1445
   37POPC  C217 4989   0.278   3.261   8.369  0.0918  0.1832  1.1379
   37POPC  H17R 4990   0.387   3.245   8.384 -0.0948 -1.9588  0.5671
   37POPC  H17S 4991   0.223   3.218   8.456 -2.1756 -0.8820 -0.7011
   37POPC  C218 4992   0.231   3.412   8.364 -0.7875  0.2152 -0.4154
   37POPC  H18R 4993   0.271   3.479   8.285  1.2850  0.5854  0.8829
   37POPC  H18S 4994   0.258   3.460   8.460 -0.7974  0.5279 -0.5676
   37POPC  H18T 4995   0.120   3.420   8.364 -0.8477 -0.5289  0.4530
   37POPC   C33 4996  -0.290   2.509   7.519 -0.4249  0.0605  0.2037
   37POPC   H3X 4997  -0.392   2.499   7.475  0.0113  0.8419 -1.0512
   37POPC   H3Y 4998  -0.276   2.615   7.549 -2.7205  0.5653 -0.2352
   37POPC   C34 4999  -0.279   2.419   7.636  0.2816 -0.4356 -0.1129
   37POPC   H4X 5000  -0.179   2.418   7.684 -0.3936 -1.2843  1.3411
   37POPC   H4Y 5001  -0.308   2.313   7.616  0.0919 -1.1364  3.3690
   37POPC   C35 5002  -0.371   2.470   7.753 -0.0942  0.5398 -0.0260
   37POPC   H5X 5003  -0.465   2.507   7.706 -0.6125  1.2948  1.5635
   37POPC   H5Y 5004  -0.321   2.553   7.807  0.1727  1.6006 -1.8199
   37POPC   C36 5005  -0.405   2.358   7.855 -0.6514 -0.2416  0.0416
   37POPC   H6X 5006  -0.316   2.293   7.868 -1.0435 -0.5595  1.3027
   37POPC   H6Y 5007  -0.476   2.294   7.798 -0.7263  1.3350 -1.7304
   37POPC   C37 5008  -0.463   2.402   7.988  0.5733  0.1718 -0.6359
   37POPC   H7X 5009  -0.383   2.463   8.034  0.7872 -0.4556 -0.1597
   37POPC   H7Y 5010  -0.479   2.312   8.052 -1.2901  0.7999 -0.1532
   37POPC   C38 5011  -0.597   2.481   7.965 -0.2157 -0.4953 -0.2296
   37POPC   H8X 5012  -0.676   2.416   7.923 -1.6772 -0.0350  1.6536
   37POPC   H8Y 5013  -0.574   2.555   7.885 -0.7933  0.6427  0.6156
   37POPC   C39 5014  -0.651   2.548   8.090 -0.1622 -0.5411  0.5476
   37POPC   H9X 5015  -0.724   2.629   8.067  1.2551  0.6712  0.2009
   37POPC   H9Y 5016  -0.568   2.604   8.137  0.7662  0.4585 -2.0888
   37POPC  C310 5017  -0.715   2.441   8.181  0.7893  0.4851  0.0944
   37POPC  H10X 5018  -0.685   2.458   8.286 -0.2461 -1.8322  0.8209
   37POPC  H10Y 5019  -0.673   2.342   8.156  0.3819 -0.0334  1.3798
   37POPC  C311 5020  -0.871   2.426   8.201 -0.2273 -0.3693  0.4462
   37POPC  H11X 5021  -0.922   2.391   8.109  1.4895 -1.7521 -0.0221
   37POPC  H11Y 5022  -0.912   2.524   8.234 -1.3007 -1.3006  2.0349
   37POPC  C312 5023  -0.917   2.319   8.307 -0.1848  0.0258  0.0362
   37POPC  H12X 5024  -0.858   2.338   8.399 -2.2869  0.7828  1.3034
   37POPC  H12Y 5025  -0.884   2.225   8.259 -0.5616  0.1318 -0.4436
   37POPC  C313 5026  -1.065   2.334   8.338 -0.0971 -0.1551 -0.7084
   37POPC  H13X 5027  -1.101   2.437   8.319 -1.3349 -0.3228  0.5015
   37POPC  H13Y 5028  -1.084   2.296   8.441  1.0434 -0.0283 -0.4449
   37POPC  C314 5029  -1.158   2.250   8.239 -0.1067  0.4601 -0.5459
   37POPC  H14X 5030  -1.150   2.279   8.132  0.0223 -0.8700 -0.9080
   37POPC  H14Y 5031  -1.263   2.270   8.268 -0.3921 -1.6560  0.0692
   37POPC  C315 5032  -1.121   2.094   8.244 -0.0572 -0.1420 -0.0862
   37POPC  H15X 5033  -1.126   2.060   8.350 -2.2604 -2.7806 -0.9097
   37POPC  H15Y 5034  -1.017   2.074   8.211 -1.2777 -1.4354 -3.6422
   37POPC  C316 5035  -1.213   2.007   8.159 -0.6768  0.6755 -0.1198
   37POPC  H16X 5036  -1.317   2.000   8.198 -1.5302 -2.5147 -2.5506
   37POPC  H16Y 5037  -1.172   1.903   8.153  0.1772  1.1058 -2.4556
   37POPC  H16Z 5038  -1.220   2.035   8.052 -1.0854  1.4108  0.0969
   38POPC     N 5039   2.729   3.179   6.308  0.3910 -0.1020  0.1309
   38POPC   C12 5040   2.676   3.296   6.229  0.3074  1.0777  0.3238
   38POPC  H12A 5041   2.578   3.265   6.193  1.6993 -3.2462 -0.3135
   38POPC  H12B 5042   2.742   3.305   6.144  0.8076 -0.9456  0.4442
   38POPC   C13 5043   2.878   3.192   6.320 -0.2942  0.1141  0.1736
   38POPC  H13A 5044   2.927   3.123   6.388 -0.7722  0.7845  1.2375
   38POPC  H13B 5045   2.924   3.213   6.225 -1.1403  1.0410 -0.0541
   38POPC  H13C 5046   2.899   3.288   6.366  2.5049 -1.0461  1.5336
   38POPC   C14 5047   2.659   3.164   6.442  0.4878 -0.0557 -0.2041
   38POPC  H14A 5048   2.704   3.096   6.512  0.8528 -0.2714 -0.6424
   38POPC  H14B 5049   2.662   3.265   6.481 -0.7205  0.1316 -0.5772
   38POPC  H14C 5050   2.554   3.144   6.428  0.8180 -1.0895 -1.3926
   38POPC   C15 5051   2.700   3.057   6.229 -0.0260 -0.2981  0.8531
   38POPC  H15A 5052   2.735   3.053   6.127  1.0100  0.3899  1.1661
   38POPC  H15B 5053   2.594   3.037   6.221 -0.6341  2.6184  0.6558
   38POPC  H15C 5054   2.758   2.973   6.264  0.3960 -0.2671  0.2512
   38POPC   C11 5055   2.670   3.429   6.300 -0.0177 -0.0161  0.0924
   38POPC  H11A 5056   2.640   3.501   6.221  1.9366  0.1935 -0.5154
   38POPC  H11B 5057   2.770   3.455   6.342 -0.4726  3.9023 -0.8172
   38POPC     P 5058   2.415   3.425   6.385  0.1854  0.2477 -0.3297
   38POPC   O13 5059   2.356   3.305   6.453  0.1494  0.1273 -0.1419
   38POPC   O14 5060   2.388   3.431   6.240  0.0893  0.5305 -0.2954
   38POPC   O12 5061   2.576   3.426   6.409  0.1849  0.4857 -0.5038
   38POPC   O11 5062   2.366   3.560   6.445  0.1803 -0.5122 -0.1599
   38POPC    C1 5063   2.457   3.668   6.481  0.3266 -0.7575 -0.6488
   38POPC    HA 5064   2.414   3.769   6.463  1.9563 -0.1098 -1.0565
   38POPC    HB 5065   2.553   3.662   6.426  0.1959 -0.7133 -0.8853
   38POPC    C2 5066   2.482   3.682   6.637 -0.1257  1.0995 -0.1426
   38POPC    HS 5067   2.498   3.791   6.652  0.2662  1.0257 -0.0076
   38POPC   O21 5068   2.592   3.602   6.682 -0.3278  0.4874  0.4402
   38POPC   C21 5069   2.718   3.650   6.657  0.3971 -0.2943  0.5869
   38POPC   O22 5070   2.733   3.761   6.609  0.3044  0.4758  0.0302
   38POPC   C22 5071   2.818   3.547   6.704  0.0276  0.3298  0.7711
   38POPC   H2R 5072   2.918   3.594   6.711  0.4695 -0.3483 -0.5740
   38POPC   H2S 5073   2.827   3.481   6.615  0.0960  1.9233 -0.4769
   38POPC    C3 5074   2.355   3.637   6.727 -0.3013  0.0697  0.0102
   38POPC    HX 5075   2.324   3.540   6.682 -0.9145  0.3645 -0.2180
   38POPC    HY 5076   2.269   3.706   6.713 -0.6656  0.0937  2.0791
   38POPC   O31 5077   2.382   3.628   6.870 -0.1440 -0.3373  0.2369
   38POPC   C31 5078   2.372   3.507   6.923 -0.5714  0.3796 -0.4560
   38POPC   O32 5079   2.354   3.403   6.869 -0.0236  0.4351  0.6914
   38POPC   C32 5080   2.384   3.542   7.074  0.0978  0.3757  0.6408
   38POPC   H2X 5081   2.331   3.636   7.102  0.3878  0.1665  1.9516
   38POPC   H2Y 5082   2.490   3.558   7.101  0.1899  2.4047 -0.7173
   38POPC   C23 5083   2.776   3.466   6.827  0.1091 -0.1867 -1.1923
   38POPC   H3R 5084   2.852   3.384   6.828  1.1323  0.7462 -0.9078
   38POPC   H3S 5085   2.673   3.426   6.822  0.0873 -0.3982  0.4866
   38POPC   C24 5086   2.796   3.546   6.956  0.3161  0.2200  0.2056
   38POPC   H4R 5087   2.729   3.634   6.959 -1.0356 -0.7851  2.2157
   38POPC   H4S 5088   2.905   3.567   6.958  0.7200 -1.2495 -2.1527
   38POPC   C25 5089   2.756   3.466   7.080  0.4749 -0.0296  0.5446
   38POPC   H5R 5090   2.825   3.381   7.099  1.0465  0.4371  0.5849
   38POPC   H5S 5091   2.653   3.426   7.066  0.1856  0.8741  0.0511
   38POPC   C26 5092   2.756   3.549   7.206 -0.6295 -0.1445 -0.4339
   38POPC   H6R 5093   2.690   3.638   7.195 -0.5221 -0.2623 -2.2658
   38POPC   H6S 5094   2.860   3.586   7.215 -1.3093  1.8549 -0.2503
   38POPC   C27 5095   2.718   3.459   7.327  0.3425 -1.8223 -0.1016
   38POPC   H7R 5096   2.790   3.375   7.320  0.7988 -1.3576 -1.0945
   38POPC   H7S 5097   2.617   3.420   7.300 -0.2814 -0.7296  0.5802
   38POPC   C28 5098   2.741   3.527   7.460 -0.1921  0.0189  0.4169
   38POPC   H8R 5099   2.847   3.559   7.456  0.4849 -1.9633  1.4250
   38POPC   H8S 5100   2.743   3.447   7.537  0.7998 -0.0861  0.2996
   38POPC   C29 5101   2.648   3.639   7.488 -0.6024 -0.3475 -0.4738
   38POPC   H91 5102   2.640   3.718   7.412  0.3991  0.7394  0.5011
   38POPC  C210 5103   2.573   3.668   7.592  0.9977 -0.1112 -0.6121
   38POPC  H101 5104   2.518   3.763   7.586  0.6488 -0.3689 -1.7680
   38POPC  C211 5105   2.555   3.585   7.710 -0.0069 -0.6023  0.0591
   38POPC  H11R 5106   2.631   3.505   7.714  1.7409  0.9533 -0.4045
   38POPC  H11S 5107   2.459   3.529   7.708 -0.3641 -0.1826  2.5562
   38POPC  C212 5108   2.565   3.668   7.842 -0.3243 -0.1961  0.3391
   38POPC  H12R 5109   2.490   3.750   7.840  0.5677  0.6233 -0.4386
   38POPC  H12S 5110   2.665   3.715   7.854 -0.2583 -0.2980  0.1805
   38POPC  C213 5111   2.549   3.581   7.969 -0.9950  0.4596  0.0995
   38POPC  H13R 5112   2.641   3.528   8.003 -0.3412  1.7468  0.4104
   38POPC  H13S 5113   2.463   3.515   7.948 -0.9351 -0.0791  1.4159
   38POPC  C214 5114   2.508   3.660   8.094  0.2527  0.0710 -0.1355
   38POPC  H14R 5115   2.481   3.599   8.183  0.9900 -0.2072 -0.0943
   38POPC  H14S 5116   2.421   3.726   8.071 -0.6811 -0.6009  1.3453
   38POPC  C215 5117   2.621   3.758   8.143 -0.5735 -0.9655  0.5045
   38POPC  H15R 5118   2.655   3.817   8.055 -2.6398 -1.1808 -0.4917
   38POPC  H15S 5119   2.711   3.702   8.177  0.6446  1.1752  0.9347
   38POPC  C216 5120   2.580   3.862   8.250  0.0246  1.2047  0.1469
   38POPC  H16R 5121   2.666   3.876   8.319  0.4201  0.4005 -0.1681
   38POPC  H16S 5122   2.500   3.817   8.312  1.8569 -0.6303  1.2933
   38POPC  C217 5123   2.547   4.005   8.201 -0.4959 -0.5665  0.3523
   38POPC  H17R 5124   2.628   4.052   8.141 -1.0209  1.1637  0.9269
   38POPC  H17S 5125   2.562   4.065   8.293  0.4740  0.7974 -0.6476
   38POPC  C218 5126   2.408   4.039   8.159 -0.0015 -0.5198 -0.0850
   38POPC  H18R 5127   2.321   3.985   8.202  0.9818 -2.3636 -0.2817
   38POPC  H18S 5128   2.409   4.018   8.049  1.1951  2.1282 -0.6601
   38POPC  H18T 5129   2.389   4.147   8.177  0.0575 -0.2711 -1.4057
   38POPC   C33 5130   2.305   3.444   7.160 -0.4475  0.0372  0.1730
   38POPC   H3X 5131   2.337   3.339   7.141  2.8182  1.0251 -0.4180
   38POPC   H3Y 5132   2.200   3.457   7.126 -0.4235  3.0261  0.9327
   38POPC   C34 5133   2.325   3.459   7.313  0.2685  0.5076  0.3295
   38POPC   H4X 5134   2.295   3.565   7.328  0.6187  0.6788 -0.2030
   38POPC   H4Y 5135   2.435   3.458   7.329  0.3004 -0.7779  0.1115
   38POPC   C35 5136   2.250   3.353   7.397 -0.4764 -0.0703  0.0423
   38POPC   H5X 5137   2.290   3.251   7.380 -0.6298 -0.0637 -0.3876
   38POPC   H5Y 5138   2.140   3.349   7.381 -0.4059 -1.2981 -0.2204
   38POPC   C36 5139   2.280   3.384   7.546  0.5072  0.2448  0.0022
   38POPC   H6X 5140   2.220   3.471   7.580 -1.0843 -0.6559 -0.4012
   38POPC   H6Y 5141   2.390   3.395   7.558  0.5364 -0.3557  0.3062
   38POPC   C37 5142   2.257   3.268   7.645 -0.0113  0.2147  0.1675
   38POPC   H7X 5143   2.333   3.190   7.622  0.4654  0.4500  0.9318
   38POPC   H7Y 5144   2.161   3.217   7.620 -0.1522  1.3980 -1.9594
   38POPC   C38 5145   2.275   3.293   7.796 -0.3337 -0.1536 -0.3990
   38POPC   H8X 5146   2.202   3.371   7.825  0.7589  0.0484  2.0647
   38POPC   H8Y 5147   2.366   3.354   7.819 -1.5133  1.0696  1.2726
   38POPC   C39 5148   2.262   3.178   7.899 -0.5013  0.2173  0.6213
   38POPC   H9X 5149   2.344   3.104   7.889 -1.5912 -0.8400 -0.8386
   38POPC   H9Y 5150   2.174   3.118   7.870  0.0466 -0.6269  0.6602
   38POPC  C310 5151   2.262   3.220   8.042 -0.0104 -0.0568  0.2945
   38POPC  H10X 5152   2.177   3.287   8.067 -2.1388 -2.9400  1.3160
   38POPC  H10Y 5153   2.360   3.264   8.073  1.0973 -1.8860 -0.4357
   38POPC  C311 5154   2.267   3.097   8.127 -0.1205  0.2536 -0.1959
   38POPC  H11X 5155   2.360   3.044   8.097  1.0300  1.0300  1.7677
   38POPC  H11Y 5156   2.186   3.021   8.125 -1.1692  1.3509 -0.5419
   38POPC  C312 5157   2.287   3.147   8.275  0.2873  0.1759 -0.3581
   38POPC  H12X 5158   2.204   3.216   8.301  0.5843 -0.4297  2.5669
   38POPC  H12Y 5159   2.380   3.206   8.277  0.7253 -0.4269 -1.7646
   38POPC  C313 5160   2.304   3.030   8.372 -0.3262 -0.1933  0.0015
   38POPC  H13X 5161   2.411   3.002   8.376  0.0680  0.9391 -1.8720
   38POPC  H13Y 5162   2.245   2.951   8.320  0.9988 -0.3014 -1.3866
   38POPC  C314 5163   2.257   3.046   8.521 -0.0361 -0.3388  0.3572
   38POPC  H14X 5164   2.225   2.944   8.550 -0.7477  0.4068  2.3848
   38POPC  H14Y 5165   2.168   3.114   8.522 -0.2244 -0.5253 -0.9939
   38POPC  C315 5166   2.364   3.096   8.616  0.3141 -0.9420  0.1569
   38POPC  H15X 5167   2.316   3.099   8.717 -2.0041  1.3520 -0.8943
   38POPC  H15Y 5168   2.404   3.196   8.588 -1.3030  0.0336  1.1400
   38POPC  C316 5169   2.484   2.994   8.632  0.0720 -0.1395  0.2426
   38POPC  H16X 5170   2.554   3.023   8.551  0.3017  1.7362  1.0516
   38POPC  H16Y 5171   2.455   2.887   8.634  2.1503 -0.7543 -0.4338
   38POPC  H16Z 5172   2.527   3.006   8.734 -0.1658  1.0618  0.2196
   39POPC     N 5173   5.889   3.839   5.989  0.8897  0.2142  0.4896
   39POPC   C12 5174   5.892   3.909   6.122  0.1401  0.1677 -0.3583
   39POPC  H12A 5175   5.792   3.910   6.164  1.0840 -2.2477  2.2769
   39POPC  H12B 5176   5.924   4.012   6.126  0.6257  0.0875 -1.7984
   39POPC   C13 5177   5.794   3.725   5.988  0.7066  0.6734  0.2235
   39POPC  H13A 5178   5.817   3.659   6.070  0.0834 -0.9106 -0.8356
   39POPC  H13B 5179   5.691   3.747   6.010  0.7334 -0.8570  2.1183
   39POPC  H13C 5180   5.799   3.673   5.894  0.6100 -2.3735  1.7895
   39POPC   C14 5181   5.829   3.939   5.894  0.1053  0.1523  0.0763
   39POPC  H14A 5182   5.833   3.893   5.796  2.2119 -0.1606  0.2651
   39POPC  H14B 5183   5.722   3.951   5.909 -0.0032  1.8041 -1.5765
   39POPC  H14C 5184   5.876   4.036   5.893 -1.8757  1.2335 -2.6274
   39POPC   C15 5185   6.016   3.795   5.926  0.5007 -0.0927 -0.3076
   39POPC  H15A 5186   6.002   3.725   5.844  0.4110 -2.9575  1.9803
   39POPC  H15B 5187   6.078   3.748   6.000 -0.6958 -0.2169  0.6560
   39POPC  H15C 5188   6.070   3.880   5.887 -1.8955  1.1130 -1.2190
   39POPC   C11 5189   5.965   3.822   6.236 -0.2105  0.2615  0.4864
   39POPC  H11A 5190   5.920   3.721   6.234  1.6606 -0.6011  0.4554
   39POPC  H11B 5191   5.940   3.868   6.334  1.7109  0.1611  1.0436
   39POPC     P 5192   6.209   3.924   6.257 -0.4116  0.2153  0.0419
   39POPC   O13 5193   6.196   4.046   6.175 -0.6897 -0.1981 -0.1572
   39POPC   O14 5194   6.344   3.863   6.252  0.3005 -0.4611 -0.0451
   39POPC   O12 5195   6.104   3.813   6.210  0.3875  0.5285 -0.2984
   39POPC   O11 5196   6.171   3.963   6.407 -0.2363 -0.3297 -0.1073
   39POPC    C1 5197   6.198   3.860   6.510 -0.3488  0.1447 -0.0746
   39POPC    HA 5198   6.306   3.871   6.533 -0.2289 -1.7319  0.5144
   39POPC    HB 5199   6.197   3.754   6.475  0.3394 -0.5321  1.7919
   39POPC    C2 5200   6.121   3.873   6.638  0.5916  0.5675 -0.2296
   39POPC    HS 5201   6.018   3.839   6.613  0.4876  0.3499  0.4864
   39POPC   O21 5202   6.113   4.008   6.690 -0.1374  0.0898 -0.5055
   39POPC   C21 5203   6.006   4.040   6.751 -0.3081 -0.3597 -0.2726
   39POPC   O22 5204   5.902   3.976   6.752 -0.0369 -0.2861  0.0780
   39POPC   C22 5205   6.027   4.173   6.834 -0.2426 -0.0949 -0.5269
   39POPC   H2R 5206   5.927   4.199   6.876  0.5910  0.4338  1.2255
   39POPC   H2S 5207   6.067   4.258   6.776  0.5198  0.3351  0.6094
   39POPC    C3 5208   6.180   3.780   6.745  0.6544 -0.6064  0.0086
   39POPC    HX 5209   6.271   3.824   6.790  0.1166 -1.5795  2.1874
   39POPC    HY 5210   6.207   3.683   6.698 -0.4597 -0.8552 -0.1536
   39POPC   O31 5211   6.087   3.764   6.861 -0.0902 -0.3154  1.0771
   39POPC   C31 5212   6.013   3.655   6.862 -1.3228 -0.2063 -0.3141
   39POPC   O32 5213   6.016   3.562   6.780 -0.2060 -0.4270 -0.2777
   39POPC   C32 5214   5.921   3.663   6.988 -0.2136 -0.5955 -0.0938
   39POPC   H2X 5215   5.976   3.701   7.077 -0.9693  0.8096 -0.2101
   39POPC   H2Y 5216   5.854   3.748   6.964 -1.1661 -1.8108 -1.9974
   39POPC   C23 5217   6.107   4.143   6.967 -0.7122  0.3170  0.0458
   39POPC   H3R 5218   6.113   4.241   7.017 -0.8785  1.3732 -1.8896
   39POPC   H3S 5219   6.209   4.109   6.939 -1.6245 -3.9936  1.0967
   39POPC   C24 5220   6.038   4.050   7.062  0.3891  0.1910  0.1327
   39POPC   H4R 5221   6.049   3.943   7.034 -0.5279  0.0862  0.1492
   39POPC   H4S 5222   5.928   4.065   7.063 -0.0640 -2.4194  2.8350
   39POPC   C25 5223   6.103   4.057   7.201  0.3550 -0.1688  0.1205
   39POPC   H5R 5224   6.102   4.164   7.232  1.7533  0.6379 -2.4133
   39POPC   H5S 5225   6.210   4.033   7.186  1.1561  2.6881  0.6462
   39POPC   C26 5226   6.043   3.972   7.314  0.6211 -0.3969  0.0951
   39POPC   H6R 5227   6.029   3.867   7.280 -2.8080  0.2123 -0.7270
   39POPC   H6S 5228   5.940   4.008   7.335  0.9231 -0.0778  1.1194
   39POPC   C27 5229   6.118   3.989   7.447  0.0065 -0.0120 -0.5230
   39POPC   H7R 5230   6.067   4.078   7.489 -0.0220 -0.2158 -0.1211
   39POPC   H7S 5231   6.227   3.999   7.428  0.2325 -0.9043  0.2068
   39POPC   C28 5232   6.088   3.856   7.532  0.0572 -0.0449 -0.4795
   39POPC   H8R 5233   6.148   3.779   7.480  1.0626 -2.5885  3.9089
   39POPC   H8S 5234   5.979   3.840   7.545 -0.0972  2.1841  1.9407
   39POPC   C29 5235   6.152   3.883   7.665  0.0723  0.4146 -0.7355
   39POPC   H91 5236   6.240   3.948   7.676  0.3444 -0.0388 -0.0766
   39POPC  C210 5237   6.093   3.851   7.784  0.1787 -0.5985 -0.0935
   39POPC  H101 5238   6.142   3.877   7.879 -1.1725 -1.3072  0.8259
   39POPC  C211 5239   5.964   3.779   7.795 -0.5474  0.8490 -0.3372
   39POPC  H11R 5240   5.954   3.712   7.706  0.3881  0.4729 -0.1716
   39POPC  H11S 5241   5.878   3.849   7.804 -0.3594  1.2412 -1.4367
   39POPC  C212 5242   5.948   3.689   7.927 -0.3441  0.5080 -0.4594
   39POPC  H12R 5243   6.039   3.626   7.942 -0.0403  1.0050 -0.1767
   39POPC  H12S 5244   5.862   3.620   7.919  0.0253 -0.0557  0.3301
   39POPC  C213 5245   5.936   3.782   8.049 -0.0180  0.5811  0.8351
   39POPC  H13R 5246   5.843   3.842   8.057 -0.9553 -0.6632 -0.1973
   39POPC  H13S 5247   6.016   3.858   8.048 -1.5785  2.3659 -2.0739
   39POPC  C214 5248   5.950   3.703   8.180 -1.1517  0.2300 -0.1842
   39POPC  H14R 5249   6.039   3.639   8.164 -2.2066 -0.7073 -3.1163
   39POPC  H14S 5250   5.861   3.637   8.190  1.7673 -4.0349  0.1767
   39POPC  C215 5251   5.964   3.791   8.301 -0.3001 -0.5311  0.2281
   39POPC  H15R 5252   5.870   3.848   8.322  1.0863  2.3770 -0.8894
   39POPC  H15S 5253   6.049   3.862   8.295 -0.0529 -0.8547 -0.1567
   39POPC  C216 5254   5.990   3.708   8.430  0.1011 -0.1859 -0.0953
   39POPC  H16R 5255   6.097   3.678   8.425  0.5504  0.9706  1.5426
   39POPC  H16S 5256   5.935   3.612   8.430 -0.8067  0.3304 -0.3297
   39POPC  C217 5257   5.993   3.796   8.556 -0.3955 -0.6084  0.0166
   39POPC  H17R 5258   5.899   3.836   8.599  1.2028  1.8401  1.4348
   39POPC  H17S 5259   6.054   3.885   8.533 -2.0820  1.1677  2.0561
   39POPC  C218 5260   6.055   3.730   8.676  0.0128 -0.1451 -0.4299
   39POPC  H18R 5261   5.977   3.661   8.715 -0.0783 -0.4135 -1.0809
   39POPC  H18S 5262   6.078   3.808   8.752 -1.1922  1.0974 -1.2908
   39POPC  H18T 5263   6.147   3.671   8.658 -1.3403 -1.8221 -2.2813
   39POPC   C33 5264   5.840   3.541   7.032 -0.2861 -0.5182  0.5303
   39POPC   H3X 5265   5.915   3.460   7.020 -0.0365 -0.3666  1.0689
   39POPC   H3Y 5266   5.758   3.512   6.962 -0.4150  0.6813  0.1654
   39POPC   C34 5267   5.782   3.545   7.171  0.1174  0.0249  0.2202
   39POPC   H4X 5268   5.872   3.548   7.235  2.7488 -1.4993 -3.1067
   39POPC   H4Y 5269   5.722   3.451   7.173  1.2104 -0.7663 -1.5751
   39POPC   C35 5270   5.686   3.662   7.212  0.1069 -0.1437  0.0845
   39POPC   H5X 5271   5.600   3.648   7.143  1.8595  2.0906 -2.8152
   39POPC   H5Y 5272   5.725   3.765   7.197  1.1209 -0.6939 -1.3746
   39POPC   C36 5273   5.649   3.639   7.359  0.2391  0.1706  0.0721
   39POPC   H6X 5274   5.671   3.535   7.391  0.1779  0.4575  1.0841
   39POPC   H6Y 5275   5.539   3.652   7.372 -0.0101  0.5625 -2.0182
   39POPC   C37 5276   5.714   3.732   7.454 -0.0577 -0.6558 -0.3634
   39POPC   H7X 5277   5.709   3.834   7.409  2.3878 -0.2756  0.1103
   39POPC   H7Y 5278   5.818   3.698   7.469 -0.4179 -2.2098 -1.1699
   39POPC   C38 5279   5.650   3.732   7.588  0.2000  0.3428 -0.4883
   39POPC   H8X 5280   5.552   3.785   7.592  0.1539  0.4186 -2.2379
   39POPC   H8Y 5281   5.715   3.793   7.655  0.4587  0.0248 -0.4474
   39POPC   C39 5282   5.643   3.586   7.651 -0.2367 -0.3580  0.3541
   39POPC   H9X 5283   5.746   3.545   7.646  0.2651  0.9728 -0.6915
   39POPC   H9Y 5284   5.575   3.525   7.587 -0.4172  0.6201 -0.4088
   39POPC  C310 5285   5.614   3.581   7.798 -0.1276 -0.2702  0.4262
   39POPC  H10X 5286   5.674   3.657   7.851 -0.1571 -1.3183  2.0156
   39POPC  H10Y 5287   5.644   3.484   7.843  0.8492  0.5949  1.7189
   39POPC  C311 5288   5.466   3.597   7.815  0.4158  0.0965 -0.1491
   39POPC  H11X 5289   5.421   3.505   7.771  1.7234 -1.8299  2.3162
   39POPC  H11Y 5290   5.432   3.679   7.747  0.5345 -0.2028 -0.5713
   39POPC  C312 5291   5.418   3.618   7.960 -0.5417 -0.1858  0.6764
   39POPC  H12X 5292   5.312   3.649   7.952  0.4980  3.3621 -2.1140
   39POPC  H12Y 5293   5.480   3.694   8.011  2.7340 -2.2612  0.1406
   39POPC  C313 5294   5.439   3.484   8.031 -0.0130 -0.1800  0.3470
   39POPC  H13X 5295   5.548   3.460   8.026 -0.1576 -0.6381 -2.2561
   39POPC  H13Y 5296   5.387   3.400   7.980 -0.7671  1.1287 -1.1236
   39POPC  C314 5297   5.398   3.497   8.180  0.1856  0.2379 -0.8511
   39POPC  H14X 5298   5.393   3.395   8.224  2.5979  1.3000  2.3564
   39POPC  H14Y 5299   5.291   3.525   8.184 -0.7711 -3.0534 -0.8508
   39POPC  C315 5300   5.493   3.574   8.269 -0.1398 -0.9425 -0.2828
   39POPC  H15X 5301   5.563   3.629   8.204 -1.1253  0.0887 -0.5020
   39POPC  H15Y 5302   5.551   3.504   8.334  1.4148  1.4401  1.0237
   39POPC  C316 5303   5.418   3.668   8.370 -0.3676  1.0218 -0.2730
   39POPC  H16X 5304   5.365   3.751   8.319  2.1696  3.0317  0.1738
   39POPC  H16Y 5305   5.501   3.707   8.432  0.5275  1.9984 -2.0241
   39POPC  H16Z 5306   5.352   3.595   8.424 -0.3316 -0.0101 -1.5738
   40POPC     N 5307   3.579   3.348   5.993 -0.3736  0.4171  0.4591
   40POPC   C12 5308   3.572   3.491   6.034 -0.1065  0.2252 -0.2819
   40POPC  H12A 5309   3.468   3.516   6.045  0.3815  1.7313  1.4045
   40POPC  H12B 5310   3.622   3.550   5.959  1.9251 -1.6413 -0.5042
   40POPC   C13 5311   3.545   3.248   6.095  0.0044  0.2755  0.2938
   40POPC  H13A 5312   3.536   3.149   6.054  1.0175 -0.2478  1.2747
   40POPC  H13B 5313   3.606   3.243   6.184 -0.1529 -0.0178  0.3869
   40POPC  H13C 5314   3.442   3.254   6.128 -0.1223 -2.8919  0.7590
   40POPC   C14 5315   3.497   3.314   5.870  0.3586 -0.7634  0.3419
   40POPC  H14A 5316   3.526   3.216   5.837  1.9895  0.4374 -2.1376
   40POPC  H14B 5317   3.390   3.326   5.882  0.2586  0.1404 -1.1792
   40POPC  H14C 5318   3.525   3.377   5.787 -1.5184 -1.5089 -0.9078
   40POPC   C15 5319   3.724   3.316   5.956  0.2028 -0.2179 -0.2865
   40POPC  H15A 5320   3.741   3.211   5.944 -1.7312 -0.5674 -0.2979
   40POPC  H15B 5321   3.794   3.347   6.032  1.4964  0.5509 -1.7418
   40POPC  H15C 5322   3.745   3.365   5.862 -0.1448 -0.7179 -0.6279
   40POPC   C11 5323   3.642   3.524   6.171 -0.1581  0.2606  0.3527
   40POPC  H11A 5324   3.581   3.472   6.247 -1.2666  0.2696 -0.4878
   40POPC  H11B 5325   3.622   3.634   6.172 -0.8900  0.1329  0.1701
   40POPC     P 5326   3.853   3.444   6.318  0.2338  0.2009 -0.0975
   40POPC   O13 5327   3.981   3.378   6.282 -0.4718 -0.0786  0.4506
   40POPC   O14 5328   3.761   3.347   6.384 -0.0712 -0.2665  0.1011
   40POPC   O12 5329   3.781   3.494   6.182 -0.4693  0.2310  0.1248
   40POPC   O11 5330   3.874   3.574   6.409  0.0151 -0.3503  0.2130
   40POPC    C1 5331   3.797   3.697   6.408  0.2459  0.1345 -0.5320
   40POPC    HA 5332   3.688   3.684   6.388  0.0942  0.0458  0.3042
   40POPC    HB 5333   3.837   3.767   6.331  2.2439  0.3435  0.6302
   40POPC    C2 5334   3.807   3.768   6.543 -0.7644 -0.4042 -0.0941
   40POPC    HS 5335   3.915   3.792   6.553 -0.9577  0.2458  0.5519
   40POPC   O21 5336   3.757   3.694   6.654  0.5943 -0.1044 -0.2946
   40POPC   C21 5337   3.843   3.644   6.741 -0.5523 -0.2505  0.5083
   40POPC   O22 5338   3.965   3.641   6.727  0.2448  0.2922  0.3197
   40POPC   C22 5339   3.776   3.607   6.872 -0.0089  0.4789  0.5412
   40POPC   H2R 5340   3.694   3.535   6.855 -0.9936  1.3311  1.5384
   40POPC   H2S 5341   3.737   3.705   6.908  1.4470  1.0438  0.6584
   40POPC    C3 5342   3.733   3.904   6.551 -0.5165  0.5866 -0.1217
   40POPC    HX 5343   3.628   3.883   6.522 -0.9311  0.6005  1.3180
   40POPC    HY 5344   3.778   3.970   6.473 -0.4884 -2.0360 -2.5050
   40POPC   O31 5345   3.730   3.962   6.690 -0.0716  0.4126  0.2711
   40POPC   C31 5346   3.715   4.089   6.694 -0.4794  0.1259 -1.0711
   40POPC   O32 5347   3.716   4.165   6.598 -0.3061  0.4860  0.7276
   40POPC   C32 5348   3.681   4.130   6.836  0.3379 -0.6226 -0.0371
   40POPC   H2X 5349   3.571   4.129   6.843  0.1916 -0.2150 -1.8127
   40POPC   H2Y 5350   3.725   4.231   6.853 -0.8657  0.0355 -0.6979
   40POPC   C23 5351   3.881   3.545   6.969  0.2560 -0.0373  0.6501
   40POPC   H3R 5352   3.977   3.600   6.963  0.1338  0.0601 -0.5890
   40POPC   H3S 5353   3.911   3.442   6.937  0.8517  0.5972 -0.9331
   40POPC   C24 5354   3.837   3.535   7.115  0.5956  0.1265  0.4635
   40POPC   H4R 5355   3.803   3.630   7.161 -2.6131 -0.0649 -1.2045
   40POPC   H4S 5356   3.927   3.492   7.162  0.3766 -0.7354  0.1286
   40POPC   C25 5357   3.721   3.436   7.125  0.3457 -0.0077 -0.2726
   40POPC   H5R 5358   3.750   3.355   7.055 -1.1850  0.6903 -1.7864
   40POPC   H5S 5359   3.627   3.481   7.087  0.8942  2.8761  1.4498
   40POPC   C26 5360   3.697   3.375   7.264 -0.6350  0.7190  0.3304
   40POPC   H6R 5361   3.785   3.318   7.300 -1.4249 -0.1838  0.8978
   40POPC   H6S 5362   3.607   3.310   7.257 -0.9776  1.3519 -1.7919
   40POPC   C27 5363   3.675   3.477   7.372  0.6815 -0.2468 -0.4821
   40POPC   H7R 5364   3.610   3.555   7.327  0.8129  0.1393 -0.0131
   40POPC   H7S 5365   3.769   3.522   7.409  0.2665  0.3162 -0.1111
   40POPC   C28 5366   3.604   3.420   7.499 -0.7843 -0.3010  0.1563
   40POPC   H8R 5367   3.675   3.348   7.545 -0.8009  1.1512  2.6397
   40POPC   H8S 5368   3.519   3.358   7.463  0.3407 -1.6916 -0.1941
   40POPC   C29 5369   3.571   3.528   7.604 -0.1457  0.0004 -0.1391
   40POPC   H91 5370   3.482   3.585   7.575 -0.9181 -0.4730  1.1794
   40POPC  C210 5371   3.645   3.572   7.710  0.0481 -0.3571  0.5991
   40POPC  H101 5372   3.620   3.665   7.763  0.7739  0.9899 -1.2982
   40POPC  C211 5373   3.770   3.505   7.750 -0.0329  0.3154 -0.4164
   40POPC  H11R 5374   3.829   3.463   7.666 -0.3624 -0.4551 -0.2693
   40POPC  H11S 5375   3.757   3.413   7.811  0.5544  1.1301  0.9776
   40POPC  C212 5376   3.862   3.603   7.825 -0.2998 -0.0958 -0.9496
   40POPC  H12R 5377   3.893   3.694   7.768 -1.3988 -0.7611 -2.7021
   40POPC  H12S 5378   3.954   3.544   7.844 -0.9554 -1.2243 -1.1733
   40POPC  C213 5379   3.821   3.635   7.966  0.2359 -0.0908  0.2983
   40POPC  H13R 5380   3.902   3.606   8.035  0.2919  1.3217  0.8599
   40POPC  H13S 5381   3.722   3.588   7.988 -0.1569  0.0554 -1.0557
   40POPC  C214 5382   3.816   3.792   7.989 -0.1318 -0.2723 -0.2882
   40POPC  H14R 5383   3.711   3.825   7.975 -0.5108 -1.6541 -0.8923
   40POPC  H14S 5384   3.875   3.846   7.913  1.5243  2.2163  2.5170
   40POPC  C215 5385   3.860   3.826   8.130  0.0704 -0.1055 -0.2153
   40POPC  H15R 5386   3.971   3.826   8.133  0.2231  1.9791 -2.4646
   40POPC  H15S 5387   3.815   3.752   8.200 -4.3413  0.3962 -2.1665
   40POPC  C216 5388   3.834   3.970   8.169 -0.1927 -0.2681 -0.4987
   40POPC  H16R 5389   3.734   3.978   8.216 -0.1744  3.2338 -0.8199
   40POPC  H16S 5390   3.830   4.034   8.079 -0.2781  0.1033 -0.2352
   40POPC  C217 5391   3.933   4.016   8.277 -0.1141 -0.0320 -0.3564
   40POPC  H17R 5392   3.902   4.121   8.299  0.3863  0.1825 -0.6521
   40POPC  H17S 5393   4.038   4.029   8.244 -0.3646  0.1722 -1.1022
   40POPC  C218 5394   3.929   3.934   8.406  0.3441 -0.0597 -0.3133
   40POPC  H18R 5395   3.967   3.830   8.397 -0.0307 -0.1930 -0.3482
   40POPC  H18S 5396   3.829   3.931   8.453  1.3444  1.3685  2.1372
   40POPC  H18T 5397   3.997   3.991   8.473 -0.2989  1.8862 -1.2158
   40POPC   C33 5398   3.745   4.040   6.950 -0.0327 -0.2014  0.0642
   40POPC   H3X 5399   3.853   4.038   6.924 -0.3436  2.3906 -1.8309
   40POPC   H3Y 5400   3.700   3.938   6.955 -1.3697  0.4077  0.8584
   40POPC   C34 5401   3.735   4.102   7.092  0.4837  0.1240 -0.1226
   40POPC   H4X 5402   3.627   4.106   7.120  0.7066 -0.5997  0.8629
   40POPC   H4Y 5403   3.766   4.208   7.077 -1.1863  0.7130  0.3153
   40POPC   C35 5404   3.822   4.036   7.190  0.1468 -0.4531 -0.7954
   40POPC   H5X 5405   3.929   4.041   7.161  0.8008 -0.8196  1.3716
   40POPC   H5Y 5406   3.798   3.930   7.209 -1.3972 -0.1789 -1.1041
   40POPC   C36 5407   3.813   4.103   7.330  0.3542  0.3465 -0.3571
   40POPC   H6X 5408   3.704   4.095   7.350  0.1150 -2.4063 -2.1539
   40POPC   H6Y 5409   3.851   4.208   7.332  0.4136  0.3225 -0.2465
   40POPC   C37 5410   3.883   4.030   7.445  0.8018  0.0651  0.2792
   40POPC   H7X 5411   3.994   4.036   7.433  0.9777 -1.3349  0.9403
   40POPC   H7Y 5412   3.849   3.925   7.438  2.0318 -0.3186 -0.1747
   40POPC   C38 5413   3.846   4.087   7.589  0.0468  0.9918  0.8086
   40POPC   H8X 5414   3.817   4.002   7.655 -0.7709  0.9177  0.3566
   40POPC   H8Y 5415   3.761   4.155   7.569  0.1855  0.8955 -0.1377
   40POPC   C39 5416   3.973   4.146   7.649  0.1178  0.3301 -0.0784
   40POPC   H9X 5417   4.013   4.228   7.585  1.2026 -0.5799 -0.5879
   40POPC   H9Y 5418   4.051   4.069   7.636 -2.3315 -2.0231 -2.2057
   40POPC  C310 5419   3.962   4.206   7.790 -0.1072 -0.8127 -0.4302
   40POPC  H10X 5420   3.913   4.146   7.870 -2.8745  0.7126 -0.8675
   40POPC  H10Y 5421   3.913   4.304   7.775  1.5227 -0.0005 -0.6838
   40POPC  C311 5422   4.108   4.241   7.850  0.4339  0.1895  0.1023
   40POPC  H11X 5423   4.167   4.316   7.791 -0.2220  1.0467  0.5176
   40POPC  H11Y 5424   4.159   4.145   7.830 -1.0873 -0.4116 -1.1372
   40POPC  C312 5425   4.101   4.281   7.995 -0.3585  0.3503  0.3129
   40POPC  H12X 5426   4.193   4.257   8.053 -0.7473  0.6829  1.0789
   40POPC  H12Y 5427   4.024   4.215   8.040  1.3476 -1.9319  0.1166
   40POPC  C313 5428   4.061   4.432   8.005  0.3140 -0.3161 -0.1102
   40POPC  H13X 5429   3.954   4.426   7.977 -0.0015  1.8184  0.4673
   40POPC  H13Y 5430   4.104   4.500   7.929 -2.7667  2.3765  0.3174
   40POPC  C314 5431   4.075   4.497   8.145 -0.0521  0.0247 -0.4623
   40POPC  H14X 5432   4.029   4.597   8.155 -0.0836 -0.0494  0.2121
   40POPC  H14Y 5433   4.184   4.506   8.163  0.1647 -1.7056 -0.7262
   40POPC  C315 5434   4.028   4.397   8.245 -0.0996 -0.5275  0.7828
   40POPC  H15X 5435   4.106   4.319   8.259 -0.3078 -1.3238 -1.9863
   40POPC  H15Y 5436   3.937   4.351   8.201 -0.1796 -0.1689  0.5713
   40POPC  C316 5437   3.993   4.469   8.374 -0.1064 -0.8714 -0.4257
   40POPC  H16X 5438   3.955   4.391   8.444 -3.7810  0.2229 -0.9581
   40POPC  H16Y 5439   3.908   4.540   8.363  0.1612 -0.3596  0.6864
   40POPC  H16Z 5440   4.082   4.523   8.412 -0.9690  0.7551 -0.6115
   41CHL1    C3 5441   2.080   6.526  10.116 -0.0497 -0.0951  0.0631
   41CHL1    H3 5442   2.148   6.440  10.135  1.0021  0.9446  1.1417
   41CHL1    O3 5443   2.017   6.591  10.232 -0.2291  0.1473 -0.1434
   41CHL1   H3' 5444   1.973   6.671  10.200 -2.0971 -0.0221  1.7327
   41CHL1    C4 5445   2.155   6.632  10.036  0.1985 -0.0331 -0.2826
   41CHL1   H4A 5446   2.100   6.723  10.003  1.5587  0.8491 -0.2231
   41CHL1   H4B 5447   2.229   6.683  10.102  1.7700 -0.8787 -1.3335
   41CHL1    C5 5448   2.206   6.563   9.908 -0.6886  0.7171  0.1582
   41CHL1    C6 5449   2.334   6.564   9.885  0.0596 -0.7807  0.2752
   41CHL1    H6 5450   2.406   6.594   9.962  0.1196  0.1960 -0.1487
   41CHL1    C7 5451   2.403   6.529   9.763 -0.1894  0.8323  0.4899
   41CHL1   H7A 5452   2.473   6.613   9.740  0.7264  0.3963  1.6347
   41CHL1   H7B 5453   2.467   6.443   9.791 -1.1340 -0.7897 -2.0202
   41CHL1    C8 5454   2.305   6.496   9.647  0.3846  0.2915  0.5849
   41CHL1    H8 5455   2.279   6.595   9.604  5.1451  1.4076 -0.4115
   41CHL1   C14 5456   2.372   6.408   9.536  0.1009 -0.2479  0.4270
   41CHL1   H14 5457   2.388   6.311   9.587  1.2713 -0.7853 -0.9010
   41CHL1   C15 5458   2.509   6.440   9.478  0.3787 -1.1832  0.0383
   41CHL1  H15A 5459   2.501   6.549   9.456  0.6573 -1.2561 -0.4455
   41CHL1  H15B 5460   2.592   6.442   9.551  0.9422 -0.8977 -0.6003
   41CHL1   C16 5461   2.511   6.368   9.345  0.2056  0.4550 -1.3458
   41CHL1  H16A 5462   2.533   6.445   9.268 -1.6806  2.3330 -0.0987
   41CHL1  H16B 5463   2.591   6.291   9.346  0.7895  0.9838  1.1611
   41CHL1   C17 5464   2.374   6.300   9.326  0.1135  0.1273  0.3024
   41CHL1   H17 5465   2.381   6.200   9.374  1.0927  0.9899  2.0785
   41CHL1   C13 5466   2.279   6.376   9.417 -0.1313 -0.4403 -0.6097
   41CHL1   C18 5467   2.246   6.506   9.338  0.3349  0.1150 -0.4205
   41CHL1  H18A 5468   2.182   6.488   9.248  2.2187  2.9983 -2.5268
   41CHL1  H18B 5469   2.194   6.580   9.402 -0.3239 -0.7901  0.1164
   41CHL1  H18C 5470   2.331   6.564   9.297  0.1670  0.8557  0.2705
   41CHL1   C12 5471   2.152   6.302   9.472  0.0879 -0.1541 -0.0510
   41CHL1  H12A 5472   2.085   6.285   9.385  0.4286 -1.7313 -0.0487
   41CHL1  H12B 5473   2.188   6.211   9.525  0.3538  0.0820  0.1794
   41CHL1   C11 5474   2.078   6.377   9.577 -0.9607  0.5894  1.3372
   41CHL1  H11A 5475   2.024   6.459   9.525 -1.0187 -1.0660 -1.3941
   41CHL1  H11B 5476   1.995   6.314   9.616 -0.1935 -1.1892  0.2461
   41CHL1    C9 5477   2.173   6.431   9.687  0.8117 -0.8031 -0.2885
   41CHL1    H9 5478   2.208   6.343   9.745  0.0488 -0.7913  0.2069
   41CHL1   C10 5479   2.103   6.514   9.804 -0.0550  0.0820  0.1575
   41CHL1   C19 5480   2.024   6.629   9.735 -0.4099 -0.3219 -0.3987
   41CHL1  H19A 5481   2.073   6.676   9.647 -0.4176  1.2421  0.3924
   41CHL1  H19B 5482   1.922   6.588   9.718 -0.2924 -0.5324 -0.5925
   41CHL1  H19C 5483   2.011   6.713   9.807 -0.3326  0.1285 -0.9040
   41CHL1    C1 5484   2.018   6.420   9.885 -0.3342 -0.4056 -0.0952
   41CHL1   H1A 5485   1.928   6.383   9.832 -1.5162 -0.2678  1.7341
   41CHL1   H1B 5486   2.065   6.323   9.911 -1.8996 -1.0622  0.3739
   41CHL1    C2 5487   1.971   6.472  10.018 -0.3937 -0.1674  0.1391
   41CHL1   H2A 5488   1.914   6.396  10.075 -1.9169  1.4270  0.8611
   41CHL1   H2B 5489   1.900   6.557  10.003  1.0886  0.9359 -0.8415
   41CHL1   C20 5490   2.347   6.289   9.178 -0.4358  0.4875  0.3496
   41CHL1   H20 5491   2.343   6.382   9.118 -2.9805  1.0618  1.3036
   41CHL1   C21 5492   2.211   6.230   9.152 -0.2495  0.5529  0.7425
   41CHL1  H21A 5493   2.187   6.134   9.202 -1.6117 -0.2748 -1.3832
   41CHL1  H21B 5494   2.206   6.200   9.045  0.0124 -0.7007  1.0679
   41CHL1  H21C 5495   2.129   6.302   9.172 -0.1432  0.6137  0.9631
   41CHL1   C22 5496   2.463   6.192   9.117 -0.2056  0.0363  0.2776
   41CHL1  H22A 5497   2.558   6.249   9.127  1.4650 -2.2558 -1.2493
   41CHL1  H22B 5498   2.480   6.097   9.172  3.2272  1.0591  1.2279
   41CHL1   C23 5499   2.440   6.137   8.977 -0.1273 -0.5055 -0.7516
   41CHL1  H23A 5500   2.521   6.062   8.960  0.4914 -0.0830  0.2713
   41CHL1  H23B 5501   2.344   6.082   8.964 -1.4954  1.8017 -0.8167
   41CHL1   C24 5502   2.458   6.246   8.874 -0.6348  0.1644  0.7023
   41CHL1  H24A 5503   2.360   6.297   8.861 -1.1238 -1.0473 -0.7196
   41CHL1  H24B 5504   2.534   6.319   8.908  1.3529 -1.1941 -0.6227
   41CHL1   C25 5505   2.513   6.178   8.744 -0.8458  0.3061 -0.2551
   41CHL1   H25 5506   2.606   6.124   8.774 -1.6905 -0.3652  1.2707
   41CHL1   C26 5507   2.401   6.086   8.679 -0.2321  0.3421 -0.6149
   41CHL1  H26A 5508   2.319   6.150   8.640 -1.4914 -1.4160 -0.9961
   41CHL1  H26B 5509   2.445   6.020   8.602 -0.0587 -1.8706  1.2605
   41CHL1  H26C 5510   2.362   6.015   8.756  0.0769  2.8760  2.0614
   41CHL1   C27 5511   2.553   6.281   8.643  0.4443  0.2558 -0.2368
   41CHL1  H27A 5512   2.481   6.366   8.630  0.3621  0.3112  0.5535
   41CHL1  H27B 5513   2.652   6.325   8.667  2.4802 -2.8538 -2.2214
   41CHL1  H27C 5514   2.561   6.237   8.541 -3.3266 -1.6130  0.1211
   42CHL1    C3 5515   4.766   0.997   9.802  0.3011  0.5184 -0.0376
   42CHL1    H3 5516   4.835   1.062   9.745 -1.5570  0.4684 -2.5089
   42CHL1    O3 5517   4.809   0.971   9.934 -0.3010 -0.1474  0.0313
   42CHL1   H3' 5518   4.764   0.889   9.957 -2.5938  1.1492  0.3938
   42CHL1    C4 5519   4.619   1.047   9.810  0.7455  0.3607 -0.8060
   42CHL1   H4A 5520   4.563   0.975   9.873  1.4387  0.0791 -0.4967
   42CHL1   H4B 5521   4.619   1.140   9.871  1.5560 -0.7386  0.9874
   42CHL1    C5 5522   4.550   1.066   9.676 -0.1058  1.0388 -0.1019
   42CHL1    C6 5523   4.492   1.178   9.638  0.7070 -0.3953 -0.4710
   42CHL1    H6 5524   4.499   1.265   9.704  1.1080  0.7049 -1.9216
   42CHL1    C7 5525   4.416   1.196   9.514 -0.7530  0.4664  0.0914
   42CHL1   H7A 5526   4.321   1.252   9.532  0.0224  1.8957 -0.1038
   42CHL1   H7B 5527   4.480   1.266   9.456  1.6623 -0.1300  1.9039
   42CHL1    C8 5528   4.388   1.069   9.434  0.2904  0.3652  0.0470
   42CHL1    H8 5529   4.293   1.016   9.456  0.3092 -0.4531 -1.6776
   42CHL1   C14 5530   4.386   1.108   9.288  0.3240 -0.2651  0.0464
   42CHL1   H14 5531   4.487   1.151   9.270  0.1821 -0.6818 -1.9904
   42CHL1   C15 5532   4.296   1.229   9.241 -0.1707 -0.1021  0.5651
   42CHL1  H15A 5533   4.203   1.225   9.302 -1.1418 -2.5003 -0.9176
   42CHL1  H15B 5534   4.358   1.315   9.272  2.8617 -1.9245  0.0162
   42CHL1   C16 5535   4.286   1.212   9.093  0.0215 -0.0855  0.7745
   42CHL1  H16A 5536   4.176   1.206   9.074 -0.2211  2.4630  0.9040
   42CHL1  H16B 5537   4.319   1.297   9.029  2.4306 -1.5784 -0.0970
   42CHL1   C17 5538   4.358   1.073   9.050  0.6015 -0.1546  0.7834
   42CHL1   H17 5539   4.466   1.094   9.029  0.4573 -1.1443 -1.2217
   42CHL1   C13 5540   4.357   0.997   9.188  0.1206  0.7245  0.4666
   42CHL1   C18 5541   4.207   0.939   9.200  0.0974  0.5107 -0.6165
   42CHL1  H18A 5542   4.204   0.858   9.124  1.5125  0.0269 -0.1886
   42CHL1  H18B 5543   4.190   0.883   9.294 -0.1369 -0.0648 -0.9912
   42CHL1  H18C 5544   4.125   1.014   9.195 -0.0483  0.4302  0.4531
   42CHL1   C12 5545   4.471   0.894   9.202 -0.3602  0.1304 -0.1417
   42CHL1  H12A 5546   4.467   0.806   9.134  0.7357  0.8897 -1.2273
   42CHL1  H12B 5547   4.570   0.942   9.186 -0.5648  0.6657  0.1612
   42CHL1   C11 5548   4.492   0.847   9.347 -0.0136  0.6585 -0.3587
   42CHL1  H11A 5549   4.428   0.766   9.388  3.5252 -1.9839  0.4203
   42CHL1  H11B 5550   4.589   0.793   9.346 -0.3974 -0.1421  1.3511
   42CHL1    C9 5551   4.503   0.967   9.445 -0.0536  0.0462 -1.2389
   42CHL1    H9 5552   4.591   1.021   9.406  1.2945  0.3378  1.9112
   42CHL1   C10 5553   4.545   0.934   9.592 -0.1547 -0.6544  0.4492
   42CHL1   C19 5554   4.441   0.842   9.661 -0.1152  0.4069  0.2924
   42CHL1  H19A 5555   4.462   0.809   9.765  0.8528 -0.4603 -0.1504
   42CHL1  H19B 5556   4.337   0.879   9.662 -0.5971 -0.8875  0.7068
   42CHL1  H19C 5557   4.430   0.746   9.605 -1.6169 -0.1246  1.4330
   42CHL1    C1 5558   4.681   0.877   9.584 -0.0073  0.6685 -0.7160
   42CHL1   H1A 5559   4.689   0.776   9.539 -1.1813 -0.4080  1.3324
   42CHL1   H1B 5560   4.751   0.949   9.537  0.0170  2.2076  1.5177
   42CHL1    C2 5561   4.757   0.866   9.721  0.0609 -0.4154  0.0058
   42CHL1   H2A 5562   4.861   0.831   9.701 -0.2380 -0.6224 -1.2193
   42CHL1   H2B 5563   4.719   0.793   9.796  1.0178 -0.0556  0.8810
   42CHL1   C20 5564   4.298   1.011   8.920  0.2519  0.4641 -0.1144
   42CHL1   H20 5565   4.190   0.994   8.938  0.3676 -0.8957 -0.5894
   42CHL1   C21 5566   4.365   0.877   8.878 -0.2028  0.0006  0.8275
   42CHL1  H21A 5567   4.322   0.834   8.785 -0.6064 -2.0695  1.8998
   42CHL1  H21B 5568   4.348   0.800   8.957 -2.0913 -0.1948  0.2685
   42CHL1  H21C 5569   4.475   0.893   8.879 -0.1021 -0.5364 -0.2288
   42CHL1   C22 5570   4.292   1.106   8.804  0.0545 -0.1346  0.3724
   42CHL1  H22A 5571   4.228   1.067   8.721  1.2096 -2.0606  0.3174
   42CHL1  H22B 5572   4.244   1.202   8.833  2.0774  1.5849 -1.5988
   42CHL1   C23 5573   4.427   1.145   8.736  0.2547 -0.3774  0.3718
   42CHL1  H23A 5574   4.505   1.157   8.814  1.2180 -1.1908 -0.4508
   42CHL1  H23B 5575   4.456   1.057   8.675 -1.1618 -1.6752  1.4530
   42CHL1   C24 5576   4.419   1.265   8.647  0.1662  0.1465  0.4806
   42CHL1  H24A 5577   4.340   1.264   8.570  0.8207 -1.4333 -0.2189
   42CHL1  H24B 5578   4.394   1.347   8.718  0.1299 -1.5064  2.4907
   42CHL1   C25 5579   4.550   1.287   8.566  0.7166  0.1010  0.3757
   42CHL1   H25 5580   4.555   1.200   8.497  0.7197 -0.6048  1.2399
   42CHL1   C26 5581   4.541   1.423   8.485  0.0963  0.5235 -0.3312
   42CHL1  H26A 5582   4.432   1.433   8.465  0.0712  0.1339 -0.4026
   42CHL1  H26B 5583   4.579   1.504   8.551  1.7128 -0.7059  0.3042
   42CHL1  H26C 5584   4.601   1.423   8.392 -1.0082  1.5730 -1.0741
   42CHL1   C27 5585   4.687   1.293   8.645 -0.2399  0.3286 -0.3468
   42CHL1  H27A 5586   4.778   1.284   8.582  0.3160 -0.2753  0.5119
   42CHL1  H27B 5587   4.686   1.389   8.702 -2.9721  0.1128  0.0796
   42CHL1  H27C 5588   4.683   1.214   8.723 -1.3690 -0.3736 -1.0975
   43CHL1    C3 5589   0.052   1.578   9.893 -0.2780 -0.3443 -0.1934
   43CHL1    H3 5590  -0.017   1.492   9.896  1.6605 -1.9427  2.2032
   43CHL1    O3 5591   0.066   1.619  10.029 -0.1981 -0.1507  0.3252
   43CHL1   H3' 5592   0.116   1.550  10.073  2.8381  1.4396 -0.3081
   43CHL1    C4 5593   0.191   1.522   9.832 -0.0403 -0.6017 -0.7921
   43CHL1   H4A 5594   0.257   1.612   9.832  0.8904 -1.2372  0.9717
   43CHL1   H4B 5595   0.226   1.442   9.900 -1.1202 -2.3959 -2.2602
   43CHL1    C5 5596   0.163   1.465   9.696  0.3790  0.4921 -0.3513
   43CHL1    C6 5597   0.189   1.330   9.659 -0.4330 -0.0785  1.0487
   43CHL1    H6 5598   0.234   1.260   9.731  1.4831 -0.6784 -0.6346
   43CHL1    C7 5599   0.167   1.284   9.515 -0.1009 -0.0661  0.5351
   43CHL1   H7A 5600   0.252   1.224   9.474 -0.9158 -2.2387  1.8460
   43CHL1   H7B 5601   0.077   1.220   9.515 -1.1976  1.4108 -0.5196
   43CHL1    C8 5602   0.152   1.402   9.420 -0.2752 -0.4425  0.2542
   43CHL1    H8 5603   0.259   1.432   9.411  0.2029 -1.1686  2.8619
   43CHL1   C14 5604   0.095   1.351   9.285 -0.0796 -0.2353 -0.4234
   43CHL1   H14 5605  -0.007   1.321   9.315  0.0390  0.4290  0.7240
   43CHL1   C15 5606   0.162   1.230   9.220  0.3001  0.5519  0.4077
   43CHL1  H15A 5607   0.271   1.251   9.220  0.6497 -0.7258 -2.3672
   43CHL1  H15B 5608   0.144   1.129   9.264 -0.7949  0.0040 -1.1670
   43CHL1   C16 5609   0.104   1.235   9.077 -0.2744 -0.6419  0.7142
   43CHL1  H16A 5610   0.186   1.224   9.003  0.0294 -0.8421  1.0762
   43CHL1  H16B 5611   0.033   1.150   9.066  0.1864 -0.7088 -2.5305
   43CHL1   C17 5612   0.023   1.371   9.066  0.2551 -0.1533  0.1659
   43CHL1   H17 5613  -0.083   1.353   9.093 -0.7864  2.3483 -1.8652
   43CHL1   C13 5614   0.070   1.457   9.185  0.4896  0.8382  0.3213
   43CHL1   C18 5615   0.200   1.525   9.140  0.1136  0.7689  0.5243
   43CHL1  H18A 5616   0.269   1.450   9.094 -0.4408  0.2056  0.5983
   43CHL1  H18B 5617   0.190   1.607   9.066 -2.0537 -2.1391 -2.7131
   43CHL1  H18C 5618   0.246   1.559   9.235 -1.4887 -0.5339  1.8258
   43CHL1   C12 5619  -0.025   1.562   9.230 -0.3980  0.3550  0.0739
   43CHL1  H12A 5620  -0.045   1.633   9.148  0.9112  0.3286 -0.2928
   43CHL1  H12B 5621  -0.118   1.502   9.240 -0.7023  0.6088 -1.0946
   43CHL1   C11 5622   0.016   1.617   9.367  0.1281  0.3307 -0.5161
   43CHL1  H11A 5623   0.101   1.686   9.351  0.7730  0.3592  2.4084
   43CHL1  H11B 5624  -0.074   1.671   9.404 -0.4669 -1.1818  0.3353
   43CHL1    C9 5625   0.056   1.514   9.472 -0.4731 -0.6764  0.3750
   43CHL1    H9 5626  -0.038   1.464   9.503 -2.1429  2.8850  1.5703
   43CHL1   C10 5627   0.106   1.581   9.605  0.2718  0.1840  0.2923
   43CHL1   C19 5628   0.213   1.692   9.574 -0.0127 -0.1474  0.2509
   43CHL1  H19A 5629   0.287   1.642   9.509  0.8129 -0.7430  1.5942
   43CHL1  H19B 5630   0.163   1.779   9.526 -1.6244 -2.0682 -1.7665
   43CHL1  H19C 5631   0.271   1.726   9.663 -0.9412 -1.9092  1.6177
   43CHL1    C1 5632  -0.013   1.650   9.674  0.0214  0.0713 -0.0684
   43CHL1   H1A 5633  -0.059   1.737   9.622 -2.6820 -1.0803  0.2237
   43CHL1   H1B 5634  -0.097   1.577   9.670  0.5380 -0.5275 -0.0929
   43CHL1    C2 5635   0.004   1.701   9.819  0.0158 -0.2116  0.3489
   43CHL1   H2A 5636  -0.090   1.745   9.859 -0.5492 -0.8123 -0.2762
   43CHL1   H2B 5637   0.086   1.775   9.830  0.7571 -1.3047  3.0787
   43CHL1   C20 5638   0.008   1.435   8.926  0.5011  0.7860 -0.1471
   43CHL1   H20 5639  -0.003   1.544   8.943 -0.1334  0.7475 -0.2906
   43CHL1   C21 5640  -0.122   1.383   8.866 -0.6321 -0.1777 -0.6261
   43CHL1  H21A 5641  -0.120   1.273   8.848  0.3486 -0.3107  0.1942
   43CHL1  H21B 5642  -0.139   1.425   8.764  1.1957 -2.3411 -1.9253
   43CHL1  H21C 5643  -0.214   1.402   8.925 -0.6463 -2.7310  0.2729
   43CHL1   C22 5644   0.133   1.417   8.825 -0.7730  0.8133 -0.1702
   43CHL1  H22A 5645   0.232   1.425   8.873 -0.5262  1.5816 -0.7930
   43CHL1  H22B 5646   0.131   1.316   8.779  1.2360  0.1728  1.0414
   43CHL1   C23 5647   0.134   1.514   8.711  0.2393 -1.1138  0.6663
   43CHL1  H23A 5648   0.030   1.516   8.673 -1.2964 -0.9032  4.4121
   43CHL1  H23B 5649   0.147   1.616   8.753 -1.4879 -1.0017  0.9928
   43CHL1   C24 5650   0.237   1.470   8.603  0.6550  0.0515  0.1604
   43CHL1  H24A 5651   0.225   1.360   8.593 -1.4482  0.3158 -0.6601
   43CHL1  H24B 5652   0.205   1.508   8.504 -1.4265  0.2598  0.8714
   43CHL1   C25 5653   0.386   1.506   8.612 -0.3769  0.4162 -0.1792
   43CHL1   H25 5654   0.423   1.465   8.709  0.9410  1.4402 -0.2192
   43CHL1   C26 5655   0.469   1.455   8.499  0.0660 -0.0590 -0.6979
   43CHL1  H26A 5656   0.429   1.495   8.403 -0.8950  1.6031  0.3484
   43CHL1  H26B 5657   0.569   1.504   8.505  0.1512 -0.1302 -1.3831
   43CHL1  H26C 5658   0.474   1.344   8.496  0.2405 -0.0966  0.7152
   43CHL1   C27 5659   0.402   1.659   8.630 -0.1019  0.5857  0.1196
   43CHL1  H27A 5660   0.340   1.692   8.716  0.1482 -1.9670  1.3824
   43CHL1  H27B 5661   0.507   1.693   8.642  0.8249 -0.6480 -3.1344
   43CHL1  H27C 5662   0.367   1.701   8.533 -0.3086  1.3968  0.5424
   44CHL1    C3 5663   6.329   2.534  10.393  0.3736  1.0392  0.1674
   44CHL1    H3 5664   6.229   2.492  10.369 -0.5788  1.4610  3.0480
   44CHL1    O3 5665   6.344   2.515  10.531  0.1406  0.5187 -0.0858
   44CHL1   H3' 5666   6.255   2.506  10.566  0.8689  1.2828  2.0891
   44CHL1    C4 5667   6.443   2.466  10.310 -0.6227  0.1095 -0.9544
   44CHL1   H4A 5668   6.533   2.511  10.357 -1.7817  1.0384  0.4407
   44CHL1   H4B 5669   6.450   2.357  10.331  0.1529 -0.1228 -2.2953
   44CHL1    C5 5670   6.437   2.489  10.161  0.9370  0.1623 -0.3533
   44CHL1    C6 5671   6.422   2.387  10.077  0.7069 -0.3955  1.4260
   44CHL1    H6 5672   6.419   2.281  10.109 -0.0553 -0.1953  2.0616
   44CHL1    C7 5673   6.419   2.415   9.923  0.9170  0.1177 -0.4927
   44CHL1   H7A 5674   6.480   2.342   9.867  0.7948 -0.7469  0.4707
   44CHL1   H7B 5675   6.314   2.398   9.892  1.2965  0.4247 -2.0527
   44CHL1    C8 5676   6.458   2.561   9.888  0.0774  0.0200  1.5706
   44CHL1    H8 5677   6.568   2.562   9.905  0.2752  1.4065  0.3785
   44CHL1   C14 5678   6.433   2.578   9.740 -0.5087  0.2216 -0.5378
   44CHL1   H14 5679   6.325   2.558   9.723 -0.5119  0.2457 -0.5443
   44CHL1   C15 5680   6.512   2.485   9.650 -0.3471 -1.4290  0.4529
   44CHL1  H15A 5681   6.617   2.470   9.684 -0.6991 -1.7583  1.4173
   44CHL1  H15B 5682   6.481   2.379   9.648  0.2427 -1.6007 -0.3031
   44CHL1   C16 5683   6.512   2.561   9.508 -0.2385  0.5656  0.1541
   44CHL1  H16A 5684   6.613   2.572   9.464  0.5959 -0.0800  1.8185
   44CHL1  H16B 5685   6.447   2.495   9.446 -0.1626 -3.1909  3.6598
   44CHL1   C17 5686   6.449   2.696   9.533  0.3347  0.5506  0.2593
   44CHL1   H17 5687   6.344   2.686   9.501  0.3391  0.2192  0.3390
   44CHL1   C13 5688   6.462   2.713   9.693  0.1687  0.3393  0.6026
   44CHL1   C18 5689   6.609   2.747   9.727  0.0776  0.0989 -0.4472
   44CHL1  H18A 5690   6.627   2.853   9.698  0.2219  0.6537  1.5582
   44CHL1  H18B 5691   6.637   2.737   9.833  0.3772  1.7381 -0.3539
   44CHL1  H18C 5692   6.681   2.694   9.661 -1.6174 -1.0153 -1.5105
   44CHL1   C12 5693   6.365   2.809   9.768  0.0792  0.2854 -0.2711
   44CHL1  H12A 5694   6.367   2.909   9.720  1.9454 -1.5605 -4.5085
   44CHL1  H12B 5695   6.266   2.764   9.744 -0.1264  0.1272  0.8104
   44CHL1   C11 5696   6.378   2.804   9.922 -0.2751  0.0140 -0.0102
   44CHL1  H11A 5697   6.468   2.862   9.955  1.1381 -0.2304 -3.0646
   44CHL1  H11B 5698   6.286   2.856   9.955 -0.2857  0.5902 -0.9037
   44CHL1    C9 5699   6.384   2.658   9.974  0.6392  0.0640  0.3084
   44CHL1    H9 5700   6.278   2.629   9.957  0.7742  1.2875 -4.1175
   44CHL1   C10 5701   6.418   2.636  10.124 -0.7277 -0.1215 -0.1376
   44CHL1   C19 5702   6.562   2.702  10.142  1.2783  0.2017  0.4662
   44CHL1  H19A 5703   6.614   2.655  10.228 -1.0056 -1.7603  0.8839
   44CHL1  H19B 5704   6.621   2.698  10.048  0.5635  1.9693 -0.0998
   44CHL1  H19C 5705   6.557   2.810  10.167 -0.3005  0.1115  0.6624
   44CHL1    C1 5706   6.311   2.703  10.209 -0.0328  0.6076  0.8684
   44CHL1   H1A 5707   6.334   2.812  10.211  0.3561  0.5812 -1.0030
   44CHL1   H1B 5708   6.207   2.699  10.169  0.0010 -0.8295  0.8945
   44CHL1    C2 5709   6.325   2.683  10.362  0.4832 -0.6048  0.6655
   44CHL1   H2A 5710   6.240   2.724  10.420  0.1984 -0.6393  0.2822
   44CHL1   H2B 5711   6.418   2.733  10.396  0.6349  0.6212 -1.3936
   44CHL1   C20 5712   6.512   2.811   9.454  0.5544  0.2846  0.3934
   44CHL1   H20 5713   6.621   2.823   9.474  1.3341 -0.3417 -2.8374
   44CHL1   C21 5714   6.440   2.943   9.477  0.5826 -0.1006  0.5358
   44CHL1  H21A 5715   6.457   3.017   9.396  0.2555 -0.6088 -0.0117
   44CHL1  H21B 5716   6.469   2.986   9.575 -1.3570 -2.1145  2.1023
   44CHL1  H21C 5717   6.329   2.933   9.484  0.3291  2.7188  1.7553
   44CHL1   C22 5718   6.517   2.780   9.302  0.0693  0.2702 -0.1914
   44CHL1  H22A 5719   6.576   2.860   9.253  0.4014 -1.0524 -2.0214
   44CHL1  H22B 5720   6.583   2.692   9.287 -0.2381 -0.6039  2.8043
   44CHL1   C23 5721   6.385   2.751   9.232  0.0490  0.0256  0.2187
   44CHL1  H23A 5722   6.347   2.653   9.267 -0.2658 -0.1087 -0.4694
   44CHL1  H23B 5723   6.311   2.830   9.258  0.4537  1.0541 -1.5751
   44CHL1   C24 5724   6.399   2.759   9.075  0.0282 -0.1091 -0.2522
   44CHL1  H24A 5725   6.436   2.860   9.049 -0.3270 -0.0769 -0.6495
   44CHL1  H24B 5726   6.482   2.695   9.039 -0.7407 -2.7645  2.2604
   44CHL1   C25 5727   6.266   2.726   9.001 -0.3808 -0.1536 -0.5221
   44CHL1   H25 5728   6.185   2.769   9.064  0.0179  1.0702 -0.8174
   44CHL1   C26 5729   6.258   2.800   8.866  0.4772 -0.1906  0.5037
   44CHL1  H26A 5730   6.150   2.814   8.845  0.4421  1.2956  1.5409
   44CHL1  H26B 5731   6.305   2.899   8.885 -0.7005  0.9561 -2.1071
   44CHL1  H26C 5732   6.323   2.748   8.793 -0.4908  0.9810 -1.2597
   44CHL1   C27 5733   6.255   2.571   8.990  0.2684 -0.0065  0.4223
   44CHL1  H27A 5734   6.283   2.519   9.084  0.1838 -0.4423  0.2098
   44CHL1  H27B 5735   6.146   2.552   8.981  0.7099 -1.7751 -2.8434
   44CHL1  H27C 5736   6.314   2.527   8.907 -0.6687  0.9627 -0.7882
   45CHL1    C3 5737   4.994   5.409  10.322 -0.8635  0.2657  0.3672
   45CHL1    H3 5738   5.071   5.410  10.401 -0.4734  0.1671 -0.0070
   45CHL1    O3 5739   4.871   5.405  10.386 -0.6089 -0.5200 -0.1147
   45CHL1   H3' 5740   4.869   5.313  10.414  2.0665 -0.7031 -0.2126
   45CHL1    C4 5741   4.998   5.530  10.235  0.0645  0.0477  0.2209
   45CHL1   H4A 5742   4.910   5.539  10.168  0.7751 -2.2106 -1.1353
   45CHL1   H4B 5743   5.003   5.616  10.306  1.7190 -1.4318  2.0309
   45CHL1    C5 5744   5.126   5.529  10.154  0.3387 -0.0005  0.5849
   45CHL1    C6 5745   5.215   5.632  10.153  0.4980  1.4347  0.8567
   45CHL1    H6 5746   5.200   5.721  10.217 -3.3952  1.2071  0.4614
   45CHL1    C7 5747   5.335   5.647  10.059  0.1687  0.1345 -0.0303
   45CHL1   H7A 5748   5.347   5.747  10.011  0.9080 -0.7284 -1.7575
   45CHL1   H7B 5749   5.427   5.639  10.119 -0.7011 -2.4665  1.0906
   45CHL1    C8 5750   5.323   5.539   9.945  0.2355 -0.3106 -0.3825
   45CHL1    H8 5751   5.431   5.521   9.923  0.3266 -2.3360  1.3660
   45CHL1   C14 5752   5.253   5.575   9.819  0.2868  0.3693  0.7678
   45CHL1   H14 5753   5.143   5.574   9.839  0.0662  0.2886 -0.3820
   45CHL1   C15 5754   5.305   5.706   9.769  0.8727 -0.3754  0.2257
   45CHL1  H15A 5755   5.242   5.793   9.799 -0.4826 -0.9530 -0.8588
   45CHL1  H15B 5756   5.407   5.736   9.803  0.7015 -0.1508  0.5481
   45CHL1   C16 5757   5.319   5.692   9.612 -0.0283  0.2600  0.6749
   45CHL1  H16A 5758   5.222   5.725   9.569 -1.1566  0.3828  3.1178
   45CHL1  H16B 5759   5.399   5.754   9.567  2.0756 -2.9513 -0.3526
   45CHL1   C17 5760   5.361   5.543   9.591  0.6258  0.5752 -0.7987
   45CHL1   H17 5761   5.462   5.542   9.638  0.2788  0.6141 -0.0431
   45CHL1   C13 5762   5.276   5.470   9.701  0.1053  0.5083  0.3563
   45CHL1   C18 5763   5.142   5.446   9.636 -0.0211  0.7150 -0.4834
   45CHL1  H18A 5764   5.072   5.396   9.707  0.1658 -1.1634 -1.5477
   45CHL1  H18B 5765   5.097   5.538   9.594 -0.1751  1.0549  0.3982
   45CHL1  H18C 5766   5.148   5.369   9.556 -0.2802 -0.9838  1.0496
   45CHL1   C12 5767   5.336   5.342   9.759  0.5804  0.2092  0.6980
   45CHL1  H12A 5768   5.342   5.259   9.685 -1.7782  0.5358  0.0467
   45CHL1  H12B 5769   5.441   5.375   9.773  0.5782  0.2961  0.5047
   45CHL1   C11 5770   5.288   5.286   9.896  0.2101  0.1030  1.0587
   45CHL1  H11A 5771   5.196   5.232   9.864 -1.7194  4.4499 -1.7579
   45CHL1  H11B 5772   5.356   5.210   9.940  1.7513  0.8882  0.1023
   45CHL1    C9 5773   5.274   5.403  10.000  0.5062  0.5375  0.1403
   45CHL1    H9 5774   5.344   5.391  10.085 -0.0125 -0.0975  0.4857
   45CHL1   C10 5775   5.134   5.405  10.065 -0.3478  0.2587  0.1830
   45CHL1   C19 5776   5.009   5.394   9.972 -0.3682 -0.1829  0.5644
   45CHL1  H19A 5777   5.014   5.326   9.884 -1.5178 -0.0020  0.3438
   45CHL1  H19B 5778   4.916   5.360  10.021  0.1100 -2.3028  0.1124
   45CHL1  H19C 5779   4.981   5.491   9.926  0.2854 -0.6168 -0.8045
   45CHL1    C1 5780   5.133   5.276  10.158 -0.3952 -0.3262  0.1812
   45CHL1   H1A 5781   5.140   5.190  10.088 -1.9108  1.7704 -2.8090
   45CHL1   H1B 5782   5.223   5.267  10.222 -0.6709  0.6943  0.7337
   45CHL1    C2 5783   5.014   5.267  10.249  0.8464  0.0557 -0.6523
   45CHL1   H2A 5784   5.032   5.189  10.326  2.7397  1.4932  0.4317
   45CHL1   H2B 5785   4.923   5.251  10.187  0.7176  1.4228 -0.8425
   45CHL1   C20 5786   5.370   5.498   9.442  0.1132 -0.6485 -0.6030
   45CHL1   H20 5787   5.270   5.474   9.399 -0.4864  0.9054 -0.1364
   45CHL1   C21 5788   5.472   5.378   9.435  0.5496 -0.0520 -0.5994
   45CHL1  H21A 5789   5.559   5.384   9.503  1.2199 -0.3188 -1.4135
   45CHL1  H21B 5790   5.489   5.347   9.330  0.2265 -0.2354 -0.6020
   45CHL1  H21C 5791   5.411   5.298   9.483 -1.5126  0.6047 -2.0051
   45CHL1   C22 5792   5.425   5.601   9.342 -0.5330 -0.1978  1.2499
   45CHL1  H22A 5793   5.371   5.696   9.361 -0.7014 -0.1126  0.3674
   45CHL1  H22B 5794   5.531   5.628   9.361 -0.8708  1.0294  1.4842
   45CHL1   C23 5795   5.403   5.565   9.196 -0.1571 -0.5538 -0.3463
   45CHL1  H23A 5796   5.423   5.456   9.188 -0.9497 -0.8028  0.6901
   45CHL1  H23B 5797   5.295   5.584   9.176 -0.1566  0.7362  0.7268
   45CHL1   C24 5798   5.491   5.645   9.099  0.3685 -0.2962  0.4060
   45CHL1  H24A 5799   5.496   5.749   9.137 -0.5101 -0.4212  0.8960
   45CHL1  H24B 5800   5.592   5.601   9.112  0.4441  0.4015  2.5177
   45CHL1   C25 5801   5.432   5.630   8.957 -0.0948  0.5969 -0.4468
   45CHL1   H25 5802   5.426   5.525   8.919  1.0160  1.1850 -2.3983
   45CHL1   C26 5803   5.290   5.690   8.938  0.3977 -0.0962  0.2137
   45CHL1  H26A 5804   5.221   5.632   9.003 -0.8936  0.4481 -0.6515
   45CHL1  H26B 5805   5.291   5.795   8.975  0.2576  0.6917 -1.9201
   45CHL1  H26C 5806   5.269   5.697   8.830  1.2231  1.5916  0.1182
   45CHL1   C27 5807   5.530   5.694   8.854 -0.0359 -0.3018  0.2776
   45CHL1  H27A 5808   5.633   5.652   8.862  0.4366  0.6677 -0.5371
   45CHL1  H27B 5809   5.496   5.673   8.750  0.2279 -1.2173  0.3683
   45CHL1  H27C 5810   5.544   5.800   8.881  0.8355 -0.4747  0.5637
   46CHL1    C3 5811   3.266   4.193  10.269  0.1694 -0.0356 -0.7152
   46CHL1    H3 5812   3.328   4.286  10.266  0.4189 -0.1225  0.9560
   46CHL1    O3 5813   3.244   4.146  10.398  0.9307 -0.2824  0.4249
   46CHL1   H3' 5814   3.329   4.108  10.419  2.2200  1.7294 -0.8017
   46CHL1    C4 5815   3.122   4.210  10.207  0.1483  0.7147  0.0131
   46CHL1   H4A 5816   3.056   4.122  10.224 -2.1481  2.2510 -0.4212
   46CHL1   H4B 5817   3.066   4.288  10.265 -2.1472 -0.7538 -0.0752
   46CHL1    C5 5818   3.129   4.251  10.063  0.0781 -0.2954 -1.1248
   46CHL1    C6 5819   3.064   4.365  10.027  0.5558  0.6831  0.3131
   46CHL1    H6 5820   3.003   4.413  10.105  1.1809  0.2644  1.0760
   46CHL1    C7 5821   3.052   4.410   9.886 -0.1720 -0.5013  0.4661
   46CHL1   H7A 5822   2.942   4.405   9.869 -0.2388  0.3676  0.5943
   46CHL1   H7B 5823   3.092   4.513   9.894  1.9799 -1.3763  1.8288
   46CHL1    C8 5824   3.122   4.328   9.782 -0.1888 -0.5902 -0.2956
   46CHL1    H8 5825   3.071   4.233   9.756  3.0254 -2.4095 -0.5065
   46CHL1   C14 5826   3.166   4.407   9.651  0.6448 -0.1847 -0.5446
   46CHL1   H14 5827   3.230   4.489   9.690 -2.5718  2.3421 -0.1516
   46CHL1   C15 5828   3.058   4.480   9.582  0.4034 -0.6792  0.2388
   46CHL1  H15A 5829   2.976   4.405   9.581 -0.9990  0.6542  3.1391
   46CHL1  H15B 5830   3.013   4.566   9.636  1.1977  0.0566 -0.2517
   46CHL1   C16 5831   3.116   4.500   9.441  0.2190 -0.2035  0.2595
   46CHL1  H16A 5832   3.042   4.459   9.368 -0.4064 -1.5574  1.5942
   46CHL1  H16B 5833   3.120   4.610   9.429 -1.3576 -0.2306 -0.9023
   46CHL1   C17 5834   3.258   4.444   9.442  0.0863 -0.1936  0.4042
   46CHL1   H17 5835   3.328   4.519   9.484 -1.3607  4.2178 -4.1166
   46CHL1   C13 5836   3.251   4.333   9.549 -0.2261 -0.2197  0.1946
   46CHL1   C18 5837   3.170   4.208   9.491 -0.5736  0.0300  0.6278
   46CHL1  H18A 5838   3.157   4.130   9.569  1.2777 -1.8963 -0.8502
   46CHL1  H18B 5839   3.069   4.233   9.454 -0.5752 -0.5176  0.2530
   46CHL1  H18C 5840   3.227   4.150   9.415 -3.9336 -3.2688  0.3489
   46CHL1   C12 5841   3.379   4.286   9.619 -0.3694  0.5773  0.3278
   46CHL1  H12A 5842   3.431   4.217   9.548 -0.2288  0.9637  0.0538
   46CHL1  H12B 5843   3.444   4.362   9.667 -1.9449  0.1627  3.3025
   46CHL1   C11 5844   3.344   4.199   9.740 -0.0853 -0.0745 -0.1056
   46CHL1  H11A 5845   3.302   4.100   9.716 -0.4983 -0.5669  2.3648
   46CHL1  H11B 5846   3.438   4.175   9.794 -2.2739 -2.9052  2.8213
   46CHL1    C9 5847   3.252   4.266   9.845  0.0501 -0.8462  0.9076
   46CHL1    H9 5848   3.307   4.355   9.882 -0.1184  0.0741 -0.9590
   46CHL1   C10 5849   3.219   4.174   9.971 -0.5071 -0.7371 -0.3872
   46CHL1   C19 5850   3.162   4.044   9.921  0.2212  0.1798  0.1718
   46CHL1  H19A 5851   3.144   3.987  10.014 -1.2448  0.4258  0.0672
   46CHL1  H19B 5852   3.066   4.050   9.865  0.4544 -0.1263 -0.2781
   46CHL1  H19C 5853   3.231   3.984   9.857 -0.5230 -1.0119  0.4473
   46CHL1    C1 5854   3.350   4.140  10.050  0.1583 -0.3403  0.6329
   46CHL1   H1A 5855   3.398   4.056   9.997  0.3461  0.3279 -0.2935
   46CHL1   H1B 5856   3.423   4.224  10.041  1.8896 -1.5557  2.5527
   46CHL1    C2 5857   3.339   4.087  10.190  0.0448 -0.5562  0.9746
   46CHL1   H2A 5858   3.437   4.078  10.243  2.1892  0.6908 -2.4249
   46CHL1   H2B 5859   3.281   3.993  10.201  1.3733 -1.4337  0.7437
   46CHL1   C20 5860   3.323   4.413   9.299 -0.9337  0.7510 -0.2702
   46CHL1   H20 5861   3.282   4.318   9.258 -0.0379  0.7657 -1.2453
   46CHL1   C21 5862   3.475   4.389   9.319  0.1863 -0.4937 -0.0769
   46CHL1  H21A 5863   3.484   4.302   9.387 -3.8489 -1.3905 -0.4369
   46CHL1  H21B 5864   3.514   4.483   9.364 -1.3641  0.0346  0.2175
   46CHL1  H21C 5865   3.533   4.362   9.228 -0.0287 -1.4707  0.0667
   46CHL1   C22 5866   3.309   4.535   9.205 -0.9917  0.1333  0.1930
   46CHL1  H22A 5867   3.202   4.560   9.216 -1.6663 -0.7197 -3.3181
   46CHL1  H22B 5868   3.381   4.614   9.234  2.5461 -1.3775 -3.4250
   46CHL1   C23 5869   3.335   4.499   9.055 -0.6712 -0.1076 -0.4149
   46CHL1  H23A 5870   3.348   4.599   9.009 -0.3174 -0.8961 -2.0692
   46CHL1  H23B 5871   3.435   4.451   9.058 -0.4255  0.3961  2.6165
   46CHL1   C24 5872   3.230   4.425   8.975 -0.6861  0.1712 -0.1082
   46CHL1  H24A 5873   3.263   4.319   8.965  0.4019  0.5387 -0.5448
   46CHL1  H24B 5874   3.133   4.421   9.029  0.7990 -0.9201  2.6252
   46CHL1   C25 5875   3.208   4.475   8.830 -0.7064  0.1904  0.1406
   46CHL1   H25 5876   3.172   4.580   8.834 -1.7307 -0.0067 -2.3497
   46CHL1   C26 5877   3.338   4.477   8.745  0.0896  0.4826 -0.5541
   46CHL1  H26A 5878   3.427   4.508   8.803 -0.8219  1.4150  0.3823
   46CHL1  H26B 5879   3.356   4.372   8.711  0.8439 -0.1347  1.5946
   46CHL1  H26C 5880   3.336   4.529   8.647  1.2349 -2.6367 -2.3880
   46CHL1   C27 5881   3.101   4.389   8.753 -0.3908 -0.2115  0.2569
   46CHL1  H27A 5882   3.129   4.284   8.775 -0.7384 -0.0245  1.7625
   46CHL1  H27B 5883   2.996   4.406   8.787 -1.6448 -0.2785 -3.1832
   46CHL1  H27C 5884   3.102   4.414   8.645 -0.3044  2.4865  0.8143
   47CHL1    C3 5885   5.313   1.910   9.992  0.0802  0.2988 -0.7993
   47CHL1    H3 5886   5.371   1.820   9.962  4.3800  2.5212  0.1509
   47CHL1    O3 5887   5.325   1.915  10.133  0.2463 -0.2723  0.3857
   47CHL1   H3' 5888   5.309   1.823  10.156  0.5574 -0.4410 -0.0683
   47CHL1    C4 5889   5.383   2.028   9.930 -0.6795  0.5100  0.4418
   47CHL1   H4A 5890   5.330   2.117   9.971  0.8075  0.9831  1.4301
   47CHL1   H4B 5891   5.487   2.025   9.969  0.3246 -1.5009 -2.0968
   47CHL1    C5 5892   5.376   2.026   9.781  0.1975 -0.6983  0.8793
   47CHL1    C6 5893   5.488   2.048   9.709 -0.5031 -0.0911 -0.1153
   47CHL1    H6 5894   5.581   2.063   9.766 -1.0346 -1.3363  1.1582
   47CHL1    C7 5895   5.495   2.064   9.561  0.2007 -0.3936 -1.0442
   47CHL1   H7A 5896   5.551   2.154   9.531  1.5333 -0.4832  0.9835
   47CHL1   H7B 5897   5.545   1.979   9.511 -0.0550 -1.2826  0.1500
   47CHL1    C8 5898   5.348   2.064   9.500 -0.2951 -0.8178 -0.2808
   47CHL1    H8 5899   5.306   2.166   9.513 -0.0015 -0.8114  0.6164
   47CHL1   C14 5900   5.349   2.027   9.355  0.1634  0.2182  0.5396
   47CHL1   H14 5901   5.395   1.926   9.361 -0.5581 -0.2133 -0.8384
   47CHL1   C15 5902   5.450   2.099   9.261 -0.8394 -0.2650  0.0799
   47CHL1  H15A 5903   5.434   2.206   9.284 -0.2765 -0.2043  0.1974
   47CHL1  H15B 5904   5.558   2.078   9.277 -0.3917  0.9930 -1.1379
   47CHL1   C16 5905   5.404   2.055   9.123  0.1939 -0.1082  0.1799
   47CHL1  H16A 5906   5.392   2.148   9.063  3.0401 -0.8946 -1.7899
   47CHL1  H16B 5907   5.487   1.995   9.081 -0.7186 -0.5358 -1.0694
   47CHL1   C17 5908   5.268   1.979   9.138  0.3481  0.9507 -0.9966
   47CHL1   H17 5909   5.303   1.876   9.161 -1.3757  0.5169 -0.1921
   47CHL1   C13 5910   5.216   2.017   9.281 -0.2340  0.1695 -1.0504
   47CHL1   C18 5911   5.145   2.150   9.276  0.9762 -0.1781 -0.0166
   47CHL1  H18A 5912   5.038   2.135   9.250  0.3131  1.1996  1.7100
   47CHL1  H18B 5913   5.132   2.186   9.380  0.3886 -0.6683  0.0887
   47CHL1  H18C 5914   5.172   2.229   9.202 -1.7193  0.8777 -0.0241
   47CHL1   C12 5915   5.133   1.910   9.349  0.2700 -0.2292  0.3566
   47CHL1  H12A 5916   5.041   1.887   9.291  0.3528 -0.4417  0.3089
   47CHL1  H12B 5917   5.197   1.822   9.329  2.0990  0.9762  0.6402
   47CHL1   C11 5918   5.120   1.931   9.503 -0.2303 -1.0547  0.2570
   47CHL1  H11A 5919   5.053   2.019   9.517  0.4216 -0.5277  0.1228
   47CHL1  H11B 5920   5.071   1.844   9.552 -1.6556  0.3386  1.4691
   47CHL1    C9 5921   5.257   1.962   9.576 -0.0212 -0.2680  0.2036
   47CHL1    H9 5922   5.314   1.867   9.571 -1.2035 -1.0058  0.2879
   47CHL1   C10 5923   5.237   2.002   9.726  0.0419  0.3697  0.2188
   47CHL1   C19 5924   5.162   2.144   9.746  0.5009  0.1530 -0.0193
   47CHL1  H19A 5925   5.052   2.128   9.743  0.6395 -0.6524 -1.2017
   47CHL1  H19B 5926   5.195   2.195   9.840  2.9542  0.2052 -0.8393
   47CHL1  H19C 5927   5.200   2.217   9.671  0.2486 -1.1393 -1.4523
   47CHL1    C1 5928   5.164   1.893   9.796 -0.1239  0.5933 -0.0687
   47CHL1   H1A 5929   5.065   1.873   9.750 -0.0915 -1.6661  0.7026
   47CHL1   H1B 5930   5.216   1.796   9.778 -1.4756 -0.4761  1.4492
   47CHL1    C2 5931   5.168   1.900   9.944 -0.4622 -0.1781  0.1193
   47CHL1   H2A 5932   5.128   1.804   9.984  1.8102 -0.5624  1.6443
   47CHL1   H2B 5933   5.121   1.994   9.981 -1.0071  0.1977 -1.4187
   47CHL1   C20 5934   5.176   1.971   9.019  0.2447 -0.5263 -0.5635
   47CHL1   H20 5935   5.077   1.931   9.048 -0.6838  2.6012  1.0145
   47CHL1   C21 5936   5.233   1.882   8.910  0.0576  0.4003 -0.2415
   47CHL1  H21A 5937   5.323   1.923   8.861 -0.9764 -1.0168 -3.6468
   47CHL1  H21B 5938   5.159   1.878   8.826 -0.2427  1.3144 -0.0245
   47CHL1  H21C 5939   5.260   1.783   8.952  3.3730  1.5329  0.5662
   47CHL1   C22 5940   5.146   2.111   8.958 -0.4417 -0.2779  0.2644
   47CHL1  H22A 5941   5.158   2.197   9.027  2.1894 -0.9321  0.7631
   47CHL1  H22B 5942   5.237   2.127   8.896  0.2950 -0.4969  1.2450
   47CHL1   C23 5943   5.021   2.133   8.880  1.0649  0.4441  0.9149
   47CHL1  H23A 5944   5.003   2.036   8.829  1.8401 -0.4031  2.2063
   47CHL1  H23B 5945   4.931   2.148   8.943  0.2212  1.4469 -0.4662
   47CHL1   C24 5946   5.030   2.255   8.787  0.2409  0.0598  0.6889
   47CHL1  H24A 5947   5.047   2.337   8.860 -1.5191 -0.2829  1.5420
   47CHL1  H24B 5948   5.119   2.252   8.721  1.5743  3.5681  2.0863
   47CHL1   C25 5949   4.917   2.283   8.690  0.2501  0.8561 -0.3178
   47CHL1   H25 5950   4.907   2.201   8.617 -0.6220  1.0729 -0.4546
   47CHL1   C26 5951   4.784   2.294   8.768 -0.0038 -0.4344  0.6431
   47CHL1  H26A 5952   4.774   2.207   8.836  0.2511 -0.7403  0.2931
   47CHL1  H26B 5953   4.694   2.323   8.709  0.0706 -0.7899  0.3573
   47CHL1  H26C 5954   4.793   2.380   8.838  1.1519  0.2676 -0.3228
   47CHL1   C27 5955   4.950   2.419   8.625  0.2693 -0.1742  0.4674
   47CHL1  H27A 5956   5.041   2.418   8.562 -0.3383 -0.1914 -0.4387
   47CHL1  H27B 5957   4.869   2.450   8.555  0.7941  0.3907  0.1073
   47CHL1  H27C 5958   4.952   2.495   8.705  1.2322 -1.5978  1.8505
   48CHL1    C3 5959   0.098   4.195  10.197  0.2592  0.3006 -0.3146
   48CHL1    H3 5960   0.153   4.121  10.134  0.4295 -0.6057  0.8682
   48CHL1    O3 5961   0.074   4.143  10.328  0.2497  0.0980  0.3356
   48CHL1   H3' 5962   0.043   4.219  10.378  0.4520  0.7528 -0.5183
   48CHL1    C4 5963   0.180   4.320  10.205  0.0350 -0.2559 -0.1348
   48CHL1   H4A 5964   0.124   4.396  10.263  1.2156  0.5409  0.0023
   48CHL1   H4B 5965   0.268   4.302  10.269 -0.5171  2.5236  1.5503
   48CHL1    C5 5966   0.223   4.373  10.068 -0.1947 -0.6260  0.6919
   48CHL1    C6 5967   0.358   4.381  10.037 -0.1454  0.1402  0.3896
   48CHL1    H6 5968   0.437   4.343  10.103  0.1796  1.3352  0.7205
   48CHL1    C7 5969   0.411   4.427   9.902 -0.0845 -0.3327 -0.0053
   48CHL1   H7A 5970   0.495   4.497   9.922  0.1100 -0.5112 -0.1914
   48CHL1   H7B 5971   0.456   4.336   9.858 -0.7647 -0.2762 -0.8336
   48CHL1    C8 5972   0.299   4.485   9.808 -0.1104 -0.2350  0.2480
   48CHL1    H8 5973   0.282   4.591   9.839 -3.3733 -0.4464 -0.4019
   48CHL1   C14 5974   0.350   4.468   9.668 -0.0127 -0.4237  0.3425
   48CHL1   H14 5975   0.357   4.358   9.663 -0.5037 -0.4128 -1.0585
   48CHL1   C15 5976   0.482   4.528   9.628 -0.5714 -0.4294  0.4412
   48CHL1  H15A 5977   0.488   4.628   9.677  0.4331  0.0700 -0.6438
   48CHL1  H15B 5978   0.573   4.469   9.651 -0.8169 -0.7437  0.6062
   48CHL1   C16 5979   0.483   4.535   9.472  1.0628  0.1340 -0.7311
   48CHL1  H16A 5980   0.512   4.641   9.458  0.4454  0.9610  3.1522
   48CHL1  H16B 5981   0.554   4.470   9.416  2.2837 -0.0474  0.9655
   48CHL1   C17 5982   0.337   4.505   9.429 -0.2327  0.8814  0.2333
   48CHL1   H17 5983   0.336   4.394   9.416 -0.0019  0.6944  1.6155
   48CHL1   C13 5984   0.250   4.518   9.557 -0.1323 -0.0994 -0.2338
   48CHL1   C18 5985   0.221   4.670   9.577  0.5355  0.9458 -0.3510
   48CHL1  H18A 5986   0.153   4.715   9.502  0.3099  0.1923 -0.6087
   48CHL1  H18B 5987   0.178   4.685   9.678  0.1575 -1.7630 -0.0386
   48CHL1  H18C 5988   0.315   4.730   9.574 -0.0052  1.7878 -0.8185
   48CHL1   C12 5989   0.124   4.427   9.578 -0.4777 -0.6750  0.5453
   48CHL1  H12A 5990   0.051   4.464   9.502 -0.8840  1.2423  1.7844
   48CHL1  H12B 5991   0.147   4.320   9.563  0.0895 -0.3135 -1.4722
   48CHL1   C11 5992   0.061   4.445   9.719 -0.6237  0.1921  0.7883
   48CHL1  H11A 5993   0.030   4.549   9.742  2.6421  1.1049  1.5326
   48CHL1  H11B 5994  -0.022   4.371   9.716 -0.0202 -0.4846  0.3359
   48CHL1    C9 5995   0.169   4.399   9.828  0.0331  0.1287  0.2501
   48CHL1    H9 5996   0.201   4.295   9.805  0.7081 -0.1074  2.0897
   48CHL1   C10 5997   0.116   4.399   9.971 -0.7415  0.7490 -0.2344
   48CHL1   C19 5998   0.061   4.541  10.003  0.3641 -0.2669 -0.2062
   48CHL1  H19A 5999  -0.034   4.561   9.948  0.1075 -2.2925 -0.5980
   48CHL1  H19B 6000   0.043   4.543  10.112 -1.6969  4.8107 -0.3956
   48CHL1  H19C 6001   0.146   4.610   9.991  0.8935 -1.1522 -1.9675
   48CHL1    C1 6002   0.008   4.283   9.986  0.1282  0.3158  0.1203
   48CHL1   H1A 6003  -0.088   4.312   9.938 -0.9615  1.2184  2.6387
   48CHL1   H1B 6004   0.034   4.192   9.927 -1.5517 -0.3365  0.3157
   48CHL1    C2 6005  -0.032   4.240  10.126 -0.5454 -0.9318 -0.2471
   48CHL1   H2A 6006  -0.101   4.153  10.122  1.0622 -2.2399 -0.7437
   48CHL1   H2B 6007  -0.075   4.330  10.175  1.1296  0.2997 -0.9399
   48CHL1   C20 6008   0.293   4.578   9.300 -0.3253 -0.3583  0.7679
   48CHL1   H20 6009   0.269   4.686   9.309 -0.7419 -0.3748 -0.0286
   48CHL1   C21 6010   0.159   4.513   9.259 -0.1928  0.0126 -0.3030
   48CHL1  H21A 6011   0.079   4.564   9.316  0.6565 -0.0808  1.0320
   48CHL1  H21B 6012   0.166   4.404   9.281 -0.9164  0.2406  1.1745
   48CHL1  H21C 6013   0.140   4.535   9.152  0.8839 -3.0230 -1.2424
   48CHL1   C22 6014   0.389   4.557   9.184  0.3206  0.6278  0.3468
   48CHL1  H22A 6015   0.493   4.570   9.221  0.8145 -0.9875 -0.3839
   48CHL1  H22B 6016   0.372   4.451   9.156  0.0901  0.3347  1.5308
   48CHL1   C23 6017   0.380   4.651   9.060  0.1615 -0.0325  0.9503
   48CHL1  H23A 6018   0.280   4.650   9.012  1.2690  0.2355 -1.5242
   48CHL1  H23B 6019   0.385   4.755   9.098 -2.7612 -0.0471  1.6288
   48CHL1   C24 6020   0.490   4.637   8.949 -0.4103  0.0836 -0.0439
   48CHL1  H24A 6021   0.478   4.720   8.876 -0.8384  0.4989  0.4861
   48CHL1  H24B 6022   0.587   4.648   9.002 -1.4025  1.8413  1.5246
   48CHL1   C25 6023   0.484   4.500   8.882 -0.0150  0.0592 -0.0708
   48CHL1   H25 6024   0.490   4.418   8.957 -0.6999  0.7104  0.7242
   48CHL1   C26 6025   0.355   4.499   8.800  0.0344  0.5812 -0.3220
   48CHL1  H26A 6026   0.350   4.404   8.741 -2.9004  1.6864 -2.0518
   48CHL1  H26B 6027   0.266   4.509   8.866  0.6848  1.2152  0.4716
   48CHL1  H26C 6028   0.362   4.584   8.729 -2.8327  0.1262 -1.2829
   48CHL1   C27 6029   0.596   4.476   8.793  0.6705  0.0560 -0.2422
   48CHL1  H27A 6030   0.686   4.515   8.846 -0.8194  3.7374 -0.1593
   48CHL1  H27B 6031   0.612   4.368   8.775  0.0187  0.0131 -0.5906
   48CHL1  H27C 6032   0.580   4.536   8.701  0.2391  0.6334  0.2086
   49CHL1    C3 6033   6.431   3.345  10.216 -0.1990 -0.0672  0.2586
   49CHL1    H3 6034   6.418   3.454  10.234 -1.0077  0.0503 -0.9139
   49CHL1    O3 6035   6.418   3.263  10.327 -0.3987  0.1796 -0.3910
   49CHL1   H3' 6036   6.326   3.236  10.326  0.0552 -1.4432 -0.5767
   49CHL1    C4 6037   6.312   3.300  10.131  0.0098 -0.9438 -0.4225
   49CHL1   H4A 6038   6.306   3.189  10.133  0.2244 -0.9489  1.1682
   49CHL1   H4B 6039   6.221   3.330  10.188  1.2292 -0.4092  1.3363
   49CHL1    C5 6040   6.311   3.355   9.988 -0.0520  0.4384 -0.0247
   49CHL1    C6 6041   6.202   3.414   9.934  0.6167 -0.1441 -0.1494
   49CHL1    H6 6042   6.116   3.421  10.003  2.2866 -0.6392  2.1001
   49CHL1    C7 6043   6.195   3.453   9.791  0.0625  0.0254 -0.3507
   49CHL1   H7A 6044   6.109   3.405   9.741 -0.6076 -0.0688  0.8452
   49CHL1   H7B 6045   6.181   3.563   9.780 -2.7866 -0.2396  0.0251
   49CHL1    C8 6046   6.318   3.420   9.698  0.0590 -0.5133  0.0457
   49CHL1    H8 6047   6.312   3.317   9.658  0.0407  0.2073 -1.9442
   49CHL1   C14 6048   6.329   3.522   9.580 -0.8632  0.0304  0.2490
   49CHL1   H14 6049   6.354   3.618   9.629 -1.5076 -0.4016  1.4592
   49CHL1   C15 6050   6.211   3.546   9.485  0.4095 -0.3392 -0.3983
   49CHL1  H15A 6051   6.159   3.449   9.472  1.0256 -0.8491  0.7731
   49CHL1  H15B 6052   6.128   3.612   9.519  0.0643 -1.2238  0.5570
   49CHL1   C16 6053   6.271   3.603   9.350  0.1440  0.5727 -0.4586
   49CHL1  H16A 6054   6.243   3.536   9.266 -0.8013  0.4627 -0.0710
   49CHL1  H16B 6055   6.228   3.705   9.341 -0.4381  0.3932  0.1481
   49CHL1   C17 6056   6.425   3.598   9.368  0.1747  0.4801 -0.1511
   49CHL1   H17 6057   6.453   3.688   9.427 -1.6720  1.3735 -0.5379
   49CHL1   C13 6058   6.450   3.488   9.477  0.1413  0.7443  0.1745
   49CHL1   C18 6059   6.436   3.342   9.423  0.0768 -0.0866 -0.1590
   49CHL1  H18A 6060   6.452   3.270   9.506 -2.0767 -0.0037  0.3973
   49CHL1  H18B 6061   6.330   3.329   9.393  0.0342  0.9710 -0.4954
   49CHL1  H18C 6062   6.504   3.332   9.336  0.5090  2.2498 -0.1525
   49CHL1   C12 6063   6.582   3.488   9.558 -0.1154  1.0873 -0.1169
   49CHL1  H12A 6064   6.675   3.459   9.505  1.2282  1.0354  2.1418
   49CHL1  H12B 6065   6.595   3.597   9.579  0.2544  0.6643  2.1771
   49CHL1   C11 6066   6.570   3.410   9.693 -1.4659 -0.8303 -0.2519
   49CHL1  H11A 6067   6.584   3.302   9.667  1.8816 -0.6371  0.2804
   49CHL1  H11B 6068   6.658   3.437   9.755 -1.5575  0.1616 -0.5457
   49CHL1    C9 6069   6.442   3.433   9.779  0.3917 -0.2230 -0.0484
   49CHL1    H9 6070   6.436   3.539   9.812 -0.4575  0.0176 -0.9315
   49CHL1   C10 6071   6.446   3.344   9.910 -0.2232 -0.1004  0.0154
   49CHL1   C19 6072   6.462   3.194   9.863 -0.4727 -0.0917 -0.6068
   49CHL1  H19A 6073   6.563   3.171   9.820  1.0332  1.0704  2.0840
   49CHL1  H19B 6074   6.451   3.120   9.945  0.9426  1.0809  0.6872
   49CHL1  H19C 6075   6.380   3.174   9.790 -2.1731  0.6025  1.0444
   49CHL1    C1 6076   6.567   3.381   9.997  0.4704 -0.5829 -0.6631
   49CHL1   H1A 6077   6.661   3.345   9.948  0.9014 -3.2221  1.8037
   49CHL1   H1B 6078   6.576   3.491  10.005 -1.9812 -0.3685 -0.3531
   49CHL1    C2 6079   6.566   3.324  10.144 -0.1377  0.0650  0.4927
   49CHL1   H2A 6080   6.645   3.357  10.215 -0.1271 -0.3894  0.6931
   49CHL1   H2B 6081   6.571   3.214  10.127 -1.0201  0.2804 -1.3348
   49CHL1   C20 6082   6.506   3.614   9.240  0.5885  0.5894 -0.2060
   49CHL1   H20 6083   6.488   3.523   9.178  0.1221  1.4834 -1.4306
   49CHL1   C21 6084   6.661   3.626   9.267  0.0954  0.2882  0.8362
   49CHL1  H21A 6085   6.703   3.555   9.340  0.3550 -2.2298 -1.5940
   49CHL1  H21B 6086   6.667   3.726   9.315 -2.9260 -0.0464  2.1561
   49CHL1  H21C 6087   6.734   3.621   9.183  0.5823 -3.4530  1.3110
   49CHL1   C22 6088   6.455   3.733   9.156 -0.0398  0.6637 -0.2996
   49CHL1  H22A 6089   6.346   3.719   9.135  0.2659 -1.8313 -0.5027
   49CHL1  H22B 6090   6.472   3.830   9.208 -1.9360  1.5592 -1.2246
   49CHL1   C23 6091   6.512   3.736   9.010  0.7158  0.9089 -0.1917
   49CHL1  H23A 6092   6.619   3.768   9.008  0.6001  1.3416  0.2289
   49CHL1  H23B 6093   6.511   3.635   8.966  0.6694 -0.3668  2.5160
   49CHL1   C24 6094   6.429   3.824   8.910 -0.3031  0.1912  0.4226
   49CHL1  H24A 6095   6.327   3.781   8.905 -0.3432  0.4135 -0.9383
   49CHL1  H24B 6096   6.417   3.922   8.962 -0.2833  1.2254 -1.4392
   49CHL1   C25 6097   6.481   3.839   8.768  0.1592 -0.7408 -1.0487
   49CHL1   H25 6098   6.579   3.891   8.775  0.4809 -1.4282 -0.1586
   49CHL1   C26 6099   6.498   3.710   8.697  0.3288 -0.0931  0.6241
   49CHL1  H26A 6100   6.407   3.647   8.697  0.9651 -1.1249 -1.5629
   49CHL1  H26B 6101   6.539   3.721   8.594 -1.4473 -3.4341 -0.5603
   49CHL1  H26C 6102   6.574   3.647   8.747 -0.7779 -1.5759  0.4825
   49CHL1   C27 6103   6.386   3.943   8.699 -0.1457  0.6986 -0.7817
   49CHL1  H27A 6104   6.424   3.964   8.597  0.4967  0.5687 -0.5738
   49CHL1  H27B 6105   6.281   3.907   8.700 -0.0549  0.3650  1.7561
   49CHL1  H27C 6106   6.374   4.036   8.759 -2.7880 -1.6585  2.7318
   50CHL1    C3 6107   6.680   5.802  10.155 -0.3029 -0.0671 -0.3312
   50CHL1    H3 6108   6.791   5.805  10.154 -0.2198 -1.2561  1.4646
   50CHL1    O3 6109   6.629   5.774  10.283 -0.2852  0.5094 -0.6486
   50CHL1   H3' 6110   6.534   5.776  10.275 -0.2509  1.3030 -0.8990
   50CHL1    C4 6111   6.632   5.941  10.127 -0.2498  0.1958 -0.1105
   50CHL1   H4A 6112   6.521   5.944  10.122 -0.2665 -1.4418 -1.8748
   50CHL1   H4B 6113   6.658   6.020  10.201  0.5544 -1.7244  1.7594
   50CHL1    C5 6114   6.685   5.977   9.992 -0.3930 -0.2516 -0.4140
   50CHL1    C6 6115   6.768   6.081   9.974  0.5751 -0.5633  0.0848
   50CHL1    H6 6116   6.803   6.141  10.060 -1.1121  0.3344  0.1987
   50CHL1    C7 6117   6.813   6.137   9.837  0.2625 -0.0542 -0.6207
   50CHL1   H7A 6118   6.778   6.241   9.821  0.3142 -0.1518 -1.3830
   50CHL1   H7B 6119   6.924   6.144   9.841  0.4403 -2.4606  1.7116
   50CHL1    C8 6120   6.748   6.063   9.720 -0.1461  0.1390  0.7759
   50CHL1    H8 6121   6.644   6.101   9.711 -0.5014 -0.6943  1.2013
   50CHL1   C14 6122   6.834   6.070   9.595  0.3560  0.1125  0.6371
   50CHL1   H14 6123   6.928   6.022   9.632  0.8048  0.1936 -0.3575
   50CHL1   C15 6124   6.878   6.206   9.549 -0.3305 -0.6515 -0.2986
   50CHL1  H15A 6125   6.791   6.276   9.555 -0.8298 -1.3705  2.2126
   50CHL1  H15B 6126   6.959   6.246   9.613 -0.0368 -1.1823 -0.3388
   50CHL1   C16 6127   6.920   6.188   9.405  0.6363 -0.0202  0.4011
   50CHL1  H16A 6128   6.850   6.244   9.339  1.0578 -2.1230 -2.0003
   50CHL1  H16B 6129   7.024   6.196   9.366  0.9546 -1.9057  0.7639
   50CHL1   C17 6130   6.886   6.036   9.378  0.2302 -0.2578 -0.2408
   50CHL1   H17 6131   6.970   5.978   9.423 -1.9354 -2.8092  0.8163
   50CHL1   C13 6132   6.777   5.999   9.472 -0.0478  0.1545 -0.9576
   50CHL1   C18 6133   6.637   6.049   9.430  0.0698  0.4757 -0.4493
   50CHL1  H18A 6134   6.634   6.159   9.415  1.6293  0.2633 -2.7249
   50CHL1  H18B 6135   6.612   6.005   9.332 -1.4401 -1.0698  0.5865
   50CHL1  H18C 6136   6.551   6.033   9.499  1.4917  2.5010  2.0105
   50CHL1   C12 6137   6.762   5.851   9.506 -0.4117  0.4570 -0.3203
   50CHL1  H12A 6138   6.732   5.786   9.421 -0.2128  0.7066 -0.5866
   50CHL1  H12B 6139   6.866   5.815   9.520 -0.3860  0.1468 -1.2019
   50CHL1   C11 6140   6.690   5.814   9.634 -0.3454 -0.6779  0.9482
   50CHL1  H11A 6141   6.580   5.815   9.617 -0.1564 -0.2064 -0.3379
   50CHL1  H11B 6142   6.704   5.709   9.667  1.6402  0.1510  2.9877
   50CHL1    C9 6143   6.719   5.914   9.748  0.0110  0.4671  0.1626
   50CHL1    H9 6144   6.819   5.871   9.775 -0.1206  0.1924  0.2159
   50CHL1   C10 6145   6.638   5.885   9.881  0.6559  0.1229 -0.3058
   50CHL1   C19 6146   6.489   5.904   9.851 -0.0954 -0.4523  0.1295
   50CHL1  H19A 6147   6.430   5.877   9.941 -0.9975 -0.5933 -0.4773
   50CHL1  H19B 6148   6.472   6.010   9.823  0.4508  0.4147  2.8849
   50CHL1  H19C 6149   6.460   5.839   9.765  0.3645  0.5602 -0.8174
   50CHL1    C1 6150   6.659   5.734   9.919 -0.5747 -0.2847  0.0112
   50CHL1   H1A 6151   6.609   5.669   9.845 -0.7971  0.1062 -0.1834
   50CHL1   H1B 6152   6.769   5.717   9.908 -0.5159  0.1311 -0.0830
   50CHL1    C2 6153   6.616   5.701  10.056  0.1656  0.3820 -0.4811
   50CHL1   H2A 6154   6.631   5.598  10.094  1.6804  0.9748  0.5751
   50CHL1   H2B 6155   6.505   5.700  10.069 -0.0425 -0.6783 -2.0718
   50CHL1   C20 6156   6.885   5.991   9.231 -0.5893  0.3644 -0.3989
   50CHL1   H20 6157   6.818   5.902   9.232  0.4478 -0.4416 -0.8990
   50CHL1   C21 6158   7.027   5.952   9.194  0.1991 -0.1278 -0.4369
   50CHL1  H21A 6159   7.045   5.930   9.087 -1.2946 -1.8639 -0.3919
   50CHL1  H21B 6160   7.055   5.867   9.261  0.2233 -0.7478 -1.2130
   50CHL1  H21C 6161   7.100   6.033   9.214 -0.9243  0.2744  2.5916
   50CHL1   C22 6162   6.831   6.092   9.122 -0.1224  0.6909 -0.3000
   50CHL1  H22A 6163   6.749   6.157   9.159 -0.4621  0.9001 -1.3788
   50CHL1  H22B 6164   6.908   6.168   9.097 -1.0466  1.3139 -1.3325
   50CHL1   C23 6165   6.784   6.022   8.999 -1.1919  0.4131  0.2673
   50CHL1  H23A 6166   6.860   5.950   8.962  1.5517  3.4510 -0.4516
   50CHL1  H23B 6167   6.685   5.973   9.014 -0.6282 -0.5383  0.9012
   50CHL1   C24 6168   6.752   6.123   8.884 -0.2631  0.6521 -0.6732
   50CHL1  H24A 6169   6.670   6.189   8.920 -0.0857  0.5502 -0.0614
   50CHL1  H24B 6170   6.839   6.188   8.864  2.4858 -2.5855 -0.0941
   50CHL1   C25 6171   6.703   6.059   8.757 -0.5835  0.3898  0.0233
   50CHL1   H25 6172   6.784   5.993   8.718 -1.8265 -0.6515 -0.9024
   50CHL1   C26 6173   6.581   5.964   8.768 -0.7969  0.4565 -0.5146
   50CHL1  H26A 6174   6.611   5.872   8.822 -0.2296  2.9597  3.9178
   50CHL1  H26B 6175   6.493   6.011   8.816  0.2692  0.4305  1.5543
   50CHL1  H26C 6176   6.542   5.937   8.667 -3.1936 -0.9536  0.7127
   50CHL1   C27 6177   6.660   6.175   8.656 -0.8920 -0.2618  0.0263
   50CHL1  H27A 6178   6.640   6.141   8.553 -1.8270  0.8930 -0.1893
   50CHL1  H27B 6179   6.577   6.234   8.701  0.5224  3.3092 -1.7128
   50CHL1  H27C 6180   6.747   6.243   8.645  2.0317 -3.6564 -0.0988
   51CHL1    C3 6181   2.686   2.361  10.247 -0.5385 -0.2134  0.1600
   51CHL1    H3 6182   2.681   2.471  10.262  1.4578  0.2172 -1.7620
   51CHL1    O3 6183   2.663   2.313  10.374  0.1935  0.1452 -0.4352
   51CHL1   H3' 6184   2.692   2.222  10.365  1.7948  0.3118  2.1417
   51CHL1    C4 6185   2.569   2.307  10.161  0.5297 -0.5879 -0.5630
   51CHL1   H4A 6186   2.556   2.198  10.180  0.2560 -0.2312  1.5158
   51CHL1   H4B 6187   2.468   2.335  10.199 -0.3797 -1.6165 -2.1125
   51CHL1    C5 6188   2.584   2.343  10.017  0.3913 -0.9437  0.5785
   51CHL1    C6 6189   2.491   2.428   9.956 -1.0029 -0.0926 -0.4623
   51CHL1    H6 6190   2.403   2.471  10.005 -1.2307  0.9204 -1.6855
   51CHL1    C7 6191   2.504   2.450   9.804  0.1336 -0.1377 -0.6991
   51CHL1   H7A 6192   2.401   2.456   9.763 -1.5763 -1.0145  3.0345
   51CHL1   H7B 6193   2.547   2.551   9.789  1.3570 -0.6785 -0.9585
   51CHL1    C8 6194   2.586   2.345   9.732 -0.0657  0.6487  0.9865
   51CHL1    H8 6195   2.524   2.252   9.732  1.0576 -0.1279  0.0343
   51CHL1   C14 6196   2.603   2.385   9.581 -0.6024  0.0531 -0.2803
   51CHL1   H14 6197   2.648   2.486   9.583 -0.5809  0.0515 -0.6210
   51CHL1   C15 6198   2.488   2.405   9.496 -0.2561 -0.4321  0.2304
   51CHL1  H15A 6199   2.413   2.329   9.528 -1.0464  0.0863 -0.3508
   51CHL1  H15B 6200   2.450   2.507   9.519 -0.8673 -0.8278  0.9894
   51CHL1   C16 6201   2.540   2.396   9.351 -0.0470 -0.4694 -0.4239
   51CHL1  H16A 6202   2.482   2.311   9.309  1.1673 -0.7893 -1.4819
   51CHL1  H16B 6203   2.531   2.490   9.293  1.4156  0.2125  0.4000
   51CHL1   C17 6204   2.694   2.356   9.365  0.5544  0.5330  0.0917
   51CHL1   H17 6205   2.747   2.454   9.364 -1.1078  1.4938  0.9163
   51CHL1   C13 6206   2.698   2.294   9.510 -0.0971  0.7693  0.3446
   51CHL1   C18 6207   2.649   2.143   9.501 -0.7762 -0.9750  0.3089
   51CHL1  H18A 6208   2.612   2.098   9.596 -0.3152  0.3578  1.1711
   51CHL1  H18B 6209   2.556   2.149   9.441 -1.5186  0.6104  1.5263
   51CHL1  H18C 6210   2.732   2.081   9.463 -0.9781 -0.8897 -0.2729
   51CHL1   C12 6211   2.833   2.303   9.580  0.4869 -0.1641  0.1127
   51CHL1  H12A 6212   2.919   2.252   9.530 -0.5945 -0.2838 -1.7208
   51CHL1  H12B 6213   2.862   2.410   9.594  1.1164 -0.0832 -1.5000
   51CHL1   C11 6214   2.827   2.251   9.722 -0.0632  0.8831 -0.3253
   51CHL1  H11A 6215   2.794   2.145   9.716 -2.1059  1.4033  0.7075
   51CHL1  H11B 6216   2.925   2.267   9.770  0.0223  1.4113 -0.6677
   51CHL1    C9 6217   2.723   2.332   9.805 -0.3783 -0.2784  0.2236
   51CHL1    H9 6218   2.769   2.433   9.808 -0.4311 -0.1516 -1.7056
   51CHL1   C10 6219   2.710   2.285   9.948  0.0836 -0.3439 -0.2992
   51CHL1   C19 6220   2.697   2.129   9.956 -0.6986  0.9330 -0.7019
   51CHL1  H19A 6221   2.800   2.091   9.936 -0.0035  1.9950  0.6861
   51CHL1  H19B 6222   2.689   2.085  10.057 -1.1458 -1.1653 -1.5883
   51CHL1  H19C 6223   2.623   2.085   9.887 -0.4369 -1.3071  0.3573
   51CHL1    C1 6224   2.834   2.328  10.039  0.6058  0.1433 -0.7727
   51CHL1   H1A 6225   2.926   2.274  10.007  0.5295  1.0920 -2.7740
   51CHL1   H1B 6226   2.858   2.435  10.022  0.8369  0.3474  0.7498
   51CHL1    C2 6227   2.823   2.307  10.191 -0.2299 -0.2356  0.1197
   51CHL1   H2A 6228   2.912   2.341  10.248 -0.5191 -0.1561  0.5247
   51CHL1   H2B 6229   2.827   2.201  10.224  2.5635 -0.6345 -1.1840
   51CHL1   C20 6230   2.743   2.266   9.250 -0.0762 -0.3737  1.5118
   51CHL1   H20 6231   2.689   2.169   9.243 -1.4241  0.1909  3.2054
   51CHL1   C21 6232   2.893   2.234   9.278  0.7393 -0.6999 -0.2384
   51CHL1  H21A 6233   2.935   2.206   9.179 -1.6579 -1.5857 -1.1015
   51CHL1  H21B 6234   2.901   2.154   9.355 -1.0385 -0.3802  0.3282
   51CHL1  H21C 6235   2.942   2.320   9.328 -0.6524 -0.8833  1.5327
   51CHL1   C22 6236   2.735   2.334   9.112  0.4270  0.7021 -0.0513
   51CHL1  H22A 6237   2.770   2.439   9.113 -0.5921  1.0624 -0.4258
   51CHL1  H22B 6238   2.802   2.283   9.039 -0.1718  0.8333 -0.7071
   51CHL1   C23 6239   2.589   2.329   9.052 -0.2915  0.0147  0.1008
   51CHL1  H23A 6240   2.535   2.234   9.074 -0.1801 -0.3760 -1.2414
   51CHL1  H23B 6241   2.522   2.410   9.087  0.3982  1.2574 -1.3218
   51CHL1   C24 6242   2.583   2.353   8.900 -0.8960 -0.1538  0.6244
   51CHL1  H24A 6243   2.601   2.460   8.875  2.3774 -0.5459  0.8991
   51CHL1  H24B 6244   2.663   2.290   8.855  0.0729  0.8064  0.9671
   51CHL1   C25 6245   2.439   2.307   8.843 -0.9790 -0.4245 -0.9664
   51CHL1   H25 6246   2.442   2.322   8.733  0.5064  3.4627 -0.5292
   51CHL1   C26 6247   2.389   2.164   8.880 -0.4036  0.7248  0.7310
   51CHL1  H26A 6248   2.475   2.099   8.855 -0.8601 -0.3454  1.8300
   51CHL1  H26B 6249   2.352   2.151   8.984  0.8814 -0.0817  1.1091
   51CHL1  H26C 6250   2.309   2.144   8.806 -0.4513  1.8808  0.4496
   51CHL1   C27 6251   2.314   2.393   8.894  0.6190 -0.1530  0.3201
   51CHL1  H27A 6252   2.231   2.362   8.827  0.9874 -3.1382  1.0778
   51CHL1  H27B 6253   2.287   2.359   8.997 -1.1315 -1.0885 -0.3998
   51CHL1  H27C 6254   2.335   2.502   8.891  0.7361 -0.1077  1.8174
   52CHL1    C3 6255   3.654   2.034  10.113  0.5052  0.1328  0.7463
   52CHL1    H3 6256   3.581   2.109  10.151  2.3737  2.9994 -0.9671
   52CHL1    O3 6257   3.743   2.009  10.218 -0.1505  0.3101  0.1034
   52CHL1   H3' 6258   3.811   1.946  10.192  1.1712  1.5308  0.4649
   52CHL1    C4 6259   3.583   1.899  10.070 -0.0059  0.4559 -0.4684
   52CHL1   H4A 6260   3.666   1.826  10.065  0.9475  1.1249  2.9352
   52CHL1   H4B 6261   3.524   1.859  10.155 -0.7440 -0.2824 -1.3076
   52CHL1    C5 6262   3.499   1.908   9.943  0.0604  1.1740  0.2353
   52CHL1    C6 6263   3.371   1.864   9.929  0.4237 -0.2088  0.4947
   52CHL1    H6 6264   3.318   1.828  10.018 -0.0640  1.4730  0.9268
   52CHL1    C7 6265   3.292   1.861   9.800  0.8457  0.0197  0.0172
   52CHL1   H7A 6266   3.217   1.779   9.791 -0.6483  1.5241 -2.1844
   52CHL1   H7B 6267   3.221   1.946   9.796  1.3786  0.4880  0.4917
   52CHL1    C8 6268   3.363   1.896   9.673  0.2886  0.4502  0.1522
   52CHL1    H8 6269   3.424   1.807   9.647 -1.1329 -0.4768 -0.1159
   52CHL1   C14 6270   3.267   1.934   9.559 -0.5521  0.6458  0.1810
   52CHL1   H14 6271   3.219   2.030   9.587 -2.5510 -0.0280 -0.7552
   52CHL1   C15 6272   3.141   1.834   9.538 -1.0174 -0.3812 -0.5343
   52CHL1  H15A 6273   3.178   1.730   9.527 -0.7164 -0.2921 -0.3786
   52CHL1  H15B 6274   3.067   1.848   9.620 -0.1643  1.1850  0.0133
   52CHL1   C16 6275   3.100   1.882   9.391 -0.7859  0.0806  0.0316
   52CHL1  H16A 6276   3.083   1.790   9.332  0.8261 -0.5050  0.4103
   52CHL1  H16B 6277   3.009   1.945   9.396 -0.0416  1.1211  1.8204
   52CHL1   C17 6278   3.217   1.963   9.335 -0.1380 -0.7389  0.1069
   52CHL1   H17 6279   3.184   2.069   9.346 -0.5423 -0.9173  0.6762
   52CHL1   C13 6280   3.338   1.953   9.429  0.2186 -0.7572  0.3572
   52CHL1   C18 6281   3.412   1.826   9.384 -0.8175 -0.1258 -0.6378
   52CHL1  H18A 6282   3.489   1.794   9.457 -0.8719  1.6722  0.2677
   52CHL1  H18B 6283   3.338   1.745   9.364  0.1266 -0.6321 -2.2737
   52CHL1  H18C 6284   3.467   1.851   9.291 -0.7064 -1.9622 -1.1067
   52CHL1   C12 6285   3.427   2.084   9.451  0.0638  0.2746  1.0359
   52CHL1  H12A 6286   3.490   2.103   9.361  0.3769 -2.0069  0.7292
   52CHL1  H12B 6287   3.357   2.168   9.472  0.3977  1.5617 -2.3816
   52CHL1   C11 6288   3.524   2.066   9.570 -0.3180 -0.0186 -0.1658
   52CHL1  H11A 6289   3.602   1.998   9.529 -0.8468 -0.6182 -0.1846
   52CHL1  H11B 6290   3.568   2.164   9.599 -1.7368  0.2818  1.1103
   52CHL1    C9 6291   3.466   2.009   9.704 -0.1553  0.1640 -0.1271
   52CHL1    H9 6292   3.417   2.099   9.746  1.9991  1.5471 -0.4461
   52CHL1   C10 6293   3.569   1.976   9.822 -0.4022  0.4581  0.2447
   52CHL1   C19 6294   3.676   1.880   9.758  1.1455 -0.5574  0.4410
   52CHL1  H19A 6295   3.743   1.831   9.833  1.8274 -0.1046  0.1348
   52CHL1  H19B 6296   3.623   1.799   9.704 -0.3222 -0.1837  1.2737
   52CHL1  H19C 6297   3.742   1.946   9.698  1.2594  2.0907  3.2520
   52CHL1    C1 6298   3.635   2.107   9.878 -0.5373  0.1932  0.1008
   52CHL1   H1A 6299   3.695   2.145   9.792  2.1376  0.3906  1.9618
   52CHL1   H1B 6300   3.557   2.182   9.904 -1.4952  0.0227 -2.0525
   52CHL1    C2 6301   3.735   2.093   9.996  0.2893  0.1140 -0.4508
   52CHL1   H2A 6302   3.788   2.189  10.014 -1.8043  1.1915  0.3230
   52CHL1   H2B 6303   3.816   2.023   9.969 -0.1607 -0.5876 -0.0126
   52CHL1   C20 6304   3.236   1.954   9.180 -0.0728 -0.3509 -0.1548
   52CHL1   H20 6305   3.287   1.858   9.158  1.6619 -0.4417  3.5677
   52CHL1   C21 6306   3.330   2.070   9.131  0.4538  1.1711  0.1303
   52CHL1  H21A 6307   3.294   2.164   9.177  0.9032  0.6951  1.4926
   52CHL1  H21B 6308   3.350   2.083   9.022  1.4508  2.2227  0.4308
   52CHL1  H21C 6309   3.433   2.044   9.163  1.4645  0.4743 -3.2164
   52CHL1   C22 6310   3.106   1.973   9.093  0.3478  0.3023  0.2757
   52CHL1  H22A 6311   3.024   1.908   9.129 -1.2330  2.9164  1.7068
   52CHL1  H22B 6312   3.078   2.080   9.106  1.5429  0.9064 -1.6057
   52CHL1   C23 6313   3.114   1.946   8.941 -0.4547 -0.1522  0.1666
   52CHL1  H23A 6314   3.193   2.013   8.901  1.1376 -1.3612  1.1572
   52CHL1  H23B 6315   3.144   1.840   8.934 -0.3639 -0.0166 -1.9065
   52CHL1   C24 6316   2.989   1.989   8.867  0.0898  0.5259  0.6857
   52CHL1  H24A 6317   2.907   1.916   8.880  0.9124 -0.8038 -1.1401
   52CHL1  H24B 6318   2.961   2.087   8.911  0.0952 -0.1439  2.2547
   52CHL1   C25 6319   3.008   1.997   8.716  0.5325 -0.2094 -0.3109
   52CHL1   H25 6320   3.095   2.065   8.707  0.2838  0.1792  0.1717
   52CHL1   C26 6321   3.047   1.859   8.645 -0.1135 -0.4274  0.7371
   52CHL1  H26A 6322   3.124   1.804   8.705  1.5614  0.9791 -0.0255
   52CHL1  H26B 6323   2.952   1.802   8.634 -0.0679 -0.3664  0.0175
   52CHL1  H26C 6324   3.091   1.867   8.544  2.7316 -1.7732  1.7512
   52CHL1   C27 6325   2.888   2.067   8.647  0.4397  0.7037 -0.6141
   52CHL1  H27A 6326   2.861   2.173   8.669  0.5084  0.6919 -0.4773
   52CHL1  H27B 6327   2.892   2.055   8.536 -3.7653  1.4642 -1.0276
   52CHL1  H27C 6328   2.799   2.011   8.684  0.0754  1.4107 -0.3957
   53CHL1    C3 6329   4.446   6.735  10.277  0.2305  0.4726 -0.2097
   53CHL1    H3 6330   4.519   6.812  10.245 -1.9099  2.2582 -1.0601
   53CHL1    O3 6331   4.459   6.701  10.419 -0.2433  0.2297  0.2287
   53CHL1   H3' 6332   4.549   6.669  10.432  0.7851  2.6600 -0.2920
   53CHL1    C4 6333   4.309   6.799  10.235  0.3741 -0.2794 -0.2310
   53CHL1   H4A 6334   4.214   6.748  10.260 -0.7665  1.5865 -0.5171
   53CHL1   H4B 6335   4.305   6.899  10.284  3.1671 -0.3125  0.2397
   53CHL1    C5 6336   4.302   6.818  10.081 -0.3583 -0.3130 -1.0315
   53CHL1    C6 6337   4.272   6.942  10.035  0.0881  0.4099 -0.3395
   53CHL1    H6 6338   4.267   7.026  10.107  0.2174 -1.0850  1.5015
   53CHL1    C7 6339   4.249   6.977   9.892  0.3082  0.4958  0.6680
   53CHL1   H7A 6340   4.157   7.037   9.874  0.6732  0.8626 -0.0257
   53CHL1   H7B 6341   4.327   7.042   9.846 -0.4026 -0.0224 -1.3783
   53CHL1    C8 6342   4.237   6.848   9.803  0.7804  0.6976 -0.1922
   53CHL1    H8 6343   4.136   6.804   9.818  0.8193 -0.1349 -2.1361
   53CHL1   C14 6344   4.272   6.886   9.662 -0.7473  0.1230  0.0585
   53CHL1   H14 6345   4.379   6.916   9.661 -1.7435  4.2766 -0.5851
   53CHL1   C15 6346   4.202   7.003   9.590  0.7218 -0.2921  0.0832
   53CHL1  H15A 6347   4.093   6.985   9.592  0.6284  0.1287 -0.8739
   53CHL1  H15B 6348   4.218   7.101   9.639 -1.0212  0.4778 -0.7972
   53CHL1   C16 6349   4.243   6.994   9.440  0.1794  0.5276  0.1218
   53CHL1  H16A 6350   4.158   7.025   9.376  1.0976  0.9281 -0.9446
   53CHL1  H16B 6351   4.328   7.056   9.404  2.7656 -3.5850 -1.7797
   53CHL1   C17 6352   4.290   6.847   9.431  0.3158  0.2513 -0.0371
   53CHL1   H17 6353   4.401   6.851   9.423  0.2454 -0.3128 -1.6327
   53CHL1   C13 6354   4.262   6.770   9.563 -0.6517 -0.2547  0.0899
   53CHL1   C18 6355   4.115   6.714   9.557  0.0479 -0.3330 -0.0699
   53CHL1  H18A 6356   4.042   6.798   9.548  1.5587  0.8766 -1.9855
   53CHL1  H18B 6357   4.085   6.642   9.477  0.4160 -2.6557  1.7965
   53CHL1  H18C 6358   4.094   6.659   9.651 -0.2739 -0.1769 -0.0492
   53CHL1   C12 6359   4.363   6.663   9.603 -0.0728  0.0019  0.7015
   53CHL1  H12A 6360   4.359   6.574   9.536  1.1007  0.2351  0.2927
   53CHL1  H12B 6361   4.466   6.703   9.591 -0.8221  1.6154 -0.8549
   53CHL1   C11 6362   4.346   6.612   9.752 -0.6541  0.0295  1.1912
   53CHL1  H11A 6363   4.257   6.546   9.765 -0.1322 -0.6139  1.5426
   53CHL1  H11B 6364   4.429   6.543   9.775 -0.3391  0.1125  0.3475
   53CHL1    C9 6365   4.343   6.739   9.849 -0.6186  0.7398  0.2836
   53CHL1    H9 6366   4.441   6.791   9.840  0.0470  0.1459  3.0920
   53CHL1   C10 6367   4.326   6.695   9.999  0.8207 -0.1748  0.3485
   53CHL1   C19 6368   4.206   6.604  10.022 -0.6966  0.2699  0.6530
   53CHL1  H19A 6369   4.107   6.647   9.994 -0.1371  1.1927  0.0767
   53CHL1  H19B 6370   4.227   6.510   9.967  1.5365  1.4806 -0.6850
   53CHL1  H19C 6371   4.205   6.582  10.131 -0.6814  0.0583  0.6102
   53CHL1    C1 6372   4.452   6.622  10.041  0.0110 -0.7672 -0.0089
   53CHL1   H1A 6373   4.472   6.527   9.987  3.5632 -0.3686  0.3783
   53CHL1   H1B 6374   4.538   6.686  10.012 -1.7882  1.5116 -0.5458
   53CHL1    C2 6375   4.459   6.601  10.194  0.4929  0.3219  0.4020
   53CHL1   H2A 6376   4.553   6.552  10.227 -0.0074  0.8962  2.8818
   53CHL1   H2B 6377   4.377   6.532  10.226 -3.2483  2.5609 -3.2582
   53CHL1   C20 6378   4.254   6.788   9.297  0.7640  0.3461  0.1401
   53CHL1   H20 6379   4.143   6.784   9.293  0.6990  0.7490  1.1249
   53CHL1   C21 6380   4.308   6.645   9.282 -0.3660  0.0595  0.1259
   53CHL1  H21A 6381   4.416   6.634   9.305 -0.3899  2.1377  1.4365
   53CHL1  H21B 6382   4.299   6.622   9.173 -0.5467  0.0475  0.1428
   53CHL1  H21C 6383   4.249   6.568   9.337 -0.8331  0.9013  0.8157
   53CHL1   C22 6384   4.309   6.872   9.178  0.4658 -0.1594 -0.0805
   53CHL1  H22A 6385   4.289   6.980   9.196  0.5464 -0.1554 -0.0164
   53CHL1  H22B 6386   4.417   6.851   9.163  0.2322 -0.2585 -1.9729
   53CHL1   C23 6387   4.225   6.850   9.054 -0.2422  0.1925  0.1332
   53CHL1  H23A 6388   4.229   6.744   9.021  1.1568 -0.0502  1.0034
   53CHL1  H23B 6389   4.122   6.861   9.093  0.3642 -0.0715  1.8926
   53CHL1   C24 6390   4.247   6.944   8.929 -0.0834  0.0517 -0.0430
   53CHL1  H24A 6391   4.246   7.050   8.962 -0.7774  0.3857 -1.0831
   53CHL1  H24B 6392   4.341   6.920   8.876 -0.6262 -0.8394 -0.6299
   53CHL1   C25 6393   4.136   6.930   8.817  0.0829 -0.0125  0.3895
   53CHL1   H25 6394   4.141   6.823   8.789  0.7517  0.9012 -3.5205
   53CHL1   C26 6395   3.991   6.947   8.847  0.4768 -0.3014 -0.1597
   53CHL1  H26A 6396   3.939   6.922   8.752  0.0027  1.5821 -0.4505
   53CHL1  H26B 6397   3.957   6.875   8.925  2.1708  0.0234  0.9300
   53CHL1  H26C 6398   3.974   7.056   8.864 -1.2081 -0.3431 -1.3077
   53CHL1   C27 6399   4.185   7.013   8.695 -0.6874  0.9740 -0.1739
   53CHL1  H27A 6400   4.205   7.119   8.717  0.1522  0.7589  0.1025
   53CHL1  H27B 6401   4.283   6.967   8.670 -1.2001 -0.2145 -0.0873
   53CHL1  H27C 6402   4.124   6.997   8.603  0.1993 -0.6005 -0.5379
   54CHL1    C3 6403   1.684   4.817  10.234 -0.3989 -0.5914  0.5681
   54CHL1    H3 6404   1.629   4.899  10.183  1.1530  0.0940 -0.0744
   54CHL1    O3 6405   1.730   4.862  10.362  0.2375  0.0421  0.1836
   54CHL1   H3' 6406   1.722   4.784  10.417  0.8839 -1.2665 -1.4643
   54CHL1    C4 6407   1.604   4.685  10.239 -0.2262  0.6614  0.1650
   54CHL1   H4A 6408   1.674   4.606  10.273 -0.7590 -0.3434 -0.9775
   54CHL1   H4B 6409   1.520   4.705  10.309  0.3998  3.9732  0.1495
   54CHL1    C5 6410   1.566   4.640  10.099 -0.5712  0.4758  0.6544
   54CHL1    C6 6411   1.437   4.618  10.078  0.0487 -0.5800  0.1310
   54CHL1    H6 6412   1.361   4.626  10.157 -0.8093  0.9462 -0.7871
   54CHL1    C7 6413   1.374   4.582   9.944  0.7165 -0.2486  0.3428
   54CHL1   H7A 6414   1.299   4.502   9.954  0.8257 -1.3735 -4.8843
   54CHL1   H7B 6415   1.328   4.679   9.915 -0.6586 -0.4967  1.6047
   54CHL1    C8 6416   1.478   4.551   9.834  0.0433  0.2130  0.2047
   54CHL1    H8 6417   1.508   4.444   9.842  0.8878  0.2223 -2.1412
   54CHL1   C14 6418   1.417   4.569   9.697 -0.5167 -0.2359  0.6491
   54CHL1   H14 6419   1.397   4.678   9.684 -0.1769 -0.4582 -2.4335
   54CHL1   C15 6420   1.291   4.494   9.658 -0.3105  0.0867 -0.1499
   54CHL1  H15A 6421   1.310   4.390   9.692 -0.6688  0.2815  0.6667
   54CHL1  H15B 6422   1.205   4.542   9.710 -1.5956 -1.6289 -0.6140
   54CHL1   C16 6423   1.286   4.498   9.504  0.6659 -0.6483 -0.0356
   54CHL1  H16A 6424   1.295   4.393   9.470 -0.3407 -0.1717 -1.8773
   54CHL1  H16B 6425   1.183   4.529   9.476  0.0306 -2.5000  0.0771
   54CHL1   C17 6426   1.413   4.571   9.455  0.4993 -0.6800  0.7173
   54CHL1   H17 6427   1.388   4.679   9.454  0.1869 -0.7497  0.6508
   54CHL1   C13 6428   1.517   4.550   9.574  0.0506 -0.1944  0.0594
   54CHL1   C18 6429   1.563   4.399   9.575 -0.6583  0.1009  0.1432
   54CHL1  H18A 6430   1.485   4.322   9.587  0.4305 -0.8026  1.8479
   54CHL1  H18B 6431   1.611   4.381   9.476  0.1966  3.5070 -0.2025
   54CHL1  H18C 6432   1.645   4.376   9.647 -0.4177 -0.3946 -0.2844
   54CHL1   C12 6433   1.638   4.645   9.589 -0.4972  0.1349 -0.5221
   54CHL1  H12A 6434   1.720   4.636   9.515  0.5223 -1.6470  0.7382
   54CHL1  H12B 6435   1.607   4.752   9.582 -4.3740 -0.8138 -0.2394
   54CHL1   C11 6436   1.703   4.624   9.727  0.5069  0.3624 -0.8250
   54CHL1  H11A 6437   1.754   4.524   9.728 -1.8542 -0.9148  0.7573
   54CHL1  H11B 6438   1.784   4.700   9.730  0.3376  0.5266 -0.3608
   54CHL1    C9 6439   1.604   4.642   9.843  0.1536  0.4907 -0.3614
   54CHL1    H9 6440   1.554   4.738   9.815  1.9859  0.7804 -2.9846
   54CHL1   C10 6441   1.664   4.638   9.986  0.1941 -0.4931  0.2201
   54CHL1   C19 6442   1.759   4.516  10.008  0.1571  0.1846  0.3426
   54CHL1  H19A 6443   1.695   4.426  10.003  0.5775 -0.0815 -0.2734
   54CHL1  H19B 6444   1.832   4.511   9.925 -1.0759 -1.2491 -0.6968
   54CHL1  H19C 6445   1.810   4.501  10.106  2.2487 -1.5472 -0.9257
   54CHL1    C1 6446   1.758   4.763  10.000  0.1915 -0.0113 -0.0267
   54CHL1   H1A 6447   1.847   4.741   9.938  0.3407 -1.6467  0.7025
   54CHL1   H1B 6448   1.713   4.855   9.957  0.0078 -0.4654 -0.8339
   54CHL1    C2 6449   1.806   4.790  10.145  0.0797 -0.2186 -0.0163
   54CHL1   H2A 6450   1.876   4.876  10.136  1.2542 -1.2176 -0.7527
   54CHL1   H2B 6451   1.877   4.710  10.176  0.6940  0.2519 -0.1829
   54CHL1   C20 6452   1.451   4.520   9.317  0.1799  0.2986 -0.2853
   54CHL1   H20 6453   1.482   4.414   9.326 -1.1522 -0.0544  0.4579
   54CHL1   C21 6454   1.567   4.608   9.263 -0.8466  0.1263  0.0609
   54CHL1  H21A 6455   1.632   4.648   9.344 -1.9616  2.5705 -0.1649
   54CHL1  H21B 6456   1.522   4.699   9.218  0.7321  0.6019 -0.6464
   54CHL1  H21C 6457   1.636   4.567   9.185  0.9368  1.4757  0.8531
   54CHL1   C22 6458   1.335   4.530   9.211  0.0318 -0.2939 -0.0062
   54CHL1  H22A 6459   1.235   4.507   9.254  0.9065 -3.7705  0.4873
   54CHL1  H22B 6460   1.308   4.636   9.190 -1.3666 -0.1763  2.0402
   54CHL1   C23 6461   1.372   4.463   9.086  1.1709  0.9462  0.8953
   54CHL1  H23A 6462   1.435   4.523   9.017 -1.7761  1.5438 -1.4469
   54CHL1  H23B 6463   1.435   4.376   9.115 -0.4232  0.0339  1.7502
   54CHL1   C24 6464   1.256   4.422   8.990 -0.4647  0.4118 -0.3663
   54CHL1  H24A 6465   1.192   4.342   9.033  2.8201 -1.4833  1.3637
   54CHL1  H24B 6466   1.187   4.509   8.994  2.0545  2.4983  0.7162
   54CHL1   C25 6467   1.298   4.386   8.848 -0.6063 -0.4284 -0.4216
   54CHL1   H25 6468   1.349   4.472   8.799 -0.6065  1.2233  2.3113
   54CHL1   C26 6469   1.379   4.258   8.838  0.5121  0.4643 -0.8677
   54CHL1  H26A 6470   1.376   4.223   8.732 -2.6015 -1.5520 -0.2259
   54CHL1  H26B 6471   1.484   4.276   8.872  0.3533 -1.7571  1.0186
   54CHL1  H26C 6472   1.332   4.178   8.899  0.7526  1.2132  0.3299
   54CHL1   C27 6473   1.168   4.370   8.761  0.4268 -0.2413 -0.1335
   54CHL1  H27A 6474   1.196   4.315   8.669 -1.5376 -3.3435  0.9723
   54CHL1  H27B 6475   1.104   4.307   8.826  2.1421 -1.4106  0.4582
   54CHL1  H27C 6476   1.116   4.462   8.725  1.8650  1.4178  1.8357
   55CHL1    C3 6477   4.335   5.731  10.032 -0.5285 -0.4446 -0.4577
   55CHL1    H3 6478   4.435   5.777  10.022 -1.2923  0.8102 -3.1140
   55CHL1    O3 6479   4.285   5.749  10.163 -0.5974 -0.2516  0.3370
   55CHL1   H3' 6480   4.209   5.691  10.166  0.2885 -1.5062  4.5041
   55CHL1    C4 6481   4.259   5.808   9.929  0.3806  0.4574 -0.6510
   55CHL1   H4A 6482   4.150   5.790   9.942  0.4890  0.2710  0.0647
   55CHL1   H4B 6483   4.272   5.914   9.957  0.1001 -0.2387  2.4761
   55CHL1    C5 6484   4.294   5.793   9.787 -0.3679  1.1918 -1.1024
   55CHL1    C6 6485   4.312   5.895   9.703  0.2878 -0.1799  0.3198
   55CHL1    H6 6486   4.307   5.998   9.741  2.7716  0.3858 -0.6660
   55CHL1    C7 6487   4.356   5.879   9.559  0.3177 -0.3065 -0.2905
   55CHL1   H7A 6488   4.281   5.930   9.495  1.7628  0.7355 -1.2226
   55CHL1   H7B 6489   4.455   5.925   9.539  0.3943 -0.6816 -0.8091
   55CHL1    C8 6490   4.348   5.730   9.513  0.7254  0.3570  0.0737
   55CHL1    H8 6491   4.242   5.706   9.491  1.0746 -0.8370 -0.4335
   55CHL1   C14 6492   4.424   5.712   9.380 -0.0578  0.0753  0.5152
   55CHL1   H14 6493   4.530   5.725   9.410  0.0728 -0.6348  0.3627
   55CHL1   C15 6494   4.403   5.816   9.266 -0.4259  0.2283 -0.2844
   55CHL1  H15A 6495   4.295   5.840   9.272 -0.3623  0.2164  2.7100
   55CHL1  H15B 6496   4.464   5.905   9.296 -0.9774  0.1430  1.1765
   55CHL1   C16 6497   4.452   5.748   9.140 -0.0824  0.3843 -0.3940
   55CHL1  H16A 6498   4.358   5.753   9.082 -0.2356  2.9499 -0.0163
   55CHL1  H16B 6499   4.540   5.800   9.095  2.9848 -1.4988  2.8493
   55CHL1   C17 6500   4.499   5.604   9.185 -0.0100 -0.2418 -0.2294
   55CHL1   H17 6501   4.604   5.620   9.218  0.1028 -1.1215 -0.1284
   55CHL1   C13 6502   4.417   5.577   9.316 -0.8359  0.1872  0.5179
   55CHL1   C18 6503   4.272   5.536   9.278 -0.4771  0.3145  0.1518
   55CHL1  H18A 6504   4.235   5.598   9.194  0.2777  0.4437 -0.0920
   55CHL1  H18B 6505   4.280   5.431   9.243 -0.7607  1.1571 -2.6817
   55CHL1  H18C 6506   4.198   5.529   9.361 -0.1176 -3.8289  0.3202
   55CHL1   C12 6507   4.470   5.480   9.420 -0.3046  0.4412  0.3563
   55CHL1  H12A 6508   4.462   5.374   9.390 -0.8880  0.0430  1.8033
   55CHL1  H12B 6509   4.578   5.496   9.441  0.4833 -1.5933 -1.7622
   55CHL1   C11 6510   4.393   5.485   9.558 -0.2031 -0.4042  0.4015
   55CHL1  H11A 6511   4.288   5.456   9.540 -0.9702  3.3476 -2.7251
   55CHL1  H11B 6512   4.446   5.416   9.627  2.9249  0.8036 -0.5818
   55CHL1    C9 6513   4.395   5.633   9.620 -0.2947  0.2897  0.2990
   55CHL1    H9 6514   4.503   5.653   9.638 -0.4042  0.2437  1.0447
   55CHL1   C10 6515   4.321   5.645   9.751 -0.3443 -0.2458 -0.5737
   55CHL1   C19 6516   4.181   5.580   9.734  0.0257 -0.1710 -0.6150
   55CHL1  H19A 6517   4.122   5.572   9.828  0.2670 -1.9287 -0.5773
   55CHL1  H19B 6518   4.132   5.639   9.653  0.9634 -1.2406 -2.0143
   55CHL1  H19C 6519   4.186   5.471   9.713 -3.8919  0.0306 -3.9931
   55CHL1    C1 6520   4.402   5.562   9.856 -0.1184  0.1813 -0.0716
   55CHL1   H1A 6521   4.402   5.455   9.823  1.6679  0.6471 -1.7799
   55CHL1   H1B 6522   4.506   5.601   9.860 -0.3607  0.9148 -0.6266
   55CHL1    C2 6523   4.347   5.587  10.002  0.0158  0.3132 -0.1527
   55CHL1   H2A 6524   4.427   5.545  10.066  0.5887  1.7825  0.1341
   55CHL1   H2B 6525   4.263   5.516  10.015  0.5161  0.1405  2.6518
   55CHL1   C20 6526   4.488   5.501   9.061  0.0121  0.2304 -0.1634
   55CHL1   H20 6527   4.380   5.482   9.043  0.1542  1.7071 -3.2249
   55CHL1   C21 6528   4.546   5.365   9.110 -0.8382 -0.0958  0.0197
   55CHL1  H21A 6529   4.653   5.385   9.135 -0.9307 -1.0069  1.2521
   55CHL1  H21B 6530   4.536   5.289   9.030  2.9586 -0.3781 -0.3694
   55CHL1  H21C 6531   4.489   5.329   9.198 -0.8128 -0.3956 -0.0846
   55CHL1   C22 6532   4.553   5.554   8.927  0.2672  0.0216 -0.6187
   55CHL1  H22A 6533   4.537   5.479   8.847 -0.1810 -1.1300  0.5059
   55CHL1  H22B 6534   4.504   5.646   8.890 -0.3512 -0.3998 -0.8609
   55CHL1   C23 6535   4.707   5.584   8.928  0.1391  0.2047 -1.1998
   55CHL1  H23A 6536   4.704   5.676   8.990  1.2258 -1.0456  0.7803
   55CHL1  H23B 6537   4.759   5.509   8.991 -0.8793 -0.3586 -1.0072
   55CHL1   C24 6538   4.764   5.594   8.790 -0.2385 -0.2367  0.7327
   55CHL1  H24A 6539   4.741   5.497   8.740 -0.6642 -0.0027  0.4719
   55CHL1  H24B 6540   4.711   5.668   8.728  1.3381  0.0019 -0.3901
   55CHL1   C25 6541   4.915   5.614   8.776  0.2594 -0.3403  0.3311
   55CHL1   H25 6542   4.925   5.620   8.666 -0.8627  0.1187  0.2365
   55CHL1   C26 6543   4.964   5.752   8.817  0.6044 -0.4109 -0.5097
   55CHL1  H26A 6544   4.894   5.826   8.773  1.3607  1.5749  1.4798
   55CHL1  H26B 6545   4.954   5.776   8.925  0.0145 -1.6297 -0.2655
   55CHL1  H26C 6546   5.063   5.779   8.776  0.0813 -0.3702 -1.7870
   55CHL1   C27 6547   4.986   5.498   8.843  0.1194 -0.1393 -0.3035
   55CHL1  H27A 6548   4.931   5.401   8.851  0.3469 -0.1903  0.8617
   55CHL1  H27B 6549   5.077   5.475   8.784 -1.3970 -1.2184 -2.3345
   55CHL1  H27C 6550   5.012   5.514   8.950  1.6371  0.0065 -0.6799
   56CHL1    C3 6551   4.629   2.076  10.161 -0.1094  0.1946  0.2395
   56CHL1    H3 6552   4.574   1.980  10.151  1.1223 -0.7016  1.6609
   56CHL1    O3 6553   4.651   2.105  10.295 -0.2846 -0.1878  0.3043
   56CHL1   H3' 6554   4.563   2.129  10.326 -2.1715 -3.5452 -1.8645
   56CHL1    C4 6555   4.768   2.067  10.075  0.7123  0.3167  0.3429
   56CHL1   H4A 6556   4.821   2.164  10.088  2.8539 -0.7573 -0.0717
   56CHL1   H4B 6557   4.831   1.983  10.110  1.2424 -0.1214 -1.5393
   56CHL1    C5 6558   4.745   2.055   9.925 -0.6714 -0.7478 -0.2927
   56CHL1    C6 6559   4.794   1.948   9.859  0.4000  0.5628  0.2436
   56CHL1    H6 6560   4.853   1.877   9.917  1.3915  0.9273 -0.2997
   56CHL1    C7 6561   4.772   1.913   9.712 -0.2260 -0.2741 -0.6919
   56CHL1   H7A 6562   4.874   1.890   9.673  1.5758  1.4247  2.6671
   56CHL1   H7B 6563   4.714   1.819   9.702 -0.4146 -0.0554 -1.8233
   56CHL1    C8 6564   4.718   2.029   9.631 -0.0652  0.5370 -0.1195
   56CHL1    H8 6565   4.803   2.099   9.615  2.2681 -1.7425  1.4873
   56CHL1   C14 6566   4.658   1.975   9.494 -0.0671  0.1386 -0.6270
   56CHL1   H14 6567   4.566   1.918   9.518 -0.3766  0.6876 -0.4830
   56CHL1   C15 6568   4.742   1.880   9.406  0.1941 -0.2602  0.6515
   56CHL1  H15A 6569   4.842   1.929   9.398 -0.1973  0.6433  1.1032
   56CHL1  H15B 6570   4.744   1.775   9.443  1.3938 -0.7462 -0.7118
   56CHL1   C16 6571   4.667   1.886   9.267  0.3585  0.0155  0.2050
   56CHL1  H16A 6572   4.732   1.908   9.179  0.9430  2.9932  1.2476
   56CHL1  H16B 6573   4.609   1.794   9.245  1.6474 -0.8568  0.3980
   56CHL1   C17 6574   4.572   2.009   9.278 -0.1780  0.1689 -1.0043
   56CHL1   H17 6575   4.471   1.970   9.303  0.1257 -0.1885 -0.2763
   56CHL1   C13 6576   4.610   2.090   9.410  0.2754 -0.1385 -0.3913
   56CHL1   C18 6577   4.728   2.182   9.372  0.1305  0.2827  0.1615
   56CHL1  H18A 6578   4.811   2.127   9.322 -0.8255  0.5700 -1.8603
   56CHL1  H18B 6579   4.694   2.251   9.293 -0.7741 -0.4436 -0.1006
   56CHL1  H18C 6580   4.769   2.250   9.450 -1.1392  1.6339 -0.3153
   56CHL1   C12 6581   4.503   2.170   9.485  0.6448  0.2709 -1.1333
   56CHL1  H12A 6582   4.464   2.259   9.432 -1.1007  0.7003  0.7341
   56CHL1  H12B 6583   4.418   2.101   9.503  1.5683 -0.4579  0.7602
   56CHL1   C11 6584   4.545   2.216   9.626  0.0972 -0.4753 -0.0494
   56CHL1  H11A 6585   4.626   2.292   9.617  1.4636 -1.8689 -0.0312
   56CHL1  H11B 6586   4.457   2.252   9.682  0.7071  0.6164  0.2253
   56CHL1    C9 6587   4.602   2.102   9.713  0.3597  0.8537  0.5856
   56CHL1    H9 6588   4.526   2.024   9.734  1.2976 -0.5439 -0.9535
   56CHL1   C10 6589   4.643   2.154   9.862 -1.4444 -0.1572  0.2933
   56CHL1   C19 6590   4.706   2.292   9.857 -0.3209 -0.7184 -0.1174
   56CHL1  H19A 6591   4.794   2.287   9.790 -1.7974 -0.3102 -2.1780
   56CHL1  H19B 6592   4.630   2.362   9.816 -2.2019 -1.4918  1.8186
   56CHL1  H19C 6593   4.746   2.325   9.955 -0.1854 -0.1044 -0.3745
   56CHL1    C1 6594   4.521   2.159   9.951  0.5410 -0.1439 -0.0491
   56CHL1   H1A 6595   4.453   2.237   9.910 -1.4576 -0.5441  2.2910
   56CHL1   H1B 6596   4.480   2.056   9.939  1.2375 -0.2902 -1.3690
   56CHL1    C2 6597   4.548   2.189  10.103  0.0366  0.7260  0.1253
   56CHL1   H2A 6598   4.449   2.190  10.152 -0.9737 -1.5299 -1.6983
   56CHL1   H2B 6599   4.602   2.285  10.122  2.0364 -0.2686 -0.2230
   56CHL1   C20 6600   4.559   2.077   9.148  0.5305  0.3681  0.1922
   56CHL1   H20 6601   4.658   2.107   9.107 -0.6951  1.2013 -2.3953
   56CHL1   C21 6602   4.482   2.208   9.149 -0.5634  0.3002 -0.4447
   56CHL1  H21A 6603   4.453   2.227   9.043 -2.7066  0.0787  0.0484
   56CHL1  H21B 6604   4.544   2.292   9.186  3.1437 -1.0701 -2.9983
   56CHL1  H21C 6605   4.380   2.201   9.194 -0.9860  2.9603 -0.8348
   56CHL1   C22 6606   4.501   1.987   9.031 -0.3049  0.6869 -0.0503
   56CHL1  H22A 6607   4.538   1.884   9.055  0.3113  0.8740 -0.1775
   56CHL1  H22B 6608   4.391   1.986   9.043 -0.0541 -1.0451  3.2814
   56CHL1   C23 6609   4.551   2.036   8.894  0.0298  1.1906 -0.6180
   56CHL1  H23A 6610   4.530   2.141   8.862 -0.2702  1.9117  1.7712
   56CHL1  H23B 6611   4.662   2.031   8.884  0.3342  1.1574  2.0345
   56CHL1   C24 6612   4.502   1.945   8.784  0.3371  0.1294 -0.2859
   56CHL1  H24A 6613   4.547   1.849   8.818 -0.8300  0.1569  1.4774
   56CHL1  H24B 6614   4.392   1.934   8.791  0.2987 -0.5430 -1.5569
   56CHL1   C25 6615   4.554   1.981   8.648  0.5589 -0.1337  0.8107
   56CHL1   H25 6616   4.662   2.008   8.648  0.4156  0.5379 -0.8226
   56CHL1   C26 6617   4.534   1.857   8.560 -0.7056  0.9668 -0.1594
   56CHL1  H26A 6618   4.520   1.887   8.453  0.2865  1.4168 -0.1800
   56CHL1  H26B 6619   4.623   1.790   8.566 -2.2975 -1.3060 -0.6810
   56CHL1  H26C 6620   4.445   1.794   8.581  0.5498 -1.1946 -0.9642
   56CHL1   C27 6621   4.474   2.103   8.594  0.2527 -0.3637 -0.1375
   56CHL1  H27A 6622   4.368   2.072   8.584  0.1468  0.2114 -0.8687
   56CHL1  H27B 6623   4.465   2.190   8.662  0.5819 -1.7874  1.8084
   56CHL1  H27C 6624   4.515   2.130   8.494 -0.7655  0.9336 -0.2259
   57CHL1    C3 6625   6.444   4.810  10.334  0.8319 -0.4884 -0.5239
   57CHL1    H3 6626   6.520   4.891  10.339  0.4938 -0.1959 -0.0806
   57CHL1    O3 6627   6.411   4.765  10.468 -0.0887 -0.7249 -0.1156
   57CHL1   H3' 6628   6.315   4.756  10.465 -0.2334  0.8588 -2.4146
   57CHL1    C4 6629   6.318   4.844  10.253 -0.1783  0.4064 -0.5942
   57CHL1   H4A 6630   6.246   4.759  10.249  0.5610 -0.2257 -0.6730
   57CHL1   H4B 6631   6.276   4.927  10.314 -3.1986 -0.0808 -1.8409
   57CHL1    C5 6632   6.358   4.885  10.119 -0.2991 -0.4714  0.3151
   57CHL1    C6 6633   6.322   5.006  10.062 -0.0492 -0.1748  0.2934
   57CHL1    H6 6634   6.254   5.081  10.103 -0.3483  0.7997 -1.8643
   57CHL1    C7 6635   6.366   5.056   9.927 -0.0141 -0.1358  0.0223
   57CHL1   H7A 6636   6.289   5.107   9.865  0.1839 -0.7401 -0.7317
   57CHL1   H7B 6637   6.457   5.118   9.941  1.4825 -1.4925 -2.7864
   57CHL1    C8 6638   6.422   4.941   9.836  0.0292 -0.1179 -0.1224
   57CHL1    H8 6639   6.335   4.879   9.804 -1.0581 -0.7867  3.7000
   57CHL1   C14 6640   6.498   4.992   9.716  0.1155 -0.4979 -0.4206
   57CHL1   H14 6641   6.592   5.035   9.758 -0.5457  1.9164 -1.2475
   57CHL1   C15 6642   6.438   5.108   9.633  0.1550 -0.6334  0.0778
   57CHL1  H15A 6643   6.330   5.086   9.619 -0.3746  0.9484  1.4086
   57CHL1  H15B 6644   6.457   5.207   9.680  2.0109 -1.2247  0.6870
   57CHL1   C16 6645   6.514   5.093   9.497 -0.8371  0.0455  0.4657
   57CHL1  H16A 6646   6.438   5.081   9.417  1.0020 -0.9673 -1.1913
   57CHL1  H16B 6647   6.571   5.187   9.481 -0.7405  0.3698  2.4370
   57CHL1   C17 6648   6.606   4.971   9.505 -0.6108 -0.5314  0.2640
   57CHL1   H17 6649   6.707   4.998   9.542 -0.2704 -1.7908  0.2862
   57CHL1   C13 6650   6.542   4.883   9.615  0.1630 -0.0128 -0.0801
   57CHL1   C18 6651   6.422   4.811   9.545  0.0746 -0.3901  0.0114
   57CHL1  H18A 6652   6.370   4.748   9.619 -1.5230  0.6523 -0.1759
   57CHL1  H18B 6653   6.345   4.869   9.489 -0.3107 -0.4374  0.4868
   57CHL1  H18C 6654   6.452   4.732   9.473  1.1299  0.2134 -0.2292
   57CHL1   C12 6655   6.633   4.781   9.689  0.0126 -1.0294 -0.4143
   57CHL1  H12A 6656   6.659   4.695   9.624  0.2002 -1.7561  0.5883
   57CHL1  H12B 6657   6.727   4.831   9.719 -1.3177  1.1670  0.4066
   57CHL1   C11 6658   6.559   4.727   9.815 -0.1040  0.2238  0.2798
   57CHL1  H11A 6659   6.478   4.662   9.775 -1.5264  1.0736  1.7165
   57CHL1  H11B 6660   6.633   4.661   9.866 -0.2813 -0.0323  0.2056
   57CHL1    C9 6661   6.507   4.837   9.906 -0.0991 -0.1825 -0.1863
   57CHL1    H9 6662   6.597   4.894   9.938 -0.5050  1.2616 -1.5001
   57CHL1   C10 6663   6.449   4.781  10.040  0.4319  0.7355  0.2648
   57CHL1   C19 6664   6.371   4.649  10.002  0.4065 -0.1679 -0.6924
   57CHL1  H19A 6665   6.304   4.623  10.087  0.7548  2.0312  0.3369
   57CHL1  H19B 6666   6.295   4.669   9.923 -2.5706  2.7469  2.5645
   57CHL1  H19C 6667   6.434   4.558   9.991 -1.2227 -1.2354 -1.5767
   57CHL1    C1 6668   6.562   4.732  10.135 -0.9559 -0.4991  0.5561
   57CHL1   H1A 6669   6.607   4.641  10.090 -1.2808 -0.8578  0.9430
   57CHL1   H1B 6670   6.636   4.814  10.144 -0.8909 -0.5259  0.2862
   57CHL1    C2 6671   6.514   4.685  10.271  0.4226  0.0036 -0.4615
   57CHL1   H2A 6672   6.604   4.663  10.332  1.0175  1.6343 -0.7005
   57CHL1   H2B 6673   6.435   4.607  10.272  0.1812  0.2462  0.3511
   57CHL1   C20 6674   6.623   4.914   9.359  0.1983  0.0002  0.3353
   57CHL1   H20 6675   6.525   4.892   9.311  0.3822  0.8249 -0.4494
   57CHL1   C21 6676   6.709   4.791   9.377 -0.1245  0.9772  0.3018
   57CHL1  H21A 6677   6.791   4.827   9.443  1.4456  1.1030 -1.6567
   57CHL1  H21B 6678   6.759   4.755   9.285  0.7222  1.5451  0.5326
   57CHL1  H21C 6679   6.651   4.712   9.431  1.4972  1.1752  2.4952
   57CHL1   C22 6680   6.693   5.016   9.265  0.1660  0.1186  0.4545
   57CHL1  H22A 6681   6.654   5.119   9.280 -2.2530 -0.4770 -1.1878
   57CHL1  H22B 6682   6.799   5.015   9.299  1.0839  0.4198 -2.1656
   57CHL1   C23 6683   6.675   4.976   9.121 -0.0896 -0.6506  0.0707
   57CHL1  H23A 6684   6.707   4.872   9.101  0.6860 -0.8157  1.9079
   57CHL1  H23B 6685   6.565   4.972   9.104 -0.2288  1.2639  0.3015
   57CHL1   C24 6686   6.748   5.073   9.024  0.0713  0.2455  0.1162
   57CHL1  H24A 6687   6.734   5.047   8.917 -0.0796 -0.4695  0.3061
   57CHL1  H24B 6688   6.715   5.176   9.048 -1.4351 -0.0623 -0.5486
   57CHL1   C25 6689   6.901   5.084   9.054  0.3533 -0.2341 -0.9133
   57CHL1   H25 6690   6.920   5.117   9.158  0.6381 -0.9600 -0.7291
   57CHL1   C26 6691   6.979   4.948   9.045 -0.3838  0.3564 -0.0603
   57CHL1  H26A 6692   7.089   4.961   9.033 -0.1655 -2.7303 -2.7526
   57CHL1  H26B 6693   6.960   4.882   9.133 -0.4970  0.5467  0.0587
   57CHL1  H26C 6694   6.935   4.893   8.959  0.9728 -2.8599  1.1071
   57CHL1   C27 6695   6.959   5.186   8.956 -0.1062  0.2005  0.2911
   57CHL1  H27A 6696   6.961   5.134   8.858  1.3998 -3.1762  1.9217
   57CHL1  H27B 6697   6.902   5.280   8.949  0.7491  1.2439  4.3294
   57CHL1  H27C 6698   7.060   5.221   8.987  0.5808 -1.7572  0.4617
   58CHL1    C3 6699   1.942   5.823  10.267  0.0221  0.2003  0.1498
   58CHL1    H3 6700   2.048   5.856  10.262  0.4027 -0.8124  1.2151
   58CHL1    O3 6701   1.892   5.826  10.399  0.0542 -0.3761 -0.4797
   58CHL1   H3' 6702   1.797   5.835  10.384  0.2005  1.7079 -0.4744
   58CHL1    C4 6703   1.848   5.923  10.195  0.1920  1.0219 -0.3437
   58CHL1   H4A 6704   1.745   5.894  10.225  0.7994 -0.9002  0.0260
   58CHL1   H4B 6705   1.864   6.025  10.237  0.4688  0.7376  0.2516
   58CHL1    C5 6706   1.875   5.912  10.047  0.2433 -0.3499  0.1069
   58CHL1    C6 6707   1.889   6.027   9.976  0.4473 -0.7579 -0.6314
   58CHL1    H6 6708   1.883   6.123  10.029 -1.0657 -0.5421 -1.1337
   58CHL1    C7 6709   1.919   6.030   9.829  0.5518 -0.1852  0.2236
   58CHL1   H7A 6710   1.856   6.106   9.779 -1.1314 -1.2368  0.6461
   58CHL1   H7B 6711   2.026   6.055   9.818  0.7480 -0.2244  1.7594
   58CHL1    C8 6712   1.892   5.891   9.755 -0.3543  0.1565  0.1132
   58CHL1    H8 6713   1.781   5.884   9.749 -0.3422 -3.0906  1.6070
   58CHL1   C14 6714   1.933   5.897   9.610 -0.3661 -0.7007  0.2186
   58CHL1   H14 6715   2.042   5.914   9.613 -0.6014  1.3117 -0.5304
   58CHL1   C15 6716   1.879   6.007   9.526 -0.6043  0.4468  0.4894
   58CHL1  H15A 6717   1.768   6.010   9.533 -0.8904 -0.5972 -2.4502
   58CHL1  H15B 6718   1.931   6.104   9.543 -0.1445  0.2899  0.0099
   58CHL1   C16 6719   1.911   5.966   9.383  0.5060  0.7396 -0.0082
   58CHL1  H16A 6720   1.824   5.970   9.313 -1.2556 -1.7231  1.8722
   58CHL1  H16B 6721   1.994   6.024   9.339  0.4747  1.1087  0.4205
   58CHL1   C17 6722   1.959   5.815   9.391 -0.1387 -0.0460  0.6601
   58CHL1   H17 6723   2.070   5.808   9.390 -0.2311 -2.5907 -0.2486
   58CHL1   C13 6724   1.905   5.770   9.528 -0.3730  0.7736 -0.2549
   58CHL1   C18 6725   1.753   5.756   9.512  0.3680 -0.3491 -0.9387
   58CHL1  H18A 6726   1.707   5.827   9.440  2.6919  1.1635 -1.0370
   58CHL1  H18B 6727   1.715   5.662   9.466 -2.9130 -0.1927  1.1139
   58CHL1  H18C 6728   1.703   5.764   9.611  0.0004  2.5036 -1.2894
   58CHL1   C12 6729   1.965   5.656   9.597 -0.1456  0.5592 -0.4180
   58CHL1  H12A 6730   1.946   5.558   9.549  1.5526 -0.0093  0.0275
   58CHL1  H12B 6731   2.075   5.668   9.592  0.0095  1.4574  2.8462
   58CHL1   C11 6732   1.913   5.645   9.750  0.3919 -0.0856 -0.3474
   58CHL1  H11A 6733   1.805   5.620   9.745  0.0562  1.3192 -0.3241
   58CHL1  H11B 6734   1.953   5.561   9.810  0.5312 -0.3435 -0.7917
   58CHL1    C9 6735   1.939   5.775   9.833  0.2414  0.0643 -0.2901
   58CHL1    H9 6736   2.049   5.785   9.841  0.3346  0.1302 -1.4770
   58CHL1   C10 6737   1.891   5.770   9.981 -0.1352  0.6815  0.8112
   58CHL1   C19 6738   1.744   5.706   9.984  0.4830  0.6175 -0.4366
   58CHL1  H19A 6739   1.754   5.596   9.970  1.1985  0.4720  1.0685
   58CHL1  H19B 6740   1.682   5.724  10.074 -0.5210 -0.6321 -0.8311
   58CHL1  H19C 6741   1.689   5.737   9.893 -1.5158  1.0432  0.8606
   58CHL1    C1 6742   1.989   5.684  10.070 -0.6923 -0.4413 -0.3917
   58CHL1   H1A 6743   1.990   5.577  10.037 -0.4800 -0.7747  0.6550
   58CHL1   H1B 6744   2.095   5.717  10.070 -1.1897  1.4322 -2.6500
   58CHL1    C2 6745   1.938   5.679  10.215 -0.2450  0.4099  0.2964
   58CHL1   H2A 6746   2.016   5.620  10.269  0.8100  0.6882 -0.8749
   58CHL1   H2B 6747   1.833   5.648  10.231 -1.0730  0.9631 -3.2471
   58CHL1   C20 6748   1.934   5.724   9.270  0.3194 -0.7017  0.0784
   58CHL1   H20 6749   1.826   5.703   9.258  0.1002  1.1322 -1.7794
   58CHL1   C21 6750   2.035   5.605   9.283  0.1533 -0.3524 -0.3930
   58CHL1  H21A 6751   2.012   5.524   9.356  2.2438 -0.1525  0.5532
   58CHL1  H21B 6752   2.141   5.631   9.304 -0.0580 -1.1708  1.9292
   58CHL1  H21C 6753   2.037   5.551   9.185  0.2421  4.5362 -3.4083
   58CHL1   C22 6754   1.979   5.794   9.136  0.2953  0.0274 -1.3874
   58CHL1  H22A 6755   1.936   5.896   9.138  1.8864  0.7097 -0.8258
   58CHL1  H22B 6756   2.088   5.811   9.126  0.0298  2.9991 -0.1028
   58CHL1   C23 6757   1.931   5.719   9.004  0.1692  0.3102  0.0157
   58CHL1  H23A 6758   1.983   5.621   8.997 -0.7756 -0.3489  1.6180
   58CHL1  H23B 6759   1.822   5.703   9.020 -0.0050  0.9391 -0.5237
   58CHL1   C24 6760   1.963   5.799   8.880 -0.6798  0.1455 -0.7865
   58CHL1  H24A 6761   1.881   5.873   8.870 -0.0486  1.1084  0.7901
   58CHL1  H24B 6762   2.060   5.854   8.883  0.7297 -2.1810 -0.6717
   58CHL1   C25 6763   1.982   5.723   8.747 -0.1141 -0.1982  0.3483
   58CHL1   H25 6764   2.037   5.630   8.775  1.2066  0.8562  1.3996
   58CHL1   C26 6765   1.848   5.684   8.684 -1.0604  0.0492 -0.5984
   58CHL1  H26A 6766   1.870   5.608   8.607  1.9448  0.1097  0.0715
   58CHL1  H26B 6767   1.786   5.640   8.765  0.3132  0.4003  0.6997
   58CHL1  H26C 6768   1.795   5.773   8.644 -2.5700  0.2085  1.5292
   58CHL1   C27 6769   2.049   5.808   8.637 -0.9670 -0.0689  0.0356
   58CHL1  H27A 6770   2.148   5.842   8.674 -0.8065 -2.4283  2.0552
   58CHL1  H27B 6771   2.063   5.748   8.545  0.3302  2.1466 -1.2952
   58CHL1  H27C 6772   1.993   5.902   8.617  0.8850  1.1918  0.4988
   59CHL1    C3 6773   3.177   3.214  10.267 -0.2545 -0.2154  0.2358
   59CHL1    H3 6774   3.286   3.233  10.276 -0.4139  0.7064  0.3131
   59CHL1    O3 6775   3.133   3.178  10.396 -0.0114  0.7872 -0.0498
   59CHL1   H3' 6776   3.045   3.144  10.378  0.9771 -1.2928 -1.1707
   59CHL1    C4 6777   3.099   3.329  10.200  0.3329  0.3102  0.7190
   59CHL1   H4A 6778   2.993   3.296  10.201  1.2185 -2.9918 -0.2166
   59CHL1   H4B 6779   3.102   3.424  10.258 -0.8792  1.7035 -1.3667
   59CHL1    C5 6780   3.145   3.352  10.055 -1.0467  0.4555  1.0175
   59CHL1    C6 6781   3.193   3.474  10.022 -0.3088 -0.3636  0.2182
   59CHL1    H6 6782   3.193   3.561  10.089 -0.2545  0.6276 -1.0363
   59CHL1    C7 6783   3.248   3.503   9.883  0.8233  0.2390  0.0478
   59CHL1   H7A 6784   3.227   3.608   9.853 -2.6920 -0.7978 -1.6525
   59CHL1   H7B 6785   3.357   3.486   9.875  0.8855  0.8446 -0.5586
   59CHL1    C8 6786   3.192   3.401   9.769 -0.8851  0.4723 -0.1900
   59CHL1    H8 6787   3.086   3.432   9.759 -0.3219  1.7476 -2.9587
   59CHL1   C14 6788   3.263   3.408   9.635  0.1505  0.0147  0.1782
   59CHL1   H14 6789   3.368   3.375   9.649  0.5508  0.8326 -0.7567
   59CHL1   C15 6790   3.262   3.547   9.579  0.3016  0.1574  0.0706
   59CHL1  H15A 6791   3.160   3.582   9.608 -0.2481 -1.9893  0.8772
   59CHL1  H15B 6792   3.344   3.602   9.630  0.2075  1.1651 -0.8140
   59CHL1   C16 6793   3.283   3.525   9.431 -0.2552 -0.1467 -0.1767
   59CHL1  H16A 6794   3.209   3.571   9.362 -0.6084  1.1954  1.0457
   59CHL1  H16B 6795   3.385   3.558   9.403 -0.0053 -0.5511  0.2325
   59CHL1   C17 6796   3.281   3.368   9.412  0.2091  0.2666  0.6157
   59CHL1   H17 6797   3.384   3.326   9.419  0.8191  1.8981  2.2975
   59CHL1   C13 6798   3.203   3.309   9.530  0.0073 -0.1673 -0.0724
   59CHL1   C18 6799   3.054   3.336   9.515 -0.1563  0.4284  0.2800
   59CHL1  H18A 6800   2.999   3.321   9.610  2.3389  0.4860  1.8467
   59CHL1  H18B 6801   3.038   3.442   9.486 -0.1182  0.6088  0.9011
   59CHL1  H18C 6802   3.012   3.273   9.434 -0.8645  0.4991  0.5880
   59CHL1   C12 6803   3.235   3.168   9.581  0.3798  0.0621 -0.4213
   59CHL1  H12A 6804   3.203   3.093   9.506 -1.2674  0.1797  0.1125
   59CHL1  H12B 6805   3.344   3.162   9.599  0.6574  0.8075 -1.7730
   59CHL1   C11 6806   3.164   3.141   9.718 -0.2960 -0.1667  0.1084
   59CHL1  H11A 6807   3.054   3.129   9.710 -0.4059  0.3607  0.7572
   59CHL1  H11B 6808   3.214   3.056   9.768  0.6360  0.0161 -0.4751
   59CHL1    C9 6809   3.197   3.256   9.822 -0.6224 -0.3633  0.7931
   59CHL1    H9 6810   3.308   3.248   9.824 -0.5508  0.3240  0.1556
   59CHL1   C10 6811   3.139   3.232   9.961  0.1071 -0.4572 -0.3012
   59CHL1   C19 6812   2.990   3.215   9.943 -0.7110 -0.1426 -0.6848
   59CHL1  H19A 6813   2.969   3.112   9.907  0.4952 -1.1105  1.2639
   59CHL1  H19B 6814   2.926   3.211  10.034  3.2931  0.5278  2.4205
   59CHL1  H19C 6815   2.949   3.283   9.865  0.0505  0.3914 -0.6238
   59CHL1    C1 6816   3.200   3.112  10.029 -0.3435 -0.5407 -0.5088
   59CHL1   H1A 6817   3.155   3.027   9.974 -0.8268 -0.1326 -0.7506
   59CHL1   H1B 6818   3.311   3.121  10.023 -0.2751 -0.6896  0.2928
   59CHL1    C2 6819   3.170   3.091  10.182 -0.6917  0.2365  0.2267
   59CHL1   H2A 6820   3.247   3.022  10.222 -0.5427 -0.4937 -1.2692
   59CHL1   H2B 6821   3.073   3.037  10.178 -1.0181  0.8924 -1.5166
   59CHL1   C20 6822   3.245   3.323   9.265  0.8175 -0.2513 -0.0466
   59CHL1   H20 6823   3.137   3.346   9.258  0.7812  2.3756  4.9656
   59CHL1   C21 6824   3.275   3.166   9.251 -0.7194  0.2642 -0.0496
   59CHL1  H21A 6825   3.264   3.150   9.142 -0.5404  0.6614 -0.1259
   59CHL1  H21B 6826   3.210   3.098   9.310  2.1778 -1.9943  0.7734
   59CHL1  H21C 6827   3.382   3.150   9.276 -0.3071  2.3563 -0.2936
   59CHL1   C22 6828   3.320   3.410   9.160  0.2301  0.2626 -0.5561
   59CHL1  H22A 6829   3.304   3.518   9.181 -1.3433 -0.4943  3.0849
   59CHL1  H22B 6830   3.429   3.391   9.162  0.0018 -1.2106  1.0590
   59CHL1   C23 6831   3.278   3.382   9.014 -0.0180 -0.0230  0.3468
   59CHL1  H23A 6832   3.250   3.278   8.988  0.3344  0.4146 -1.9644
   59CHL1  H23B 6833   3.194   3.451   8.991 -0.3549 -0.7675 -0.7604
   59CHL1   C24 6834   3.390   3.437   8.910  0.6489  0.1782 -0.3143
   59CHL1  H24A 6835   3.393   3.546   8.934 -0.5137 -0.0862  1.1282
   59CHL1  H24B 6836   3.487   3.392   8.940  0.8244  2.9334  4.2286
   59CHL1   C25 6837   3.358   3.442   8.761  0.2620 -0.1091 -0.3697
   59CHL1   H25 6838   3.453   3.471   8.710  0.6460  1.9667  1.3618
   59CHL1   C26 6839   3.327   3.304   8.696  0.1046 -0.1128  0.2019
   59CHL1  H26A 6840   3.320   3.321   8.586  2.8741  1.5430  0.1860
   59CHL1  H26B 6841   3.405   3.230   8.723  0.5760  0.2807 -0.0748
   59CHL1  H26C 6842   3.225   3.272   8.728 -0.7425  0.3883 -1.7770
   59CHL1   C27 6843   3.254   3.551   8.729  0.2496 -0.1601  0.5565
   59CHL1  H27A 6844   3.241   3.549   8.619  1.2554 -0.3512  0.4314
   59CHL1  H27B 6845   3.158   3.534   8.782  0.2091 -0.7300  0.3079
   59CHL1  H27C 6846   3.283   3.653   8.763 -0.9072 -0.0809  1.3812
   60CHL1    C3 6847   1.185   1.105  10.277 -1.0555  0.5618  0.8099
   60CHL1    H3 6848   1.233   1.203  10.254  0.7509 -0.7076 -1.3367
   60CHL1    O3 6849   1.171   1.086  10.413 -1.2963 -0.2665 -0.4284
   60CHL1   H3' 6850   1.128   1.001  10.426  0.7110 -0.9309  3.7465
   60CHL1    C4 6851   1.049   1.085  10.214  0.3596  0.0159 -0.2368
   60CHL1   H4A 6852   1.007   0.989  10.252 -1.6673  0.7462 -0.4798
   60CHL1   H4B 6853   0.984   1.168  10.250  1.5799  1.2887 -0.8590
   60CHL1    C5 6854   1.054   1.088  10.066  0.0277  0.6439 -0.2233
   60CHL1    C6 6855   0.987   1.183   9.997  0.2396  0.0236 -0.4637
   60CHL1    H6 6856   0.942   1.267  10.053  1.2140 -0.5248  1.2279
   60CHL1    C7 6857   1.001   1.194   9.849  0.5035 -0.2540  0.6117
   60CHL1   H7A 6858   0.904   1.222   9.802  1.6031 -0.5156 -2.0010
   60CHL1   H7B 6859   1.062   1.281   9.816 -0.2610 -0.2405 -0.8257
   60CHL1    C8 6860   1.044   1.062   9.787 -0.0065 -0.5271  0.6981
   60CHL1    H8 6861   0.967   0.983   9.795 -1.3350  0.1503 -3.1227
   60CHL1   C14 6862   1.068   1.096   9.635  0.6241  0.3740  0.5341
   60CHL1   H14 6863   1.152   1.170   9.634  0.6384  0.3895  1.5625
   60CHL1   C15 6864   0.946   1.161   9.549 -0.1188 -0.0654 -0.8829
   60CHL1  H15A 6865   0.862   1.099   9.587 -2.0934  2.5307 -0.7222
   60CHL1  H15B 6866   0.922   1.267   9.573  0.1383 -0.0879 -0.5187
   60CHL1   C16 6867   0.986   1.134   9.408 -0.5768  0.2892  0.2080
   60CHL1  H16A 6868   0.904   1.076   9.360 -0.1157  1.3938 -2.1058
   60CHL1  H16B 6869   1.004   1.222   9.342 -2.4220  0.1958 -0.4718
   60CHL1   C17 6870   1.122   1.042   9.413  0.0348  0.2360 -0.4074
   60CHL1   H17 6871   1.222   1.091   9.414  0.6497 -0.9515  1.1092
   60CHL1   C13 6872   1.115   0.981   9.549 -0.2999  1.0199  0.2813
   60CHL1   C18 6873   1.006   0.868   9.543 -0.2701  0.0805  0.0131
   60CHL1  H18A 6874   0.914   0.905   9.493 -0.0356 -1.3368 -1.5639
   60CHL1  H18B 6875   1.030   0.773   9.491  1.4763 -0.5480  1.8746
   60CHL1  H18C 6876   0.982   0.835   9.646 -0.0532 -1.1053 -0.3053
   60CHL1   C12 6877   1.247   0.924   9.609 -1.0049  0.4283 -0.7761
   60CHL1  H12A 6878   1.280   0.836   9.551 -0.3395 -0.5767  1.0362
   60CHL1  H12B 6879   1.334   0.993   9.612  0.0027 -0.7185  3.7289
   60CHL1   C11 6880   1.240   0.891   9.766  0.4584 -0.3512  0.2594
   60CHL1  H11A 6881   1.160   0.815   9.769  0.6651 -0.5655  2.2592
   60CHL1  H11B 6882   1.337   0.850   9.803  1.4943  1.8515  0.1913
   60CHL1    C9 6883   1.178   1.008   9.847  0.2639 -0.5113  0.8655
   60CHL1    H9 6884   1.253   1.089   9.836  1.1783 -1.2845  1.3489
   60CHL1   C10 6885   1.153   0.987   9.997 -0.0853 -0.8086 -0.3148
   60CHL1   C19 6886   1.088   0.851  10.022  0.3358 -0.6616 -0.0486
   60CHL1  H19A 6887   1.084   0.830  10.131  1.7829 -0.3195  0.0983
   60CHL1  H19B 6888   0.985   0.847   9.982  0.0571  0.3402  0.5169
   60CHL1  H19C 6889   1.154   0.776   9.973  1.4831  1.3875 -1.8498
   60CHL1    C1 6890   1.294   1.003  10.068  1.0058  0.2892 -0.1601
   60CHL1   H1A 6891   1.350   0.912  10.037  0.5860 -0.2150  0.5332
   60CHL1   H1B 6892   1.348   1.093  10.031 -0.2434  0.4714 -1.6352
   60CHL1    C2 6893   1.282   0.998  10.218  0.2449 -0.2248 -0.0738
   60CHL1   H2A 6894   1.387   1.018  10.249  1.0055  0.4707 -2.8262
   60CHL1   H2B 6895   1.248   0.900  10.259  1.2534 -0.9407 -0.8812
   60CHL1   C20 6896   1.130   0.951   9.286  0.0025  0.1226  0.0093
   60CHL1   H20 6897   1.033   0.897   9.282 -0.6888  1.2731  0.6856
   60CHL1   C21 6898   1.251   0.855   9.278  0.8442 -0.1828 -0.0963
   60CHL1  H21A 6899   1.214   0.756   9.312 -0.3878  0.4258  0.4120
   60CHL1  H21B 6900   1.339   0.897   9.331  0.7891 -0.0452 -0.1145
   60CHL1  H21C 6901   1.278   0.848   9.170  1.5806 -1.9776  0.1645
   60CHL1   C22 6902   1.128   1.037   9.156 -0.2124 -0.2160  0.1030
   60CHL1  H22A 6903   1.152   0.963   9.077 -0.8099 -1.4065  0.9974
   60CHL1  H22B 6904   1.025   1.073   9.134 -0.3335 -0.9266 -0.5623
   60CHL1   C23 6905   1.230   1.150   9.148 -0.3111 -0.6722  0.1538
   60CHL1  H23A 6906   1.205   1.219   9.231 -0.3942 -1.1000  0.4876
   60CHL1  H23B 6907   1.329   1.113   9.183 -0.0988 -1.8350 -1.5621
   60CHL1   C24 6908   1.243   1.207   9.002 -0.4221  0.0215  0.0028
   60CHL1  H24A 6909   1.299   1.135   8.939 -0.7028 -0.4461  0.2833
   60CHL1  H24B 6910   1.139   1.220   8.965  0.4225  0.1611 -2.5220
   60CHL1   C25 6911   1.306   1.347   8.977 -0.7437  0.6127 -0.6477
   60CHL1   H25 6912   1.251   1.412   9.048 -0.0953  0.7733 -0.2851
   60CHL1   C26 6913   1.452   1.346   9.015  0.2308  0.4158  0.4499
   60CHL1  H26A 6914   1.487   1.452   9.020  0.9765  0.2389 -0.6844
   60CHL1  H26B 6915   1.460   1.298   9.115 -1.5372  0.1525  0.4829
   60CHL1  H26C 6916   1.518   1.289   8.946  1.7117  2.5150  0.0291
   60CHL1   C27 6917   1.282   1.402   8.836  0.2323 -0.6856 -0.0535
   60CHL1  H27A 6918   1.353   1.350   8.768  1.2728 -0.2411  0.6521
   60CHL1  H27B 6919   1.172   1.409   8.820 -0.0019 -0.8346  1.3632
   60CHL1  H27C 6920   1.318   1.507   8.836  0.6784 -0.8281  0.7024
   61CHL1    C3 6921   2.436   5.548  10.305 -0.6150  0.1638  0.2896
   61CHL1    H3 6922   2.544   5.569  10.295 -0.7407  1.4257  1.2620
   61CHL1    O3 6923   2.407   5.582  10.441  0.5695  0.1136 -0.4606
   61CHL1   H3' 6924   2.389   5.676  10.440 -1.0197  0.1090  4.4253
   61CHL1    C4 6925   2.359   5.626  10.199 -0.1962 -0.2931  1.2608
   61CHL1   H4A 6926   2.257   5.599  10.234 -0.4287 -0.0579  0.7809
   61CHL1   H4B 6927   2.380   5.734  10.210 -1.3562 -0.0615  1.4047
   61CHL1    C5 6928   2.392   5.580  10.057  0.1141  0.1661 -0.0285
   61CHL1    C6 6929   2.457   5.658   9.966 -0.0303 -0.1861  0.2983
   61CHL1    H6 6930   2.484   5.763   9.988  1.2677 -0.7648  1.6003
   61CHL1    C7 6931   2.484   5.604   9.827 -0.2816 -0.9555  0.4370
   61CHL1   H7A 6932   2.464   5.684   9.752  0.4519 -0.1459  1.0761
   61CHL1   H7B 6933   2.594   5.587   9.829 -0.2923 -1.0206  1.8599
   61CHL1    C8 6934   2.421   5.474   9.792  1.4627  0.0935 -0.0662
   61CHL1    H8 6935   2.313   5.482   9.766  0.9597 -3.3789  0.5053
   61CHL1   C14 6936   2.481   5.416   9.665 -0.3204 -0.2626 -0.1939
   61CHL1   H14 6937   2.588   5.396   9.689 -0.5034  0.3873  1.2730
   61CHL1   C15 6938   2.484   5.507   9.542 -0.8550  0.0361  0.1538
   61CHL1  H15A 6939   2.384   5.554   9.534 -0.0705  1.7846  0.2171
   61CHL1  H15B 6940   2.561   5.585   9.557 -1.8714  1.4221 -1.5478
   61CHL1   C16 6941   2.521   5.420   9.424  0.1236  0.6506  0.4303
   61CHL1  H16A 6942   2.449   5.421   9.339  1.4822 -0.4915 -0.7892
   61CHL1  H16B 6943   2.624   5.437   9.386 -0.0990 -0.0378 -0.5128
   61CHL1   C17 6944   2.511   5.272   9.479  1.1217  0.4028  0.2027
   61CHL1   H17 6945   2.616   5.246   9.509  0.6378 -3.6281 -0.9342
   61CHL1   C13 6946   2.429   5.281   9.615  1.0434 -0.1318  0.1747
   61CHL1   C18 6947   2.276   5.293   9.572 -0.6602 -0.4427 -0.3192
   61CHL1  H18A 6948   2.273   5.367   9.490  0.1151 -1.3097 -1.1515
   61CHL1  H18B 6949   2.235   5.193   9.542  1.6179 -1.4345 -0.3283
   61CHL1  H18C 6950   2.206   5.321   9.654  1.3245 -2.9289  2.4829
   61CHL1   C12 6951   2.446   5.182   9.733  0.0994 -0.0013  1.0769
   61CHL1  H12A 6952   2.397   5.085   9.712  0.3546  0.1446 -0.3223
   61CHL1  H12B 6953   2.552   5.158   9.756 -0.2430  0.2800  3.1282
   61CHL1   C11 6954   2.393   5.229   9.870  0.7799  0.4865  0.0674
   61CHL1  H11A 6955   2.282   5.220   9.860  0.8295  0.4235 -0.4886
   61CHL1  H11B 6956   2.426   5.166   9.955  0.7775 -0.7348 -0.8073
   61CHL1    C9 6957   2.429   5.375   9.905 -0.2707  0.4810  0.2390
   61CHL1    H9 6958   2.535   5.367   9.935 -0.9112 -1.6162  2.2638
   61CHL1   C10 6959   2.367   5.432  10.031 -0.0835  0.1003  0.0338
   61CHL1   C19 6960   2.213   5.421  10.033  0.1733  0.1076 -0.1072
   61CHL1  H19A 6961   2.190   5.316  10.061  0.4879  0.0741  0.0271
   61CHL1  H19B 6962   2.166   5.487  10.108  0.4810  0.0382  0.1485
   61CHL1  H19C 6963   2.166   5.443   9.934 -1.5147 -1.2285  0.3503
   61CHL1    C1 6964   2.435   5.347  10.147  0.4323  0.2436  0.2650
   61CHL1   H1A 6965   2.393   5.244  10.146 -0.6971  0.6171  2.6261
   61CHL1   H1B 6966   2.545   5.348  10.132  0.6136 -2.2205  0.9625
   61CHL1    C2 6967   2.409   5.397  10.291  0.4061 -0.0206  0.2825
   61CHL1   H2A 6968   2.481   5.342  10.355 -0.4674 -0.0183  1.2925
   61CHL1   H2B 6969   2.302   5.388  10.317  0.2661  0.1074 -0.2400
   61CHL1   C20 6970   2.473   5.169   9.370 -0.1328 -1.0618 -0.0306
   61CHL1   H20 6971   2.375   5.197   9.325  1.2192  2.0430 -1.3758
   61CHL1   C21 6972   2.466   5.033   9.432  0.3566 -0.1171 -0.4655
   61CHL1  H21A 6973   2.563   4.994   9.471  0.3404  0.9671  0.7122
   61CHL1  H21B 6974   2.434   4.957   9.358 -2.1295  0.3642  0.0472
   61CHL1  H21C 6975   2.385   5.029   9.508 -0.9008  0.8445 -1.7124
   61CHL1   C22 6976   2.576   5.165   9.246 -0.2228  0.6584 -0.3275
   61CHL1  H22A 6977   2.579   5.276   9.234  2.2313  1.0018  2.2419
   61CHL1  H22B 6978   2.682   5.131   9.255 -0.1404  0.7085 -1.1021
   61CHL1   C23 6979   2.520   5.092   9.120 -0.7965  0.1761 -0.5771
   61CHL1  H23A 6980   2.509   4.986   9.151  0.7224  1.0583  3.6417
   61CHL1  H23B 6981   2.416   5.122   9.093 -0.1912  1.1893 -1.9199
   61CHL1   C24 6982   2.616   5.093   8.997  0.7622  0.3778  0.4748
   61CHL1  H24A 6983   2.635   5.201   8.976 -0.1115  0.3308 -0.6554
   61CHL1  H24B 6984   2.713   5.048   9.026  1.3069  0.3645 -1.2624
   61CHL1   C25 6985   2.575   5.020   8.871 -0.6061 -0.2263  0.1997
   61CHL1   H25 6986   2.475   5.064   8.851  0.1326  1.0093 -1.0765
   61CHL1   C26 6987   2.662   5.065   8.751 -0.1294  0.6989 -0.9088
   61CHL1  H26A 6988   2.764   5.024   8.763 -1.4349 -2.4344  0.6301
   61CHL1  H26B 6989   2.611   5.012   8.667  0.5618 -0.4381 -0.6270
   61CHL1  H26C 6990   2.665   5.175   8.738  0.9147  0.6412 -1.2131
   61CHL1   C27 6991   2.578   4.865   8.885 -0.1397  0.5812  0.1254
   61CHL1  H27A 6992   2.569   4.811   8.788 -1.4210 -1.5541  1.3502
   61CHL1  H27B 6993   2.672   4.839   8.938  0.2557  1.8607  0.0611
   61CHL1  H27C 6994   2.501   4.837   8.961  0.9758 -2.0693  0.4031
   62CHL1    C3 6995   4.813   0.383   9.886 -0.1788  0.0179  0.7135
   62CHL1    H3 6996   4.917   0.356   9.855  0.2979  1.6550  0.8174
   62CHL1    O3 6997   4.800   0.392  10.024 -0.2506  0.7169  0.0484
   62CHL1   H3' 6998   4.710   0.421  10.041 -1.5186 -2.9135  0.2929
   62CHL1    C4 6999   4.780   0.514   9.817  0.0797 -0.5937  0.3914
   62CHL1   H4A 7000   4.676   0.540   9.846  0.6502  1.8272  0.4315
   62CHL1   H4B 7001   4.840   0.596   9.863  2.5001 -1.7200 -0.5590
   62CHL1    C5 7002   4.782   0.503   9.667 -0.6089  0.6142 -0.2239
   62CHL1    C6 7003   4.868   0.574   9.603  0.7881  0.4234  1.0871
   62CHL1    H6 7004   4.930   0.650   9.654  0.8678  1.7792 -0.8913
   62CHL1    C7 7005   4.885   0.571   9.453  0.2666  0.2362  0.3090
   62CHL1   H7A 7006   4.894   0.676   9.418 -0.2426  0.1978  0.0569
   62CHL1   H7B 7007   4.980   0.520   9.428  0.5038 -0.2646  2.1104
   62CHL1    C8 7008   4.759   0.512   9.382  0.0114  0.0943 -0.2714
   62CHL1    H8 7009   4.675   0.583   9.395 -0.4518 -0.8254  2.2692
   62CHL1   C14 7010   4.772   0.482   9.235 -0.2057  0.2414 -0.0293
   62CHL1   H14 7011   4.851   0.405   9.231  0.3850  0.7655  1.0243
   62CHL1   C15 7012   4.840   0.592   9.152 -0.3142  0.0552 -0.4490
   62CHL1  H15A 7013   4.814   0.695   9.182 -2.0183 -0.4076 -0.2628
   62CHL1  H15B 7014   4.951   0.587   9.155 -0.3035  0.4049 -0.2954
   62CHL1   C16 7015   4.808   0.561   9.010  0.6860  0.1081  0.5919
   62CHL1  H16A 7016   4.748   0.638   8.957 -0.2571 -1.0410 -0.0744
   62CHL1  H16B 7017   4.899   0.542   8.950  0.0840 -1.4306  0.1191
   62CHL1   C17 7018   4.716   0.431   9.016 -0.5534  0.1245  0.2124
   62CHL1   H17 7019   4.782   0.342   9.008 -1.0281 -0.1300 -1.3445
   62CHL1   C13 7020   4.650   0.437   9.157 -0.8534 -0.8111  0.0828
   62CHL1   C18 7021   4.531   0.534   9.155  0.4472 -0.3675 -0.0750
   62CHL1  H18A 7022   4.450   0.471   9.113  0.0595  0.6496 -0.9085
   62CHL1  H18B 7023   4.508   0.561   9.260  1.4204 -2.8721  0.8618
   62CHL1  H18C 7024   4.550   0.630   9.103 -0.0381 -0.0214  0.3725
   62CHL1   C12 7025   4.622   0.301   9.211  0.6871 -0.1083 -0.1972
   62CHL1  H12A 7026   4.532   0.257   9.164  0.1046  0.7287  0.1193
   62CHL1  H12B 7027   4.700   0.228   9.179 -1.6945 -3.4448  1.1622
   62CHL1   C11 7028   4.609   0.300   9.366 -0.4010 -0.3323 -0.1733
   62CHL1  H11A 7029   4.512   0.351   9.384 -1.3001 -1.2680 -2.1199
   62CHL1  H11B 7030   4.600   0.194   9.400  2.5529 -1.1706 -1.6320
   62CHL1    C9 7031   4.715   0.380   9.446 -0.0057 -0.2063 -0.4701
   62CHL1    H9 7032   4.800   0.310   9.446  1.2568  1.2642 -0.2661
   62CHL1   C10 7033   4.690   0.395   9.603  0.1152  0.2593 -0.7228
   62CHL1   C19 7034   4.548   0.450   9.618  0.3499  0.1360 -0.5499
   62CHL1  H19A 7035   4.529   0.545   9.564  0.3364 -1.2351 -3.1158
   62CHL1  H19B 7036   4.468   0.383   9.580  0.8176 -0.4101 -0.5910
   62CHL1  H19C 7037   4.525   0.464   9.726  2.4514 -3.0165  0.4407
   62CHL1    C1 7038   4.704   0.258   9.686 -0.2362 -0.6618  0.0908
   62CHL1   H1A 7039   4.622   0.187   9.664 -1.9078  1.4602 -0.9740
   62CHL1   H1B 7040   4.801   0.217   9.652 -0.3400 -2.0152  1.3787
   62CHL1    C2 7041   4.712   0.274   9.837 -0.3665  0.1981  0.4741
   62CHL1   H2A 7042   4.729   0.176   9.886 -3.2079 -1.0135 -0.7368
   62CHL1   H2B 7043   4.612   0.302   9.876 -1.5237  0.7023 -2.5257
   62CHL1   C20 7044   4.625   0.417   8.891  0.0022  0.3627 -0.2962
   62CHL1   H20 7045   4.556   0.503   8.890  2.1358  2.1964 -2.4027
   62CHL1   C21 7046   4.548   0.284   8.904  0.0645  0.6548  0.7896
   62CHL1  H21A 7047   4.503   0.252   8.808 -2.4256 -1.6139  2.5647
   62CHL1  H21B 7048   4.458   0.304   8.967 -1.6080  1.5297 -1.7164
   62CHL1  H21C 7049   4.603   0.200   8.952  1.1915  0.9609  0.0608
   62CHL1   C22 7050   4.690   0.422   8.755  0.6168  0.0050 -0.0334
   62CHL1  H22A 7051   4.790   0.472   8.761  0.6679  0.3070 -2.3954
   62CHL1  H22B 7052   4.698   0.321   8.709  1.0006 -0.2970  0.6868
   62CHL1   C23 7053   4.611   0.502   8.658  0.4935 -0.3960 -0.0578
   62CHL1  H23A 7054   4.581   0.598   8.706  0.3565 -1.2459  1.6401
   62CHL1  H23B 7055   4.678   0.537   8.576 -1.2425 -0.9940 -1.8135
   62CHL1   C24 7056   4.495   0.428   8.585 -0.2195 -0.3379 -0.2482
   62CHL1  H24A 7057   4.548   0.341   8.541 -2.4434 -0.0924 -3.8136
   62CHL1  H24B 7058   4.421   0.381   8.653 -1.1558  0.2170 -0.8509
   62CHL1   C25 7059   4.422   0.522   8.481 -0.6823  0.0479 -0.6555
   62CHL1   H25 7060   4.502   0.576   8.426  1.3482 -0.0282  2.0701
   62CHL1   C26 7061   4.348   0.432   8.379  0.5402  0.3062  0.5238
   62CHL1  H26A 7062   4.280   0.488   8.312 -0.6977 -3.1842 -1.4061
   62CHL1  H26B 7063   4.420   0.385   8.308  0.0630  0.3266  0.0208
   62CHL1  H26C 7064   4.293   0.350   8.429  1.2977 -0.3925  0.2284
   62CHL1   C27 7065   4.325   0.620   8.556  0.7015  0.4730  0.5315
   62CHL1  H27A 7066   4.253   0.558   8.614  0.2619  0.4441 -0.0347
   62CHL1  H27B 7067   4.380   0.698   8.612  2.1117  0.3396 -0.6028
   62CHL1  H27C 7068   4.261   0.674   8.483  1.6546 -1.5420 -1.9265
   63CHL1    C3 7069   6.421   1.139  10.382  0.1166 -1.0105  0.2308
   63CHL1    H3 7070   6.460   1.222  10.320  0.0308 -0.8284  0.4206
   63CHL1    O3 7071   6.475   1.136  10.509  0.4947 -0.3567 -0.3321
   63CHL1   H3' 7072   6.435   1.213  10.550  0.4396 -1.3911  1.6756
   63CHL1    C4 7073   6.270   1.152  10.394 -0.0798  0.0615  0.8972
   63CHL1   H4A 7074   6.230   1.080  10.469  1.2371  0.3748  1.9225
   63CHL1   H4B 7075   6.248   1.253  10.432  1.2100  1.5069 -1.9022
   63CHL1    C5 7076   6.191   1.135  10.265 -0.5791  0.2910 -0.1734
   63CHL1    C6 7077   6.113   1.234  10.225  0.6268 -0.6733  0.3002
   63CHL1    H6 7078   6.097   1.321  10.291  0.9356 -1.3473  1.2860
   63CHL1    C7 7079   6.051   1.236  10.090 -0.7901 -0.6078  0.2822
   63CHL1   H7A 7080   5.944   1.264  10.095 -0.7496  0.1067 -2.0491
   63CHL1   H7B 7081   6.104   1.306  10.022  0.6089 -1.0281  0.9049
   63CHL1    C8 7082   6.054   1.100  10.014  0.1314 -1.5600  0.2907
   63CHL1    H8 7083   5.974   1.031  10.048 -1.4347  0.4147  0.8171
   63CHL1   C14 7084   6.026   1.130   9.864 -0.2348  0.2986  1.1215
   63CHL1   H14 7085   6.116   1.185   9.828 -1.6927  2.4928  0.5922
   63CHL1   C15 7086   5.912   1.216   9.812  0.0197  0.1273  0.1860
   63CHL1  H15A 7087   5.816   1.216   9.868 -2.4234  3.7288 -3.4401
   63CHL1  H15B 7088   5.936   1.324   9.823  0.6750 -0.0887  1.0454
   63CHL1   C16 7089   5.876   1.166   9.668 -0.1677 -0.1860 -0.0116
   63CHL1  H16A 7090   5.785   1.104   9.657 -0.2624 -0.0995  0.2837
   63CHL1  H16B 7091   5.872   1.253   9.599 -1.5632 -1.7779 -2.0280
   63CHL1   C17 7092   5.992   1.071   9.630 -0.9094 -0.6816  0.2943
   63CHL1   H17 7093   6.085   1.127   9.606 -2.0425  2.4698  2.5001
   63CHL1   C13 7094   6.029   1.007   9.768 -0.3106 -0.0532 -0.1141
   63CHL1   C18 7095   5.913   0.925   9.813 -0.3397 -0.1851 -0.2027
   63CHL1  H18A 7096   5.825   0.992   9.820  0.1624  0.4345  0.2462
   63CHL1  H18B 7097   5.893   0.846   9.737  0.3794  0.6720 -1.3123
   63CHL1  H18C 7098   5.922   0.868   9.908 -1.9100 -0.9113 -0.4668
   63CHL1   C12 7099   6.158   0.931   9.784 -0.4198  0.1322 -0.0102
   63CHL1  H12A 7100   6.156   0.833   9.732  0.1609  0.3531 -0.4594
   63CHL1  H12B 7101   6.241   0.989   9.738 -0.4833  0.2178 -0.0173
   63CHL1   C11 7102   6.193   0.913   9.931 -0.8595  0.7184  0.0076
   63CHL1  H11A 7103   6.120   0.839   9.970 -0.4491  0.7812  0.9096
   63CHL1  H11B 7104   6.292   0.863   9.939 -2.0219 -1.8673 -0.6781
   63CHL1    C9 7105   6.191   1.043  10.023  0.0424 -0.3256 -0.0114
   63CHL1    H9 7106   6.268   1.109   9.976  2.2139 -2.2624  0.6626
   63CHL1   C10 7107   6.241   1.024  10.170  1.1434 -0.6618 -0.8674
   63CHL1   C19 7108   6.168   0.899  10.231  0.3683  0.3611  0.1291
   63CHL1  H19A 7109   6.186   0.893  10.340 -0.3609 -0.1917  0.2273
   63CHL1  H19B 7110   6.058   0.903  10.213  0.5225  2.3592 -0.6319
   63CHL1  H19C 7111   6.211   0.806  10.189  1.6276  0.7665  0.4919
   63CHL1    C1 7112   6.398   1.010  10.178  0.3685 -0.2898 -0.0168
   63CHL1   H1A 7113   6.436   0.913  10.139 -0.5258 -0.7997  0.3529
   63CHL1   H1B 7114   6.444   1.095  10.122  1.8382 -0.9294  0.1645
   63CHL1    C2 7115   6.449   1.008  10.315 -0.2518  0.5416 -1.0534
   63CHL1   H2A 7116   6.554   0.974  10.323 -0.7214 -0.5144  1.2955
   63CHL1   H2B 7117   6.410   0.926  10.379  2.1898  0.4817  0.5085
   63CHL1   C20 7118   5.966   0.977   9.507  0.1649  0.7553 -0.0095
   63CHL1   H20 7119   5.898   0.896   9.541  0.7634 -0.0518 -0.7154
   63CHL1   C21 7120   6.092   0.905   9.453 -0.8363 -0.2919 -0.0396
   63CHL1  H21A 7121   6.076   0.848   9.359 -0.5002 -0.0314 -0.2590
   63CHL1  H21B 7122   6.131   0.841   9.535 -1.8880  0.7353  1.3029
   63CHL1  H21C 7123   6.173   0.975   9.423 -0.8350 -0.4910 -0.5109
   63CHL1   C22 7124   5.890   1.046   9.400 -0.7980 -0.0103  0.4488
   63CHL1  H22A 7125   5.871   0.980   9.312  2.1140  0.1870 -0.4304
   63CHL1  H22B 7126   5.798   1.097   9.433  0.5377  2.9254 -0.0571
   63CHL1   C23 7127   5.976   1.161   9.337 -0.6766  0.6753 -0.1087
   63CHL1  H23A 7128   6.014   1.224   9.421 -2.6333  1.6077  0.1212
   63CHL1  H23B 7129   6.066   1.122   9.284  0.9440 -0.4739  3.1802
   63CHL1   C24 7130   5.898   1.256   9.242  0.0888  0.6864 -0.7640
   63CHL1  H24A 7131   5.862   1.192   9.159  0.6524 -3.4691  1.8763
   63CHL1  H24B 7132   5.814   1.300   9.301  0.4229 -0.3025  0.4786
   63CHL1   C25 7133   5.985   1.361   9.172 -0.4907  0.1265 -0.7779
   63CHL1   H25 7134   6.071   1.307   9.127  0.2520  0.1745  0.5304
   63CHL1   C26 7135   5.909   1.434   9.061  0.1138 -0.0107 -0.4468
   63CHL1  H26A 7136   5.972   1.513   9.014  1.6927 -0.4199  0.8746
   63CHL1  H26B 7137   5.893   1.354   8.986  0.4230 -0.4105 -0.0900
   63CHL1  H26C 7138   5.808   1.468   9.092  0.3723 -0.1724  0.5964
   63CHL1   C27 7139   6.043   1.461   9.275 -0.3603  0.3313  0.1364
   63CHL1  H27A 7140   6.091   1.542   9.215  2.0092 -0.2833  1.0768
   63CHL1  H27B 7141   5.965   1.502   9.342  0.3260 -1.3554  2.0883
   63CHL1  H27C 7142   6.121   1.409   9.335 -1.9774 -4.6019 -1.5793
   64CHL1    C3 7143   5.970   6.601  10.126  0.1453 -0.0810  0.0761
   64CHL1    H3 7144   5.876   6.541  10.131  0.3134 -0.2479  1.9015
   64CHL1    O3 7145   6.016   6.595  10.257 -0.0366 -0.0760  0.3177
   64CHL1   H3' 7146   5.939   6.613  10.312  1.6234 -0.0312  2.7943
   64CHL1    C4 7147   6.080   6.529  10.035 -0.3303  0.8780  0.0860
   64CHL1   H4A 7148   6.183   6.566  10.054  1.2035 -1.9977 -1.8688
   64CHL1   H4B 7149   6.088   6.424  10.069 -1.5507  0.0625 -1.9429
   64CHL1    C5 7150   6.041   6.534   9.890  0.1738  0.0402  0.3840
   64CHL1    C6 7151   6.031   6.421   9.818  0.0149 -0.3666  0.1246
   64CHL1    H6 7152   6.028   6.321   9.862 -1.0818 -0.3104  0.2186
   64CHL1    C7 7153   5.986   6.422   9.673 -0.1688 -0.1289  0.0203
   64CHL1   H7A 7154   6.032   6.335   9.622  0.2213  0.1530 -0.1079
   64CHL1   H7B 7155   5.876   6.404   9.674 -0.3112  0.6187 -0.6377
   64CHL1    C8 7156   6.007   6.560   9.597 -0.2634  0.7469  0.5729
   64CHL1    H8 7157   6.117   6.568   9.583 -0.4196  1.5526 -0.2626
   64CHL1   C14 7158   5.934   6.562   9.463  0.5511  0.0959 -0.2827
   64CHL1   H14 7159   5.827   6.564   9.492  0.4816 -1.0539 -0.3903
   64CHL1   C15 7160   5.956   6.442   9.365  0.1903 -0.3957  0.5464
   64CHL1  H15A 7161   6.057   6.402   9.390  0.4950  1.0630  1.8173
   64CHL1  H15B 7162   5.873   6.375   9.397 -1.8050  1.6253 -0.1796
   64CHL1   C16 7163   5.933   6.500   9.221 -0.0972 -0.7324 -1.0407
   64CHL1  H16A 7164   6.024   6.496   9.158  0.3715  2.4967 -0.7333
   64CHL1  H16B 7165   5.853   6.446   9.165 -0.3297 -1.2329 -0.2393
   64CHL1   C17 7166   5.895   6.652   9.243 -0.2298 -0.2723 -0.8188
   64CHL1   H17 7167   5.786   6.640   9.264 -0.1383 -0.2292 -0.3098
   64CHL1   C13 7168   5.962   6.693   9.383  0.2766  0.5806  0.0432
   64CHL1   C18 7169   6.116   6.712   9.360 -0.5276  0.0845  0.3007
   64CHL1  H18A 7170   6.154   6.625   9.302  0.7888  1.3720 -0.8496
   64CHL1  H18B 7171   6.135   6.803   9.300  0.5918 -0.8221 -0.7801
   64CHL1  H18C 7172   6.188   6.717   9.444  0.2465 -0.7755 -0.2850
   64CHL1   C12 7173   5.909   6.807   9.465  0.0264  0.2116  0.7517
   64CHL1  H12A 7174   5.929   6.906   9.419 -0.4418 -0.7462 -1.7001
   64CHL1  H12B 7175   5.799   6.792   9.465 -0.0120  0.2943 -1.1089
   64CHL1   C11 7176   5.973   6.817   9.607  0.5849  0.5932  0.6824
   64CHL1  H11A 7177   6.081   6.828   9.586  0.5309 -2.5815 -2.0570
   64CHL1  H11B 7178   5.926   6.906   9.654 -1.1531  0.7669 -1.2497
   64CHL1    C9 7179   5.965   6.683   9.690  0.5208 -0.7575  0.1634
   64CHL1    H9 7180   5.856   6.660   9.689  0.7143 -1.7299  0.6531
   64CHL1   C10 7181   6.019   6.679   9.835  0.0155 -0.2668 -0.0417
   64CHL1   C19 7182   6.157   6.748   9.821 -0.6648 -0.3135 -0.4183
   64CHL1  H19A 7183   6.155   6.844   9.766  1.3016  0.5306  0.8678
   64CHL1  H19B 7184   6.211   6.758   9.917 -0.3951 -2.9364 -0.2097
   64CHL1  H19C 7185   6.221   6.674   9.767  0.7195 -0.2558  1.0705
   64CHL1    C1 7186   5.921   6.756   9.930  0.0687 -0.5101 -0.1020
   64CHL1   H1A 7187   5.905   6.859   9.892  0.1207 -0.2526  0.5669
   64CHL1   H1B 7188   5.825   6.701   9.919 -1.2612  1.7712 -0.5988
   64CHL1    C2 7189   5.957   6.747  10.080 -0.5938 -0.0432  0.1973
   64CHL1   H2A 7190   5.884   6.804  10.142 -2.6376 -3.0485  0.7310
   64CHL1   H2B 7191   6.051   6.799  10.109  0.7662 -0.1028 -3.5621
   64CHL1   C20 7192   5.910   6.749   9.122  0.5321 -0.2016  0.2011
   64CHL1   H20 7193   6.016   6.783   9.124  0.0171  1.4934 -0.1259
   64CHL1   C21 7194   5.830   6.882   9.128 -0.1144 -0.8859  0.4285
   64CHL1  H21A 7195   5.839   6.941   9.035  1.3267  1.9475  2.2067
   64CHL1  H21B 7196   5.864   6.942   9.215  2.4075 -0.8717 -0.4770
   64CHL1  H21C 7197   5.726   6.854   9.153 -0.0846 -3.1225 -1.5924
   64CHL1   C22 7198   5.895   6.688   8.978  0.0104  0.3611 -0.2871
   64CHL1  H22A 7199   5.939   6.769   8.916 -1.6878  3.9714  2.8081
   64CHL1  H22B 7200   5.954   6.595   8.979  0.1706  0.4622  0.5054
   64CHL1   C23 7201   5.754   6.658   8.941 -0.2543  0.6385 -0.4987
   64CHL1  H23A 7202   5.711   6.585   9.013  2.9326 -0.1578  0.7654
   64CHL1  H23B 7203   5.680   6.740   8.943 -1.2411 -0.1978 -1.4098
   64CHL1   C24 7204   5.741   6.599   8.800 -0.0813  0.5794  0.0852
   64CHL1  H24A 7205   5.812   6.639   8.724 -0.6806  0.2472 -0.6631
   64CHL1  H24B 7206   5.771   6.493   8.812 -0.5827  0.5120  0.7952
   64CHL1   C25 7207   5.608   6.601   8.724 -0.0703  0.0476  0.3718
   64CHL1   H25 7208   5.524   6.595   8.797 -0.4891  0.2500 -0.0899
   64CHL1   C26 7209   5.604   6.735   8.644 -0.0068  0.0001 -0.6292
   64CHL1  H26A 7210   5.691   6.744   8.575  2.7826  1.1713  2.7664
   64CHL1  H26B 7211   5.511   6.746   8.585 -0.0515 -1.6580 -0.9135
   64CHL1  H26C 7212   5.603   6.828   8.704 -0.5343  0.0748 -0.7452
   64CHL1   C27 7213   5.591   6.496   8.624 -0.3434  0.4626 -0.1520
   64CHL1  H27A 7214   5.676   6.489   8.554 -1.5901 -1.7367 -1.5391
   64CHL1  H27B 7215   5.582   6.400   8.680  0.3234  0.5452  0.1086
   64CHL1  H27C 7216   5.495   6.507   8.570 -0.6653  0.1109  0.3336
   65CHL1    C3 7217   4.196   3.631  10.204 -0.3221 -0.2373  0.2523
   65CHL1    H3 7218   4.228   3.737  10.201  0.1898 -0.3729  0.8286
   65CHL1    O3 7219   4.180   3.603  10.340 -0.4399  0.3781  0.2080
   65CHL1   H3' 7220   4.269   3.586  10.375 -0.1498  0.2116 -0.6027
   65CHL1    C4 7221   4.063   3.603  10.131 -0.3823  1.0538 -0.3578
   65CHL1   H4A 7222   4.028   3.499  10.150  2.6169  0.0857  0.4036
   65CHL1   H4B 7223   3.995   3.677  10.178  1.5777  1.4659  2.0023
   65CHL1    C5 7224   4.081   3.632   9.979  0.3582 -0.0972 -0.1032
   65CHL1    C6 7225   4.000   3.721   9.914  0.6026 -0.0718  0.4142
   65CHL1    H6 7226   3.917   3.766   9.970  0.1727  0.3167 -0.5165
   65CHL1    C7 7227   4.003   3.736   9.764  0.5554 -0.7997  0.4005
   65CHL1   H7A 7228   3.901   3.733   9.720  1.0240  0.7342 -0.8496
   65CHL1   H7B 7229   4.042   3.839   9.750  1.6043 -1.0553  1.2946
   65CHL1    C8 7230   4.093   3.635   9.690 -0.1443 -0.4061  0.4286
   65CHL1    H8 7231   4.041   3.538   9.678  2.7119 -1.7500 -2.1823
   65CHL1   C14 7232   4.122   3.691   9.555 -0.5451 -0.0493 -0.0331
   65CHL1   H14 7233   4.184   3.782   9.573 -0.6364  0.4514 -2.0030
   65CHL1   C15 7234   4.007   3.739   9.462 -0.2504  0.6538  1.2101
   65CHL1  H15A 7235   3.920   3.670   9.454 -1.9978  2.6965  1.4312
   65CHL1  H15B 7236   3.947   3.825   9.500  2.1228  2.2155  1.6205
   65CHL1   C16 7237   4.075   3.769   9.333 -0.7568 -0.5514  0.3709
   65CHL1  H16A 7238   4.010   3.734   9.249 -0.8143  0.1144  0.1324
   65CHL1  H16B 7239   4.096   3.877   9.317  0.2667 -0.1863  3.6214
   65CHL1   C17 7240   4.212   3.688   9.338  0.4449  0.3677  0.1992
   65CHL1   H17 7241   4.291   3.764   9.358 -0.0951  1.5919 -1.9551
   65CHL1   C13 7242   4.209   3.600   9.465  0.3824 -0.0435 -0.3435
   65CHL1   C18 7243   4.124   3.471   9.442 -0.6994  0.4970  0.6498
   65CHL1  H18A 7244   4.020   3.488   9.404 -0.6853 -0.3863  0.1738
   65CHL1  H18B 7245   4.174   3.414   9.361 -2.2620 -0.5586  0.3653
   65CHL1  H18C 7246   4.115   3.416   9.538  2.1805  0.0142  0.7148
   65CHL1   C12 7247   4.346   3.578   9.534 -0.5110  0.2361  0.1449
   65CHL1  H12A 7248   4.405   3.499   9.483  1.5148 -0.3630  3.1610
   65CHL1  H12B 7249   4.401   3.675   9.526 -2.5217  1.4690  0.5279
   65CHL1   C11 7250   4.326   3.529   9.682  0.2098 -0.0254 -0.0115
   65CHL1  H11A 7251   4.301   3.423   9.659  4.2594 -0.8260 -1.7260
   65CHL1  H11B 7252   4.424   3.521   9.734  0.3636  1.2460 -0.0808
   65CHL1    C9 7253   4.227   3.610   9.765 -0.3204 -0.8102  0.1039
   65CHL1    H9 7254   4.279   3.708   9.770 -1.4602 -0.0543 -1.8370
   65CHL1   C10 7255   4.193   3.561   9.907 -0.4503  0.8172  0.1491
   65CHL1   C19 7256   4.158   3.408   9.896  0.2279 -0.4208 -0.7326
   65CHL1  H19A 7257   4.082   3.392   9.817 -1.4052  1.0851  0.4590
   65CHL1  H19B 7258   4.251   3.351   9.875 -0.2288 -0.2492 -3.5696
   65CHL1  H19C 7259   4.112   3.364   9.987 -0.6989 -1.1371 -1.5217
   65CHL1    C1 7260   4.320   3.582   9.994 -0.1617  0.2784 -0.0934
   65CHL1   H1A 7261   4.410   3.532   9.951  0.8170  1.3063  0.6868
   65CHL1   H1B 7262   4.347   3.689   9.987  1.1539  0.0638  1.3052
   65CHL1    C2 7263   4.307   3.550  10.141 -0.0202 -0.4144  0.5002
   65CHL1   H2A 7264   4.400   3.590  10.186  0.9826  1.6332 -2.9646
   65CHL1   H2B 7265   4.303   3.442  10.164 -0.1107 -0.4669  0.2506
   65CHL1   C20 7266   4.246   3.629   9.197 -1.0754  0.0310  0.0171
   65CHL1   H20 7267   4.170   3.548   9.188 -1.4211  0.2604  0.8009
   65CHL1   C21 7268   4.390   3.572   9.199  0.1513 -0.0950  0.2497
   65CHL1  H21A 7269   4.466   3.652   9.199 -0.2421  0.3350  2.3628
   65CHL1  H21B 7270   4.383   3.508   9.108 -1.7374  1.0341 -0.4734
   65CHL1  H21C 7271   4.410   3.495   9.276  0.2009  0.4278  0.7636
   65CHL1   C22 7272   4.232   3.726   9.083  0.5279  0.0728 -0.2164
   65CHL1  H22A 7273   4.127   3.763   9.075  0.6834  0.2077 -2.0564
   65CHL1  H22B 7274   4.287   3.814   9.120  0.9405 -1.9053  4.6656
   65CHL1   C23 7275   4.260   3.684   8.938 -0.2705 -0.5461 -0.1884
   65CHL1  H23A 7276   4.368   3.671   8.915 -0.2381  1.0619 -1.0961
   65CHL1  H23B 7277   4.205   3.589   8.919  0.3125 -1.1774  1.1341
   65CHL1   C24 7278   4.203   3.788   8.839 -0.1622  0.2358  0.1503
   65CHL1  H24A 7279   4.092   3.791   8.845 -0.2885  2.3210 -1.7212
   65CHL1  H24B 7280   4.238   3.892   8.857 -1.6176  0.7938 -0.1526
   65CHL1   C25 7281   4.243   3.768   8.683 -0.1362 -0.3733 -1.0937
   65CHL1   H25 7282   4.180   3.838   8.623 -1.4503 -0.8615 -0.3219
   65CHL1   C26 7283   4.389   3.824   8.674 -0.0425  0.4892  0.1333
   65CHL1  H26A 7284   4.460   3.756   8.725 -0.0362 -0.2672 -0.8412
   65CHL1  H26B 7285   4.414   3.824   8.565 -0.3084  1.3459  0.0615
   65CHL1  H26C 7286   4.396   3.931   8.704  1.3492  0.5004 -0.1468
   65CHL1   C27 7287   4.225   3.626   8.623 -0.4732  0.4778  0.3743
   65CHL1  H27A 7288   4.221   3.628   8.512 -2.4889 -1.9335  0.3169
   65CHL1  H27B 7289   4.318   3.571   8.648 -1.1573 -1.3797 -1.0133
   65CHL1  H27C 7290   4.135   3.574   8.662  0.8083 -1.0435  1.4472
   66CHL1    C3 7291   0.947   3.509  10.503 -0.8829  0.4057  1.1395
   66CHL1    H3 7292   0.862   3.580  10.491 -1.2031  0.2879  2.5004
   66CHL1    O3 7293   0.998   3.515  10.637  0.4054 -0.1489 -0.2004
   66CHL1   H3' 7294   1.080   3.465  10.639 -0.4922 -1.6834 -0.1970
   66CHL1    C4 7295   0.888   3.374  10.456 -0.2164 -0.0085 -0.3035
   66CHL1   H4A 7296   0.959   3.289  10.462  0.0144  0.0903 -1.4501
   66CHL1   H4B 7297   0.813   3.342  10.532 -1.8501 -0.4076 -2.0026
   66CHL1    C5 7298   0.841   3.385  10.318 -0.1072  0.5691 -0.1194
   66CHL1    C6 7299   0.713   3.350  10.289 -0.5238 -0.0905  0.4429
   66CHL1    H6 7300   0.649   3.325  10.375  1.2535  1.1854  2.2445
   66CHL1    C7 7301   0.660   3.330  10.143  0.0397  0.5865  0.4201
   66CHL1   H7A 7302   0.603   3.235  10.145 -0.6438  0.9404 -0.9374
   66CHL1   H7B 7303   0.602   3.421  10.115  1.6866  0.8094 -2.6908
   66CHL1    C8 7304   0.775   3.333  10.036 -0.0131  0.0997  0.6632
   66CHL1    H8 7305   0.811   3.228  10.042  1.5158  0.5792  0.3110
   66CHL1   C14 7306   0.714   3.369   9.899 -0.3949  0.5545  0.1843
   66CHL1   H14 7307   0.698   3.479   9.901  1.6770  0.8836  0.4924
   66CHL1   C15 7308   0.585   3.301   9.854  0.1026  0.0933  0.0844
   66CHL1  H15A 7309   0.584   3.196   9.888  1.0503  0.7213  2.2694
   66CHL1  H15B 7310   0.499   3.360   9.892  0.2955  1.6530 -1.7151
   66CHL1   C16 7311   0.588   3.322   9.699  0.0014  0.1298 -0.3789
   66CHL1  H16A 7312   0.560   3.226   9.652 -0.1894  0.6586 -1.3683
   66CHL1  H16B 7313   0.512   3.400   9.675  0.5468  1.0578  0.8016
   66CHL1   C17 7314   0.732   3.366   9.659 -0.2503  0.4809  0.6312
   66CHL1   H17 7315   0.723   3.476   9.644  1.4680  0.5940  0.2869
   66CHL1   C13 7316   0.816   3.348   9.789  0.6262  0.5497  0.1100
   66CHL1   C18 7317   0.868   3.199   9.788 -0.4837  0.1640  0.1003
   66CHL1  H18A 7318   0.785   3.125   9.780 -0.4229  0.0690  0.3490
   66CHL1  H18B 7319   0.945   3.181   9.710 -3.4746  0.1268 -3.0860
   66CHL1  H18C 7320   0.922   3.188   9.884 -0.8267  2.9731  0.6959
   66CHL1   C12 7321   0.926   3.447   9.808  1.3706  0.7357 -0.3473
   66CHL1  H12A 7322   1.014   3.435   9.741  0.8562  1.0553 -1.0986
   66CHL1  H12B 7323   0.872   3.538   9.776 -1.2602 -0.3710  0.6349
   66CHL1   C11 7324   0.986   3.446   9.946 -0.4316  0.2971  0.3328
   66CHL1  H11A 7325   1.050   3.356   9.952 -0.2246  0.2093 -2.1754
   66CHL1  H11B 7326   1.052   3.535   9.955  0.6314 -0.4340 -0.0335
   66CHL1    C9 7327   0.891   3.433  10.070  0.1292  0.8476  0.2212
   66CHL1    H9 7328   0.829   3.526  10.072 -3.9263 -1.6143 -0.1106
   66CHL1   C10 7329   0.950   3.419  10.217 -0.1535 -0.3461 -0.2156
   66CHL1   C19 7330   1.047   3.305  10.220  0.0727 -0.3801  0.0342
   66CHL1  H19A 7331   0.992   3.208  10.210  0.6730 -0.5239 -2.6565
   66CHL1  H19B 7332   1.126   3.324  10.145  0.2564  0.9643  0.5376
   66CHL1  H19C 7333   1.098   3.294  10.317  0.8901  1.0548 -0.2175
   66CHL1    C1 7334   1.017   3.558  10.254  0.5057  0.6842  0.4657
   66CHL1   H1A 7335   1.104   3.567  10.186  0.2952 -2.6878 -0.4797
   66CHL1   H1B 7336   0.941   3.637  10.237  1.4432  1.3319 -0.8955
   66CHL1    C2 7337   1.057   3.551  10.402  0.4243 -0.1096 -0.8953
   66CHL1   H2A 7338   1.067   3.660  10.418  0.2002 -0.0751 -0.9901
   66CHL1   H2B 7339   1.153   3.496  10.419 -0.3731 -0.7731  1.9299
   66CHL1   C20 7340   0.778   3.304   9.520 -0.0371 -1.0994 -0.2064
   66CHL1   H20 7341   0.813   3.199   9.534  2.3119 -0.6437 -2.1074
   66CHL1   C21 7342   0.906   3.377   9.471  0.0939 -0.4362 -0.0606
   66CHL1  H21A 7343   0.928   3.370   9.362 -2.2958 -0.5243 -0.5862
   66CHL1  H21B 7344   0.998   3.343   9.525 -0.3797  0.9031  1.6709
   66CHL1  H21C 7345   0.907   3.484   9.497  4.3937 -0.6763  1.6007
   66CHL1   C22 7346   0.662   3.303   9.415  0.2466 -0.2439 -0.8449
   66CHL1  H22A 7347   0.594   3.223   9.451 -0.4998  0.7081 -0.0728
   66CHL1  H22B 7348   0.610   3.401   9.419  1.2947  0.3200 -0.6842
   66CHL1   C23 7349   0.691   3.281   9.265  0.3442  0.5396 -0.1506
   66CHL1  H23A 7350   0.742   3.370   9.222  1.6955 -1.3331 -2.7172
   66CHL1  H23B 7351   0.761   3.194   9.265 -0.5555 -0.1969 -0.2640
   66CHL1   C24 7352   0.568   3.239   9.179 -0.3185 -0.6654  0.2517
   66CHL1  H24A 7353   0.504   3.156   9.214 -1.1972 -0.4186 -0.7382
   66CHL1  H24B 7354   0.493   3.321   9.180 -0.8866 -1.1526 -0.6792
   66CHL1   C25 7355   0.602   3.231   9.022 -0.5114 -0.1067  0.9733
   66CHL1   H25 7356   0.646   3.329   8.993  0.0840 -0.6016  0.1722
   66CHL1   C26 7357   0.706   3.133   8.987 -0.2688 -0.7032  0.0034
   66CHL1  H26A 7358   0.785   3.129   9.065  0.8665  0.0271 -1.0685
   66CHL1  H26B 7359   0.657   3.034   8.995 -2.5921  0.3721 -0.0934
   66CHL1  H26C 7360   0.751   3.147   8.887  0.4498 -0.1281  0.3951
   66CHL1   C27 7361   0.476   3.199   8.943  0.1889  0.2626 -0.6684
   66CHL1  H27A 7362   0.435   3.098   8.964 -1.3513  1.1247  0.6794
   66CHL1  H27B 7363   0.399   3.274   8.971 -1.5294 -1.6132 -0.2022
   66CHL1  H27C 7364   0.490   3.217   8.834  1.1036  1.9497 -0.3174
   67CHL1    C3 7365   5.796   2.506  10.385  0.7158  0.1847 -0.4448
   67CHL1    H3 7366   5.705   2.559  10.349  0.5312 -0.9882 -1.7783
   67CHL1    O3 7367   5.797   2.498  10.523  0.2208  0.1614  0.1592
   67CHL1   H3' 7368   5.714   2.473  10.564  0.4925  0.8024  1.1272
   67CHL1    C4 7369   5.793   2.372  10.314  0.8007 -0.9386  0.1006
   67CHL1   H4A 7370   5.877   2.301  10.333  0.7940 -0.7797  0.7553
   67CHL1   H4B 7371   5.701   2.326  10.356  1.3915 -1.0471  1.3429
   67CHL1    C5 7372   5.778   2.390  10.167  0.2881 -0.0779 -0.0030
   67CHL1    C6 7373   5.688   2.341  10.088  0.3545  0.4031  0.3934
   67CHL1    H6 7374   5.612   2.281  10.142  0.6573  0.7424  1.2177
   67CHL1    C7 7375   5.685   2.349   9.936 -0.6363  0.0524 -0.7804
   67CHL1   H7A 7376   5.669   2.248   9.894 -0.6412 -0.6223  0.7814
   67CHL1   H7B 7377   5.597   2.410   9.906 -1.3154 -0.3859  0.2832
   67CHL1    C8 7378   5.810   2.421   9.874  0.1291 -0.2410  0.2262
   67CHL1    H8 7379   5.883   2.337   9.871 -0.1293 -0.5102  1.0587
   67CHL1   C14 7380   5.779   2.473   9.742  0.2829 -0.1220 -0.7194
   67CHL1   H14 7381   5.715   2.563   9.751  2.1782  1.3089 -0.9686
   67CHL1   C15 7382   5.710   2.375   9.642  0.3073  0.2933 -0.1627
   67CHL1  H15A 7383   5.753   2.273   9.635 -3.0522 -1.2086 -0.7214
   67CHL1  H15B 7384   5.607   2.348   9.672  0.7137  0.6750  1.7370
   67CHL1   C16 7385   5.733   2.437   9.509 -0.0164  0.2496  0.0402
   67CHL1  H16A 7386   5.766   2.358   9.438  2.6298  0.1172  1.2981
   67CHL1  H16B 7387   5.629   2.464   9.481 -0.1098  1.1016  1.1155
   67CHL1   C17 7388   5.843   2.556   9.529 -0.2684  1.1081  0.4050
   67CHL1   H17 7389   5.781   2.647   9.542 -0.4998  1.3119 -1.7277
   67CHL1   C13 7390   5.898   2.532   9.664  0.2314  0.0065 -0.5683
   67CHL1   C18 7391   6.021   2.435   9.650 -0.1842 -0.4371  0.1152
   67CHL1  H18A 7392   6.056   2.397   9.748 -1.8118  0.5448  1.1118
   67CHL1  H18B 7393   5.988   2.343   9.596  1.0636 -0.3493 -0.8436
   67CHL1  H18C 7394   6.109   2.480   9.599  0.0803 -0.5722  0.4481
   67CHL1   C12 7395   5.937   2.656   9.739  0.3226 -0.0980 -0.0258
   67CHL1  H12A 7396   6.036   2.694   9.707  1.5625 -3.6430 -0.8276
   67CHL1  H12B 7397   5.860   2.737   9.732  1.3102  0.9841  1.1310
   67CHL1   C11 7398   5.959   2.621   9.891  0.3081  0.0974  0.5538
   67CHL1  H11A 7399   6.051   2.559   9.884 -1.0546 -1.8743 -1.0363
   67CHL1  H11B 7400   5.973   2.722   9.934  1.7277  0.9558 -1.7158
   67CHL1    C9 7401   5.851   2.541   9.959  0.9681  1.7944  0.2370
   67CHL1    H9 7402   5.762   2.608   9.956  0.0383  0.8511  3.1635
   67CHL1   C10 7403   5.881   2.492  10.106 -0.6043 -0.2683  0.5710
   67CHL1   C19 7404   6.017   2.414  10.112  0.5160  0.3671  0.0181
   67CHL1  H19A 7405   6.094   2.469  10.053  0.1416  0.5891 -0.2668
   67CHL1  H19B 7406   6.059   2.394  10.213 -0.9803  3.3402  1.3757
   67CHL1  H19C 7407   6.005   2.316  10.061 -0.2819  0.1715  0.5639
   67CHL1    C1 7408   5.877   2.620  10.185  0.0367 -0.4815 -0.3337
   67CHL1   H1A 7409   5.946   2.687  10.129  0.3172 -0.6831 -0.2328
   67CHL1   H1B 7410   5.772   2.657  10.174 -0.9060 -2.4900  1.3009
   67CHL1    C2 7411   5.903   2.605  10.339 -0.1592 -0.4717  0.1192
   67CHL1   H2A 7412   5.882   2.705  10.382  0.8400  1.1073 -2.7894
   67CHL1   H2B 7413   6.006   2.568  10.358  0.3862 -0.4108 -2.3863
   67CHL1   C20 7414   5.932   2.574   9.403  0.3121  0.0366  0.0636
   67CHL1   H20 7415   5.992   2.481   9.393 -0.7582 -0.9145  1.9676
   67CHL1   C21 7416   6.020   2.705   9.414 -0.0131 -0.3626 -0.1936
   67CHL1  H21A 7417   5.959   2.788   9.455 -3.1583 -2.7363  0.3132
   67CHL1  H21B 7418   6.075   2.732   9.321 -0.8701  1.2732 -0.2600
   67CHL1  H21C 7419   6.100   2.675   9.485 -0.7310 -2.1569 -0.0893
   67CHL1   C22 7420   5.859   2.580   9.260  0.2195 -0.3284 -0.5288
   67CHL1  H22A 7421   5.948   2.603   9.197  0.1321  3.1509  0.3694
   67CHL1  H22B 7422   5.820   2.478   9.244  0.8864 -0.6376 -0.2531
   67CHL1   C23 7423   5.752   2.688   9.244  0.4811  0.1140  0.0162
   67CHL1  H23A 7424   5.667   2.673   9.314 -0.3457  1.4253 -0.6651
   67CHL1  H23B 7425   5.793   2.784   9.282 -0.3649  0.0488  1.1615
   67CHL1   C24 7426   5.714   2.705   9.096  0.5476 -0.9184 -0.1716
   67CHL1  H24A 7427   5.678   2.608   9.054 -2.3050  0.3007 -0.7568
   67CHL1  H24B 7428   5.618   2.761   9.095  0.4750 -1.0347 -1.4591
   67CHL1   C25 7429   5.827   2.761   9.005 -0.3720  0.4187  0.0434
   67CHL1   H25 7430   5.910   2.688   9.013 -1.9181 -1.2712  1.3451
   67CHL1   C26 7431   5.793   2.760   8.855  0.0680  0.5242  0.0186
   67CHL1  H26A 7432   5.708   2.828   8.835  0.5706  0.5951 -2.0974
   67CHL1  H26B 7433   5.881   2.786   8.793  0.4267  0.1691  0.3735
   67CHL1  H26C 7434   5.744   2.664   8.828  0.7047  0.7248 -1.9784
   67CHL1   C27 7435   5.885   2.897   9.048  0.0239  0.3940 -0.4408
   67CHL1  H27A 7436   5.941   2.876   9.142  1.4177 -2.0866 -1.7120
   67CHL1  H27B 7437   5.963   2.936   8.978 -0.1588  2.3063  0.3508
   67CHL1  H27C 7438   5.803   2.971   9.056  1.0536  1.7956 -2.1983
   68CHL1    C3 7439   2.887   0.530  10.090  0.2859 -0.5696  0.0282
   68CHL1    H3 7440   2.806   0.467  10.047  0.1143 -0.1530 -0.2648
   68CHL1    O3 7441   2.894   0.525  10.238 -0.3194 -0.8021  0.6295
   68CHL1   H3' 7442   2.808   0.550  10.274 -1.0218 -1.0183 -0.8126
   68CHL1    C4 7443   3.019   0.482  10.028  1.1074 -0.2817  0.0830
   68CHL1   H4A 7444   3.106   0.527  10.079  2.6047 -0.6622 -2.0110
   68CHL1   H4B 7445   3.013   0.373  10.044  0.0849 -0.4788 -1.3762
   68CHL1    C5 7446   3.024   0.512   9.882 -0.3822  0.3985 -0.1842
   68CHL1    C6 7447   3.046   0.416   9.788 -0.3346 -0.5657 -0.1171
   68CHL1    H6 7448   3.053   0.311   9.820  0.0561 -0.1111  1.3678
   68CHL1    C7 7449   3.076   0.456   9.646  0.7302 -0.1061  0.5223
   68CHL1   H7A 7450   3.168   0.399   9.618 -0.6647 -1.9754 -0.5187
   68CHL1   H7B 7451   3.004   0.414   9.572  2.1959 -1.0322 -0.4363
   68CHL1    C8 7452   3.090   0.606   9.616  0.5107 -0.3807  0.3588
   68CHL1    H8 7453   3.192   0.634   9.650  0.7694  0.5496 -1.1030
   68CHL1   C14 7454   3.079   0.633   9.461  0.0044 -0.5395 -0.2372
   68CHL1   H14 7455   2.974   0.597   9.451 -0.0378 -0.3031 -0.6514
   68CHL1   C15 7456   3.176   0.555   9.371  0.5405  0.5982 -1.0670
   68CHL1  H15A 7457   3.280   0.571   9.406  0.2178  1.9580 -0.6665
   68CHL1  H15B 7458   3.153   0.447   9.379 -4.1154  1.3743 -0.9453
   68CHL1   C16 7459   3.156   0.632   9.236 -0.8346  0.1073  0.5930
   68CHL1  H16A 7460   3.253   0.665   9.193 -1.0041 -0.6322 -0.3958
   68CHL1  H16B 7461   3.098   0.578   9.158  1.1870 -1.4308  0.0699
   68CHL1   C17 7462   3.065   0.759   9.262  0.2497  0.2882 -0.6345
   68CHL1   H17 7463   2.961   0.736   9.229 -0.0075  0.2124  0.2014
   68CHL1   C13 7464   3.071   0.781   9.417  0.1663  0.2765 -0.8892
   68CHL1   C18 7465   3.191   0.862   9.443  0.3354  0.5694 -0.1561
   68CHL1  H18A 7466   3.165   0.970   9.435 -3.0888 -0.1609 -0.4061
   68CHL1  H18B 7467   3.228   0.847   9.547 -0.7742 -1.6430 -0.0112
   68CHL1  H18C 7468   3.275   0.842   9.374  0.5962  0.3642  0.2124
   68CHL1   C12 7469   2.952   0.841   9.494  0.2382 -0.0754 -0.0096
   68CHL1  H12A 7470   2.950   0.950   9.476 -0.7586 -0.3078 -1.4325
   68CHL1  H12B 7471   2.861   0.786   9.463  0.2203 -0.3832  0.5608
   68CHL1   C11 7472   2.967   0.829   9.650  0.0517  0.0850  0.3342
   68CHL1  H11A 7473   3.064   0.878   9.676 -0.3136  0.9848  0.0445
   68CHL1  H11B 7474   2.885   0.875   9.709  0.7483 -1.4377  2.6148
   68CHL1    C9 7475   2.987   0.678   9.699  0.2472  0.1131  0.0911
   68CHL1    H9 7476   2.889   0.630   9.678 -1.2446  2.4552  1.2366
   68CHL1   C10 7477   3.003   0.662   9.852 -0.1797 -0.0179  0.0134
   68CHL1   C19 7478   3.130   0.752   9.892  0.4691 -0.4423 -0.4445
   68CHL1  H19A 7479   3.223   0.719   9.840  1.2857 -1.7629  1.7413
   68CHL1  H19B 7480   3.103   0.858   9.874  1.6621 -0.4676 -2.7639
   68CHL1  H19C 7481   3.149   0.754  10.001  1.8796 -0.6308 -0.6616
   68CHL1    C1 7482   2.879   0.724   9.919  0.1175  0.5206  0.1845
   68CHL1   H1A 7483   2.878   0.834   9.927  1.9151  0.5637  0.0756
   68CHL1   H1B 7484   2.795   0.691   9.854  0.9460 -0.3925 -0.4472
   68CHL1    C2 7485   2.865   0.676  10.065  0.4351 -0.0944  0.2562
   68CHL1   H2A 7486   2.773   0.724  10.104  0.8044  0.3335  0.6119
   68CHL1   H2B 7487   2.952   0.720  10.117 -0.5214 -0.1111  1.9586
   68CHL1   C20 7488   3.099   0.875   9.170 -0.4322 -0.2429  0.4660
   68CHL1   H20 7489   3.207   0.900   9.181 -0.6475  0.9076  0.0416
   68CHL1   C21 7490   3.012   1.008   9.193  0.0366  0.5554 -0.9693
   68CHL1  H21A 7491   2.905   0.978   9.191  0.4044 -1.2905  1.7163
   68CHL1  H21B 7492   3.033   1.080   9.111 -2.3767 -0.4616 -2.5960
   68CHL1  H21C 7493   3.043   1.047   9.292  0.1799 -2.9047  0.4784
   68CHL1   C22 7494   3.090   0.836   9.020  0.0685 -0.1104 -0.2114
   68CHL1  H22A 7495   3.134   0.734   9.014  0.5382  0.0793 -0.0145
   68CHL1  H22B 7496   2.981   0.815   9.006  0.1001  0.6056 -1.6246
   68CHL1   C23 7497   3.138   0.936   8.921  0.0465 -0.2940 -0.6579
   68CHL1  H23A 7498   3.130   0.877   8.827  1.1596 -2.1567  0.3374
   68CHL1  H23B 7499   3.069   1.021   8.902 -0.5189 -1.0487 -2.1692
   68CHL1   C24 7500   3.283   0.982   8.919 -0.4066  0.9394 -0.8498
   68CHL1  H24A 7501   3.299   1.075   8.978  1.3950  0.4909 -0.5673
   68CHL1  H24B 7502   3.329   0.898   8.976 -2.7049  0.1779  0.0227
   68CHL1   C25 7503   3.348   1.010   8.780 -0.1282 -0.1692  0.4825
   68CHL1   H25 7504   3.332   0.926   8.710  0.7186  2.0177 -2.5474
   68CHL1   C26 7505   3.292   1.136   8.722  0.7144  0.5176  0.4650
   68CHL1  H26A 7506   3.343   1.188   8.639  0.6028 -0.8455 -0.4839
   68CHL1  H26B 7507   3.192   1.106   8.684  0.8035 -0.4411  0.9378
   68CHL1  H26C 7508   3.284   1.210   8.805  0.2062  0.1097  0.7918
   68CHL1   C27 7509   3.503   1.028   8.787 -0.0084  0.2925 -0.5010
   68CHL1  H27A 7510   3.540   1.122   8.834  1.8784 -0.7347  0.1885
   68CHL1  H27B 7511   3.559   0.955   8.849 -1.6648  0.1529  0.9241
   68CHL1  H27C 7512   3.547   1.027   8.685 -0.5824  1.1213 -0.7705
   69CHL1    C3 7513   2.914   0.975   6.721 -0.7143 -0.4235 -0.2860
   69CHL1    H3 7514   2.997   1.049   6.723  0.1309 -1.2998 -1.1871
   69CHL1    O3 7515   2.877   0.962   6.584 -0.1944  0.5244 -0.0885
   69CHL1   H3' 7516   2.817   0.886   6.590  0.3816  0.1663  2.1564
   69CHL1    C4 7517   2.985   0.841   6.780  0.3028 -0.0033 -0.1029
   69CHL1   H4A 7518   2.923   0.754   6.749  0.9069 -0.5723  0.2497
   69CHL1   H4B 7519   3.074   0.824   6.717  0.1631  1.2838 -0.6750
   69CHL1    C5 7520   3.005   0.850   6.926  0.0342 -0.8459 -0.8511
   69CHL1    C6 7521   3.125   0.831   6.983 -0.3823  0.0846  0.3297
   69CHL1    H6 7522   3.207   0.804   6.915 -1.4334 -1.3499 -0.4455
   69CHL1    C7 7523   3.148   0.842   7.132  0.5469 -0.2965  0.5725
   69CHL1   H7A 7524   3.201   0.748   7.160 -0.8006 -1.0279  0.7630
   69CHL1   H7B 7525   3.211   0.930   7.158  0.8963  0.1051 -1.4637
   69CHL1    C8 7526   3.020   0.834   7.220 -0.3544  0.0962  0.6527
   69CHL1    H8 7527   2.993   0.726   7.226  1.7186 -0.4070  1.6255
   69CHL1   C14 7528   3.060   0.887   7.355 -0.0391  0.5304  0.3095
   69CHL1   H14 7529   3.088   0.994   7.347 -1.7843  0.9352 -0.8794
   69CHL1   C15 7530   3.186   0.828   7.422  0.0099  0.5017 -0.5650
   69CHL1  H15A 7531   3.201   0.719   7.407 -0.5911  0.0096  1.9823
   69CHL1  H15B 7532   3.274   0.881   7.380  0.3537  1.1285  0.9082
   69CHL1   C16 7533   3.165   0.866   7.574  0.1684  0.3232  0.3189
   69CHL1  H16A 7534   3.164   0.770   7.630 -3.8860 -0.5167 -0.8336
   69CHL1  H16B 7535   3.244   0.933   7.613  2.1683 -1.7441  0.0194
   69CHL1   C17 7536   3.019   0.933   7.588 -0.4034 -0.2440  0.4718
   69CHL1   H17 7537   3.034   1.043   7.580  0.3312 -0.3130  0.8125
   69CHL1   C13 7538   2.947   0.889   7.461 -0.6029 -0.1541 -0.0754
   69CHL1   C18 7539   2.898   0.748   7.484 -0.4260 -0.6064 -0.6263
   69CHL1  H18A 7540   2.833   0.742   7.574  1.6051  1.3639  1.0989
   69CHL1  H18B 7541   2.853   0.713   7.389  1.9975 -0.6229 -1.8423
   69CHL1  H18C 7542   2.984   0.680   7.498 -0.7427 -0.7995  0.5161
   69CHL1   C12 7543   2.839   0.985   7.399  0.4565  0.4354 -0.4918
   69CHL1  H12A 7544   2.751   0.986   7.467  0.6122  0.0675 -0.2771
   69CHL1  H12B 7545   2.883   1.087   7.398  1.7265 -0.0823 -0.1161
   69CHL1   C11 7546   2.795   0.941   7.260  0.1831  0.4281  0.0129
   69CHL1  H11A 7547   2.738   0.846   7.269 -0.1979  0.7545  1.0774
   69CHL1  H11B 7548   2.737   1.026   7.218  1.8840  1.1525 -0.9957
   69CHL1    C9 7549   2.915   0.925   7.157  0.0796  0.6386  0.4559
   69CHL1    H9 7550   2.957   1.028   7.153  2.9778 -0.4538  0.5684
   69CHL1   C10 7551   2.881   0.901   7.009  0.4829 -0.6370 -0.9135
   69CHL1   C19 7552   2.783   0.783   6.994 -0.1176 -0.6033 -0.2385
   69CHL1  H19A 7553   2.835   0.688   7.021  1.9523  0.1428 -1.4314
   69CHL1  H19B 7554   2.698   0.789   7.066  0.6010  2.0174  0.5016
   69CHL1  H19C 7555   2.742   0.769   6.892 -0.6602 -1.2380  0.0553
   69CHL1    C1 7556   2.821   1.033   6.947  0.2765 -0.4738  0.4871
   69CHL1   H1A 7557   2.727   1.041   7.004  0.0241  0.8218 -0.0696
   69CHL1   H1B 7558   2.889   1.114   6.981  0.9187 -0.3023 -1.0930
   69CHL1    C2 7559   2.798   1.024   6.800 -0.4735 -0.1674  0.2059
   69CHL1   H2A 7560   2.770   1.121   6.751  0.0993 -0.5297 -0.8801
   69CHL1   H2B 7561   2.708   0.963   6.779 -0.6113 -0.0439  0.4361
   69CHL1   C20 7562   2.960   0.918   7.723  0.3562 -0.1861  0.2460
   69CHL1   H20 7563   2.933   0.811   7.740  1.0346 -0.5569 -0.8620
   69CHL1   C21 7564   2.832   1.005   7.734  0.3242 -0.6077 -0.1980
   69CHL1  H21A 7565   2.811   1.045   7.836  0.3867 -0.0798 -0.3877
   69CHL1  H21B 7566   2.743   0.956   7.689  1.2192 -1.0416 -1.5497
   69CHL1  H21C 7567   2.843   1.094   7.669 -2.0408 -1.4765 -1.8947
   69CHL1   C22 7568   3.060   0.962   7.832 -0.4388  0.0432 -0.2875
   69CHL1  H22A 7569   3.146   0.893   7.824  2.0493  2.6879  1.6156
   69CHL1  H22B 7570   3.088   1.067   7.808 -1.0224 -0.2896 -2.7421
   69CHL1   C23 7571   3.006   0.939   7.978 -0.8175  0.2895  0.3229
   69CHL1  H23A 7572   2.920   1.008   7.999 -1.1939 -0.4588  1.3116
   69CHL1  H23B 7573   2.953   0.841   7.982 -1.1397  0.4942  1.5468
   69CHL1   C24 7574   3.110   0.940   8.095 -0.4676  0.2274  0.9098
   69CHL1  H24A 7575   3.173   0.851   8.075  0.6492  1.1013  0.3598
   69CHL1  H24B 7576   3.173   1.031   8.081  0.4293 -0.6304 -1.1356
   69CHL1   C25 7577   3.036   0.951   8.236  0.3371  0.3579  0.5942
   69CHL1   H25 7578   2.952   0.879   8.237  1.5405 -1.3400 -3.2247
   69CHL1   C26 7579   3.116   0.910   8.354  0.6572 -0.8769 -0.6995
   69CHL1  H26A 7580   3.167   0.812   8.341  0.8116 -1.4711  3.1811
   69CHL1  H26B 7581   3.185   0.995   8.376 -2.0542  1.4009 -0.5209
   69CHL1  H26C 7582   3.049   0.907   8.442  0.5625  1.7766 -0.5894
   69CHL1   C27 7583   2.997   1.094   8.249 -0.2045  0.7717 -0.4425
   69CHL1  H27A 7584   3.088   1.158   8.248 -0.7137  1.5368  0.5101
   69CHL1  H27B 7585   2.939   1.133   8.162 -0.6221  2.7440  0.6555
   69CHL1  H27C 7586   2.944   1.103   8.346 -0.3408  0.9765 -0.5356
   70CHL1    C3 7587   2.464   4.400   6.843  0.4976  0.4508 -0.6034
   70CHL1    H3 7588   2.436   4.295   6.867 -0.0547  0.9874  1.2225
   70CHL1    O3 7589   2.442   4.412   6.701  0.6341  0.3784  0.0289
   70CHL1   H3' 7590   2.475   4.501   6.685 -0.6086  1.4725  2.8653
   70CHL1    C4 7591   2.367   4.500   6.922 -1.2480 -0.1176 -0.7061
   70CHL1   H4A 7592   2.387   4.605   6.892  2.5426 -0.4728  0.1010
   70CHL1   H4B 7593   2.265   4.476   6.887 -1.7307 -0.5150  0.8988
   70CHL1    C5 7594   2.386   4.486   7.074  0.1684  0.0410  0.4832
   70CHL1    C6 7595   2.281   4.464   7.159 -0.2295  0.5987  0.3418
   70CHL1    H6 7596   2.188   4.441   7.105  2.0310 -2.2904 -2.7042
   70CHL1    C7 7597   2.289   4.459   7.308 -0.1073 -0.1094  0.4895
   70CHL1   H7A 7598   2.209   4.527   7.344  0.4951  0.1993  1.2835
   70CHL1   H7B 7599   2.276   4.351   7.333 -1.6198 -0.5137 -1.7974
   70CHL1    C8 7600   2.422   4.526   7.354  0.2663  0.3260 -0.5722
   70CHL1    H8 7601   2.409   4.635   7.334 -2.0636  0.3484  0.6997
   70CHL1   C14 7602   2.434   4.501   7.508 -0.1101 -0.4040 -1.7051
   70CHL1   H14 7603   2.420   4.391   7.509 -3.9781 -0.0766  0.1434
   70CHL1   C15 7604   2.320   4.558   7.600 -0.2865  0.3945 -0.3964
   70CHL1  H15A 7605   2.311   4.667   7.584  2.1419  1.1792  2.4412
   70CHL1  H15B 7606   2.221   4.510   7.591  0.6603 -1.9280  0.6281
   70CHL1   C16 7607   2.378   4.536   7.741 -0.8256 -0.3967 -0.0533
   70CHL1  H16A 7608   2.357   4.624   7.806  0.8454 -0.2978  0.4196
   70CHL1  H16B 7609   2.330   4.452   7.795 -4.7043  2.2380  1.0111
   70CHL1   C17 7610   2.531   4.497   7.724 -0.1924 -0.0154 -0.0690
   70CHL1   H17 7611   2.536   4.387   7.727 -0.1624  0.0071  0.8014
   70CHL1   C13 7612   2.562   4.537   7.578 -0.0307  0.1241  0.7945
   70CHL1   C18 7613   2.589   4.688   7.558  0.2910 -0.1809  0.2992
   70CHL1  H18A 7614   2.517   4.747   7.620  0.2772 -0.0367  0.1460
   70CHL1  H18B 7615   2.683   4.722   7.605 -1.5616  1.7422  2.9350
   70CHL1  H18C 7616   2.574   4.716   7.452  0.5805  0.7860  0.5006
   70CHL1   C12 7617   2.666   4.457   7.502 -0.1393 -0.1780  0.6490
   70CHL1  H12A 7618   2.767   4.480   7.542 -1.2829  2.3392  2.3582
   70CHL1  H12B 7619   2.653   4.347   7.515  1.1453 -0.6194 -1.3431
   70CHL1   C11 7620   2.669   4.496   7.350 -0.1382 -0.6753 -0.0677
   70CHL1  H11A 7621   2.684   4.605   7.342  0.0134 -0.8121 -2.0775
   70CHL1  H11B 7622   2.762   4.448   7.311  1.0797  0.3892  1.4106
   70CHL1    C9 7623   2.537   4.466   7.283 -0.6955 -0.4106 -0.0099
   70CHL1    H9 7624   2.527   4.355   7.280  0.6608 -0.5407 -1.3767
   70CHL1   C10 7625   2.529   4.506   7.131  0.2280 -0.2334  0.5011
   70CHL1   C19 7626   2.584   4.646   7.119  1.1153  0.9612 -0.0556
   70CHL1  H19A 7627   2.565   4.690   7.018 -0.5022 -0.8443 -0.5823
   70CHL1  H19B 7628   2.524   4.716   7.182  1.5502  1.5809 -0.3197
   70CHL1  H19C 7629   2.690   4.655   7.149  0.6764  0.1888  1.8737
   70CHL1    C1 7630   2.627   4.409   7.044  0.7673 -0.1083 -0.2514
   70CHL1   H1A 7631   2.732   4.421   7.077  0.4251  0.2182  0.7561
   70CHL1   H1B 7632   2.617   4.305   7.079  1.9162  0.1163  0.8174
   70CHL1    C2 7633   2.610   4.426   6.889  0.1063 -0.2980  0.4783
   70CHL1   H2A 7634   2.678   4.361   6.831 -1.2676  0.0115 -1.5688
   70CHL1   H2B 7635   2.650   4.522   6.850 -1.0673 -0.5440 -1.3993
   70CHL1   C20 7636   2.624   4.565   7.827  0.0489 -0.2442 -0.0707
   70CHL1   H20 7637   2.603   4.674   7.825 -1.3909 -0.4933  0.4925
   70CHL1   C21 7638   2.772   4.529   7.795  0.2600  0.5552  0.1227
   70CHL1  H21A 7639   2.839   4.588   7.860  1.2589 -1.2393  0.7897
   70CHL1  H21B 7640   2.807   4.556   7.693 -2.7219 -1.2501 -1.5295
   70CHL1  H21C 7641   2.793   4.420   7.803  2.4566  0.7631 -1.8465
   70CHL1   C22 7642   2.584   4.521   7.968  0.3402  0.5917 -0.0690
   70CHL1  H22A 7643   2.474   4.525   7.981  0.5510  0.4782  2.0848
   70CHL1  H22B 7644   2.599   4.411   7.968  1.1618  0.6865 -1.4037
   70CHL1   C23 7645   2.637   4.586   8.097  0.5214 -0.2345 -0.3497
   70CHL1  H23A 7646   2.720   4.657   8.076  1.3899 -2.1551 -4.1486
   70CHL1  H23B 7647   2.546   4.640   8.131  0.1049 -0.4032 -1.1918
   70CHL1   C24 7648   2.678   4.483   8.202 -0.5745 -0.7439 -0.5748
   70CHL1  H24A 7649   2.593   4.415   8.227 -0.3611 -0.7181  0.2639
   70CHL1  H24B 7650   2.762   4.418   8.167  0.6488  0.3002  0.3244
   70CHL1   C25 7651   2.732   4.546   8.327  0.7305 -0.6491  0.7808
   70CHL1   H25 7652   2.808   4.624   8.307  2.7265 -1.9948  2.7004
   70CHL1   C26 7653   2.627   4.599   8.423  0.1054 -0.3086 -0.2062
   70CHL1  H26A 7654   2.610   4.707   8.403 -0.0467 -0.5884 -1.7227
   70CHL1  H26B 7655   2.538   4.535   8.402 -0.7946  0.4310  1.2584
   70CHL1  H26C 7656   2.654   4.598   8.531 -0.1115  2.1299 -0.0762
   70CHL1   C27 7657   2.808   4.436   8.408 -0.4441 -0.2966 -0.3875
   70CHL1  H27A 7658   2.849   4.483   8.500  2.5421 -3.3405  0.0370
   70CHL1  H27B 7659   2.735   4.359   8.439 -0.3659  0.7164  2.5849
   70CHL1  H27C 7660   2.892   4.394   8.348  0.4342  0.5788  0.1945
   71CHL1    C3 7661   4.145   5.940   6.837 -0.2193  0.6259  0.4854
   71CHL1    H3 7662   4.164   6.049   6.850 -2.3994  1.4545 -2.2974
   71CHL1    O3 7663   4.122   5.918   6.694 -0.1816  0.1685 -0.1732
   71CHL1   H3' 7664   4.185   5.854   6.660 -2.6712 -1.0107 -2.9572
   71CHL1    C4 7665   4.254   5.850   6.880  0.1469 -0.0821 -0.4721
   71CHL1   H4A 7666   4.246   5.745   6.845  1.2627 -0.7084  1.0673
   71CHL1   H4B 7667   4.343   5.889   6.827 -0.7458 -0.7223 -2.5554
   71CHL1    C5 7668   4.265   5.849   7.034 -0.5093  0.1486 -0.2691
   71CHL1    C6 7669   4.386   5.866   7.092 -0.0541  0.2842  0.6821
   71CHL1    H6 7670   4.473   5.887   7.028  1.4392  0.7801  2.7532
   71CHL1    C7 7671   4.412   5.868   7.242 -0.0911  0.9034 -0.1827
   71CHL1   H7A 7672   4.501   5.811   7.276 -0.0696 -0.0888 -1.7896
   71CHL1   H7B 7673   4.430   5.974   7.273  0.7085  0.4887  0.8121
   71CHL1    C8 7674   4.298   5.810   7.323 -0.2170 -0.9069 -0.1641
   71CHL1    H8 7675   4.303   5.700   7.309 -0.0923 -0.8865 -0.2645
   71CHL1   C14 7676   4.310   5.849   7.474 -0.4046  0.1233 -0.5929
   71CHL1   H14 7677   4.301   5.959   7.480 -2.6946 -0.0774  0.4581
   71CHL1   C15 7678   4.440   5.804   7.539  0.0405 -1.0967  0.2096
   71CHL1  H15A 7679   4.475   5.700   7.525 -0.4307 -1.2865  0.4289
   71CHL1  H15B 7680   4.523   5.875   7.519 -0.8368  0.3921  1.6122
   71CHL1   C16 7681   4.393   5.815   7.688 -0.3182 -0.9934 -0.2025
   71CHL1  H16A 7682   4.430   5.722   7.736  1.2836  0.8548  2.3912
   71CHL1  H16B 7683   4.443   5.898   7.742  0.3612 -2.1398  0.9950
   71CHL1   C17 7684   4.241   5.829   7.699  0.2281  0.3577  1.1479
   71CHL1   H17 7685   4.223   5.937   7.715  1.1101  0.2442  3.3044
   71CHL1   C13 7686   4.197   5.796   7.560 -0.2057 -0.7261 -0.2113
   71CHL1   C18 7687   4.186   5.642   7.558  0.3553  0.6227  0.1469
   71CHL1  H18A 7688   4.094   5.605   7.608  0.4372 -2.2605 -1.5870
   71CHL1  H18B 7689   4.185   5.613   7.450 -0.2707 -2.9800  0.9796
   71CHL1  H18C 7690   4.271   5.585   7.601 -0.9176 -0.9459  0.6977
   71CHL1   C12 7691   4.060   5.855   7.513 -0.1763  0.3194  0.1231
   71CHL1  H12A 7692   3.975   5.832   7.581 -0.6283  2.2463  0.2841
   71CHL1  H12B 7693   4.090   5.962   7.509  1.2496 -0.0125 -4.4643
   71CHL1   C11 7694   4.034   5.813   7.360 -0.6360 -1.0060  0.5710
   71CHL1  H11A 7695   4.013   5.704   7.364  0.3405 -1.1799  1.7696
   71CHL1  H11B 7696   3.939   5.866   7.338  0.1157  0.5345  0.9245
   71CHL1    C9 7697   4.160   5.857   7.271 -0.1572  0.2276 -0.0860
   71CHL1    H9 7698   4.170   5.967   7.281  1.9710 -0.0832  2.2884
   71CHL1   C10 7699   4.143   5.829   7.118 -0.3021  0.5942  0.0676
   71CHL1   C19 7700   4.090   5.680   7.103 -0.2474  0.3749 -0.8003
   71CHL1  H19A 7701   3.999   5.675   7.167 -0.2031  0.3399 -0.7402
   71CHL1  H19B 7702   4.057   5.652   7.000 -1.3425 -2.2284  0.1685
   71CHL1  H19C 7703   4.145   5.590   7.136 -1.8192 -0.5791 -0.6471
   71CHL1    C1 7704   4.030   5.920   7.066  0.2326  0.4441  0.7345
   71CHL1   H1A 7705   3.933   5.897   7.114  0.0580 -1.5675 -0.4735
   71CHL1   H1B 7706   4.059   6.025   7.088  0.5096  0.8107 -1.1563
   71CHL1    C2 7707   4.014   5.909   6.913  0.1501  0.4583 -0.3079
   71CHL1   H2A 7708   3.948   5.990   6.875  0.2426 -0.2228 -2.0178
   71CHL1   H2B 7709   3.980   5.808   6.883  0.8119  0.3344 -0.6788
   71CHL1   C20 7710   4.185   5.765   7.827 -0.1923 -0.4504 -0.1446
   71CHL1   H20 7711   4.196   5.654   7.823  3.8774 -0.3269  1.7664
   71CHL1   C21 7712   4.030   5.797   7.838  0.1148 -0.4951  0.9085
   71CHL1  H21A 7713   4.008   5.891   7.784  0.9433 -1.0154 -0.3918
   71CHL1  H21B 7714   3.987   5.821   7.938  0.3608 -1.6200  1.2952
   71CHL1  H21C 7715   3.969   5.723   7.782 -0.2005 -0.0430  0.6536
   71CHL1   C22 7716   4.257   5.815   7.956 -0.2499  0.5493  0.3391
   71CHL1  H22A 7717   4.368   5.808   7.951 -0.0415  2.2460  1.6035
   71CHL1  H22B 7718   4.228   5.921   7.970 -0.4909  0.2586  2.3148
   71CHL1   C23 7719   4.221   5.724   8.078  0.2995  0.5209  0.9954
   71CHL1  H23A 7720   4.113   5.741   8.094  0.7298  2.3706  2.2964
   71CHL1  H23B 7721   4.250   5.618   8.061  0.5885  0.7532  0.0124
   71CHL1   C24 7722   4.302   5.764   8.208  0.2627 -0.4264 -0.3304
   71CHL1  H24A 7723   4.252   5.700   8.284 -0.5413  0.6624  0.1003
   71CHL1  H24B 7724   4.408   5.739   8.190  0.9686  1.8994  0.2865
   71CHL1   C25 7725   4.288   5.913   8.262 -0.5548 -0.3029 -0.7082
   71CHL1   H25 7726   4.239   5.984   8.192  0.0344 -0.0536 -0.8764
   71CHL1   C26 7727   4.187   5.910   8.383  0.0734 -0.6018  0.0124
   71CHL1  H26A 7728   4.177   6.011   8.429  0.5569 -0.2132 -0.7153
   71CHL1  H26B 7729   4.083   5.885   8.354 -0.1753  0.1859  0.1938
   71CHL1  H26C 7730   4.228   5.840   8.458 -2.8746 -0.3415  2.0213
   71CHL1   C27 7731   4.425   5.976   8.304  0.6882  0.2149  0.3917
   71CHL1  H27A 7732   4.469   5.912   8.384  0.6517  0.2278  0.4213
   71CHL1  H27B 7733   4.498   5.974   8.220 -1.6741 -1.5184 -1.7876
   71CHL1  H27C 7734   4.428   6.077   8.349 -1.0352 -0.4942  2.2735
   72CHL1    C3 7735   1.244   6.071   7.157  0.6579 -1.2119  0.1969
   72CHL1    H3 7736   1.314   6.153   7.185  2.0542 -2.2691 -0.1076
   72CHL1    O3 7737   1.226   6.060   7.022  0.4292 -0.0650 -0.2109
   72CHL1   H3' 7738   1.201   6.150   7.001  1.1813  0.8576  2.4460
   72CHL1    C4 7739   1.294   5.943   7.206  0.1123 -0.0847 -0.2228
   72CHL1   H4A 7740   1.228   5.858   7.178  0.6631 -0.6391  0.1294
   72CHL1   H4B 7741   1.390   5.930   7.150  0.2948  1.5807 -0.3555
   72CHL1    C5 7742   1.312   5.932   7.354  0.3041  0.3370 -0.0625
   72CHL1    C6 7743   1.429   5.893   7.413  0.2664 -0.0321 -0.8379
   72CHL1    H6 7744   1.518   5.866   7.355 -0.2786  0.6552 -2.0235
   72CHL1    C7 7745   1.435   5.877   7.568 -0.2585  0.7408 -0.1576
   72CHL1   H7A 7746   1.485   5.781   7.593  0.1432  0.4636 -1.8590
   72CHL1   H7B 7747   1.503   5.954   7.608 -1.9917  3.3555 -1.9520
   72CHL1    C8 7748   1.299   5.885   7.647  0.1884 -0.1572 -0.4749
   72CHL1    H8 7749   1.252   5.784   7.641 -0.4608  0.1530 -0.7429
   72CHL1   C14 7750   1.322   5.912   7.795  0.0086 -0.0309 -0.2331
   72CHL1   H14 7751   1.381   6.005   7.804  2.1102 -1.1075 -1.9419
   72CHL1   C15 7752   1.409   5.813   7.870  0.2393 -0.4382  0.5703
   72CHL1  H15A 7753   1.381   5.710   7.841  1.5701 -0.5394 -0.5132
   72CHL1  H15B 7754   1.520   5.818   7.859  0.1884  1.4527  0.4675
   72CHL1   C16 7755   1.374   5.846   8.011 -0.1329 -0.2763 -0.3656
   72CHL1  H16A 7756   1.353   5.750   8.062 -0.3977 -0.8012 -1.4379
   72CHL1  H16B 7757   1.461   5.901   8.052 -0.7319 -0.1462  0.7506
   72CHL1   C17 7758   1.248   5.944   8.017 -0.7501 -0.3392 -0.0333
   72CHL1   H17 7759   1.292   6.046   8.013  1.3480 -1.2419 -2.5536
   72CHL1   C13 7760   1.190   5.933   7.873 -0.2864  0.3856 -0.5795
   72CHL1   C18 7761   1.099   5.809   7.856 -0.4402  0.7549  0.3892
   72CHL1  H18A 7762   1.000   5.816   7.906 -1.0587 -1.1605 -0.4410
   72CHL1  H18B 7763   1.073   5.799   7.748  3.7398 -0.3152 -0.7087
   72CHL1  H18C 7764   1.155   5.716   7.879 -0.3762  0.4755 -0.7841
   72CHL1   C12 7765   1.129   6.063   7.820  0.0914  0.2107 -0.1837
   72CHL1  H12A 7766   1.039   6.097   7.877 -0.3797 -0.0929 -0.7408
   72CHL1  H12B 7767   1.204   6.143   7.829  2.2531 -1.6134 -1.1123
   72CHL1   C11 7768   1.092   6.044   7.671 -0.4300  0.3292  0.4491
   72CHL1  H11A 7769   1.007   5.973   7.660 -1.4282  1.3925  1.0524
   72CHL1  H11B 7770   1.058   6.141   7.629  1.8392  1.6394  1.4617
   72CHL1    C9 7771   1.216   5.998   7.584  0.2583  0.8425  0.0751
   72CHL1    H9 7772   1.275   6.092   7.584 -0.4758  1.3212 -0.8919
   72CHL1   C10 7773   1.184   5.980   7.429  0.3524  0.8083  0.0218
   72CHL1   C19 7774   1.090   5.864   7.407  0.1246 -0.3379  0.2629
   72CHL1  H19A 7775   1.064   5.845   7.301  1.7378 -0.5932 -0.1250
   72CHL1  H19B 7776   1.135   5.771   7.451  1.2751  0.6471  1.2641
   72CHL1  H19C 7777   0.996   5.880   7.463 -0.8574 -2.9601 -0.4990
   72CHL1    C1 7778   1.120   6.112   7.362 -0.4361 -0.3816  0.8213
   72CHL1   H1A 7779   1.017   6.122   7.404 -1.9062 -1.9880 -2.0772
   72CHL1   H1B 7780   1.185   6.196   7.394  1.1393 -0.4853 -1.8085
   72CHL1    C2 7781   1.105   6.107   7.212  0.1240 -0.3663 -1.3609
   72CHL1   H2A 7782   1.057   6.205   7.189 -2.3046 -1.1045  0.2034
   72CHL1   H2B 7783   1.034   6.029   7.179  0.0566 -0.5841 -0.7014
   72CHL1   C20 7784   1.154   5.921   8.144  0.2550  0.6397 -0.3910
   72CHL1   H20 7785   1.109   5.820   8.136 -0.5539  0.8728  0.9656
   72CHL1   C21 7786   1.038   6.021   8.150 -0.0276  0.3969 -0.3538
   72CHL1  H21A 7787   1.078   6.123   8.165 -1.6933  0.7712  2.0875
   72CHL1  H21B 7788   0.977   5.987   8.236  0.4443 -1.2127 -0.6039
   72CHL1  H21C 7789   0.975   6.013   8.059  2.6363 -2.0929 -2.1684
   72CHL1   C22 7790   1.222   5.932   8.284  0.5928 -0.7002  0.6306
   72CHL1  H22A 7791   1.331   5.909   8.286  0.5276 -0.9769  2.4760
   72CHL1  H22B 7792   1.210   6.038   8.313  0.5702 -0.7478  0.7990
   72CHL1   C23 7793   1.149   5.849   8.389 -0.4743 -0.3015 -0.7640
   72CHL1  H23A 7794   1.208   5.876   8.480 -0.2908 -0.9155 -0.6956
   72CHL1  H23B 7795   1.042   5.872   8.407  0.4337  2.4810  2.2341
   72CHL1   C24 7796   1.173   5.698   8.363 -0.1491  0.0152 -0.3323
   72CHL1  H24A 7797   1.105   5.663   8.283  0.5159 -1.5012 -0.2819
   72CHL1  H24B 7798   1.270   5.681   8.311 -1.1062 -1.5081 -1.6980
   72CHL1   C25 7799   1.169   5.603   8.488 -0.0887  0.4210  0.1848
   72CHL1   H25 7800   1.214   5.637   8.584 -1.8557 -1.1772  1.6557
   72CHL1   C26 7801   1.020   5.583   8.528 -0.4518  0.5581  0.4290
   72CHL1  H26A 7802   0.969   5.517   8.455 -0.3959 -0.5785  1.3885
   72CHL1  H26B 7803   1.006   5.532   8.626  2.7201 -0.6368  0.3640
   72CHL1  H26C 7804   0.960   5.677   8.532 -0.7679  0.3731  0.1403
   72CHL1   C27 7805   1.232   5.478   8.439 -0.7311  0.5967 -0.1702
   72CHL1  H27A 7806   1.183   5.417   8.360  2.1203  0.3186 -1.8625
   72CHL1  H27B 7807   1.339   5.493   8.414 -0.0479 -2.2038  0.7454
   72CHL1  H27C 7808   1.247   5.411   8.526 -2.2125  1.4826  0.8256
   73CHL1    C3 7809   5.602   0.392   6.973  0.6086 -0.3516  0.6167
   73CHL1    H3 7810   5.643   0.289   6.964 -0.9314 -0.9937  0.6792
   73CHL1    O3 7811   5.560   0.419   6.847  0.1722 -0.0191 -0.5074
   73CHL1   H3' 7812   5.641   0.424   6.796  0.2656 -0.9950 -0.4735
   73CHL1    C4 7813   5.477   0.397   7.061  0.6505  0.3881 -0.1204
   73CHL1   H4A 7814   5.422   0.493   7.072  0.4344  0.1053  1.7139
   73CHL1   H4B 7815   5.406   0.324   7.016 -0.4320  1.9249 -0.9842
   73CHL1    C5 7816   5.516   0.361   7.205 -0.3748  0.1353  0.4546
   73CHL1    C6 7817   5.464   0.249   7.258  0.4572 -0.4372  0.3868
   73CHL1    H6 7818   5.386   0.199   7.199  0.4181  1.6042 -1.3952
   73CHL1    C7 7819   5.503   0.200   7.395 -0.1862 -0.5403 -0.0189
   73CHL1   H7A 7820   5.409   0.180   7.451 -1.3516  2.9746 -0.4233
   73CHL1   H7B 7821   5.574   0.115   7.391  2.0524  1.0779  2.2779
   73CHL1    C8 7822   5.583   0.309   7.476 -0.9636 -0.2893  0.6093
   73CHL1    H8 7823   5.514   0.385   7.518 -0.8073  0.9516 -1.3052
   73CHL1   C14 7824   5.652   0.237   7.597 -0.0537 -0.6003  0.4511
   73CHL1   H14 7825   5.716   0.159   7.551 -0.9051 -0.4287 -1.0917
   73CHL1   C15 7826   5.560   0.161   7.695 -0.2838 -0.0083 -0.1073
   73CHL1  H15A 7827   5.471   0.223   7.720 -0.9064 -0.8286 -0.2628
   73CHL1  H15B 7828   5.525   0.070   7.643 -0.4943  0.3665 -0.6223
   73CHL1   C16 7829   5.641   0.141   7.821 -0.9207 -0.1808 -0.2944
   73CHL1  H16A 7830   5.586   0.155   7.917 -1.3461 -2.8988 -0.0572
   73CHL1  H16B 7831   5.681   0.038   7.827 -1.0551 -0.2010  0.3042
   73CHL1   C17 7832   5.772   0.229   7.803  0.0845  0.1657  0.1704
   73CHL1   H17 7833   5.837   0.159   7.747 -1.6906 -0.3484 -1.3469
   73CHL1   C13 7834   5.740   0.326   7.688  0.3940 -0.0083  0.8168
   73CHL1   C18 7835   5.652   0.441   7.751  0.0338  0.2367 -0.4179
   73CHL1  H18A 7836   5.567   0.402   7.812 -1.9057  2.0623 -1.8318
   73CHL1  H18B 7837   5.705   0.517   7.813  2.9583 -1.8096 -0.2156
   73CHL1  H18C 7838   5.592   0.504   7.682 -1.0789  3.1920  2.9482
   73CHL1   C12 7839   5.846   0.391   7.600  0.3978 -0.6310  0.8043
   73CHL1  H12A 7840   5.911   0.464   7.653 -1.8960  0.7090  1.9321
   73CHL1  H12B 7841   5.910   0.312   7.555 -1.6930 -3.2599  2.1413
   73CHL1   C11 7842   5.781   0.469   7.480  0.5814  0.3558 -0.0134
   73CHL1  H11A 7843   5.718   0.550   7.523 -0.0222 -1.3447  2.5559
   73CHL1  H11B 7844   5.863   0.519   7.425  2.0366  0.7009  2.3355
   73CHL1    C9 7845   5.690   0.379   7.392  0.3290  0.0050  0.6507
   73CHL1    H9 7846   5.750   0.293   7.354  1.2016 -0.5840  3.1820
   73CHL1   C10 7847   5.640   0.445   7.260  0.7707  0.0902  0.1129
   73CHL1   C19 7848   5.588   0.586   7.286  0.4696  1.1798  0.4049
   73CHL1  H19A 7849   5.678   0.649   7.301  0.5445  0.5817  2.8889
   73CHL1  H19B 7850   5.540   0.632   7.197  0.5570 -0.2230 -0.3989
   73CHL1  H19C 7851   5.529   0.585   7.380  2.2660 -0.5079  1.5885
   73CHL1    C1 7852   5.758   0.452   7.160  0.5867 -0.8178  0.2683
   73CHL1   H1A 7853   5.830   0.528   7.196  2.4536 -1.4028 -2.0447
   73CHL1   H1B 7854   5.817   0.358   7.148 -0.4105 -1.1851 -2.2493
   73CHL1    C2 7855   5.704   0.496   7.018 -0.4590 -0.3155 -0.7362
   73CHL1   H2A 7856   5.795   0.516   6.958  0.0451 -0.9319 -0.2078
   73CHL1   H2B 7857   5.652   0.593   7.029 -0.7227 -0.4301 -0.9727
   73CHL1   C20 7858   5.858   0.261   7.929  0.4788  0.5553 -0.0651
   73CHL1   H20 7859   5.793   0.334   7.983 -3.0372 -1.8419 -0.6887
   73CHL1   C21 7860   5.994   0.323   7.881 -0.2251  0.7930  0.0807
   73CHL1  H21A 7861   5.980   0.418   7.825 -2.7601 -1.1834 -3.0060
   73CHL1  H21B 7862   6.055   0.254   7.820  0.3998  0.7110  0.7826
   73CHL1  H21C 7863   6.059   0.332   7.971  0.2810 -0.7405 -0.1109
   73CHL1   C22 7864   5.867   0.146   8.036 -0.0291 -0.1271  0.3542
   73CHL1  H22A 7865   5.764   0.105   8.051 -0.4400  0.0681 -1.6579
   73CHL1  H22B 7866   5.935   0.070   7.991 -0.2586 -1.0746  1.5339
   73CHL1   C23 7867   5.914   0.186   8.178 -0.3466  0.4463 -0.1669
   73CHL1  H23A 7868   6.022   0.210   8.175  0.5171 -2.6353  1.6220
   73CHL1  H23B 7869   5.848   0.267   8.215 -1.9406 -1.8453  2.3701
   73CHL1   C24 7870   5.892   0.073   8.275  0.2900 -0.0106 -0.6336
   73CHL1  H24A 7871   5.908   0.107   8.379  0.4780  1.3914 -1.1021
   73CHL1  H24B 7872   5.783   0.048   8.276  0.2542  0.1549 -0.3551
   73CHL1   C25 7873   5.967  -0.053   8.239 -0.5483 -0.1112 -0.6254
   73CHL1   H25 7874   5.957  -0.071   8.130 -0.8396  0.6350 -0.7252
   73CHL1   C26 7875   6.117  -0.034   8.258 -0.2604 -0.2509 -0.0372
   73CHL1  H26A 7876   6.167  -0.127   8.224  1.8623  0.8721 -0.1582
   73CHL1  H26B 7877   6.154   0.045   8.189  0.0826 -0.1311  0.2802
   73CHL1  H26C 7878   6.150   0.001   8.358 -0.0756  3.4150 -1.2520
   73CHL1   C27 7879   5.917  -0.176   8.317  0.3706 -0.3947  0.5429
   73CHL1  H27A 7880   5.808  -0.194   8.306  0.0254  1.1338  1.2257
   73CHL1  H27B 7881   5.980  -0.265   8.299  0.2802 -0.2149 -0.8069
   73CHL1  H27C 7882   5.923  -0.170   8.427 -0.0898  2.4111  0.5035
   74CHL1    C3 7883   0.606   6.296   6.921 -0.4317 -0.2672  0.2396
   74CHL1    H3 7884   0.624   6.187   6.935  1.0443 -0.5803 -3.1840
   74CHL1    O3 7885   0.601   6.338   6.783 -0.0298 -0.4662  0.3195
   74CHL1   H3' 7886   0.666   6.286   6.735  0.2101  1.0142 -1.0106
   74CHL1    C4 7887   0.478   6.346   6.986 -0.4635 -0.5725 -0.2871
   74CHL1   H4A 7888   0.464   6.452   6.956 -2.4479 -0.3253  1.2164
   74CHL1   H4B 7889   0.392   6.290   6.944 -0.9771 -1.7236  2.1015
   74CHL1    C5 7890   0.482   6.337   7.139  1.1134  1.2719 -1.0261
   74CHL1    C6 7891   0.382   6.273   7.201  0.4790 -0.2171 -0.3056
   74CHL1    H6 7892   0.295   6.233   7.146  2.0382 -1.5571 -1.9135
   74CHL1    C7 7893   0.370   6.229   7.345  0.3005  0.5679 -0.0583
   74CHL1   H7A 7894   0.266   6.247   7.379  0.3834  2.6874 -0.8068
   74CHL1   H7B 7895   0.390   6.120   7.355  0.4211  0.7524  2.2818
   74CHL1    C8 7896   0.474   6.314   7.432  0.1719  0.1628 -0.6040
   74CHL1    H8 7897   0.435   6.417   7.444  3.0362  1.0862  2.0691
   74CHL1   C14 7898   0.498   6.239   7.564  0.4782  0.5990  0.9353
   74CHL1   H14 7899   0.545   6.141   7.540 -1.9588 -0.5961  0.6297
   74CHL1   C15 7900   0.374   6.189   7.635  0.2738  0.3295 -0.3357
   74CHL1  H15A 7901   0.282   6.252   7.629  0.0213 -0.0954 -0.9847
   74CHL1  H15B 7902   0.347   6.092   7.590 -0.8315  0.3710  0.2036
   74CHL1   C16 7903   0.424   6.170   7.775 -0.5254  0.5970 -0.0660
   74CHL1  H16A 7904   0.381   6.250   7.838 -1.6205 -0.2959  0.3474
   74CHL1  H16B 7905   0.411   6.070   7.821 -0.9160  1.0978  0.9413
   74CHL1   C17 7906   0.583   6.199   7.764  0.6698  0.3550 -0.1221
   74CHL1   H17 7907   0.633   6.104   7.738  0.2570 -0.0362  0.4936
   74CHL1   C13 7908   0.597   6.298   7.653  0.3355  0.4491 -0.6913
   74CHL1   C18 7909   0.546   6.434   7.698  0.2919  0.3257 -0.9857
   74CHL1  H18A 7910   0.613   6.478   7.775 -2.6521  2.8875  0.3400
   74CHL1  H18B 7911   0.530   6.498   7.608  2.2985  1.8112 -0.3563
   74CHL1  H18C 7912   0.445   6.438   7.743  0.0909  0.0024 -1.4039
   74CHL1   C12 7913   0.736   6.313   7.580 -0.1407  0.3681  0.2675
   74CHL1  H12A 7914   0.806   6.360   7.653 -1.3785 -1.5911  2.8922
   74CHL1  H12B 7915   0.768   6.209   7.558 -2.8496 -0.6785  0.8406
   74CHL1   C11 7916   0.719   6.385   7.449 -0.3513  0.1251 -0.1417
   74CHL1  H11A 7917   0.685   6.491   7.460  0.5432  0.5190 -1.0080
   74CHL1  H11B 7918   0.813   6.392   7.391  0.4334 -0.3308  1.0447
   74CHL1    C9 7919   0.604   6.330   7.355 -0.2525  0.4386 -0.5149
   74CHL1    H9 7920   0.641   6.229   7.328 -2.2288  0.1341 -2.4095
   74CHL1   C10 7921   0.604   6.391   7.212  0.4049  0.4901 -0.1917
   74CHL1   C19 7922   0.591   6.545   7.216  0.3423  0.1157  0.3302
   74CHL1  H19A 7923   0.582   6.588   7.114 -0.5328 -1.9373 -0.5408
   74CHL1  H19B 7924   0.496   6.566   7.270  0.1062 -1.6302  0.6829
   74CHL1  H19C 7925   0.680   6.593   7.262  0.2627  0.7918 -0.2018
   74CHL1    C1 7926   0.738   6.348   7.144  0.1308 -0.6135 -0.2096
   74CHL1   H1A 7927   0.831   6.399   7.179  0.3530 -1.4197  0.4089
   74CHL1   H1B 7928   0.768   6.242   7.158  1.9016  0.0188  1.2085
   74CHL1    C2 7929   0.732   6.366   6.989 -0.5421 -0.8924  0.7915
   74CHL1   H2A 7930   0.825   6.319   6.953  0.2226 -1.5901  3.4274
   74CHL1   H2B 7931   0.726   6.472   6.956  0.0960 -1.3009 -0.7041
   74CHL1   C20 7932   0.644   6.238   7.901 -0.2545 -0.8837 -0.0593
   74CHL1   H20 7933   0.594   6.331   7.935  1.3274  0.1637 -0.5150
   74CHL1   C21 7934   0.795   6.266   7.893 -0.1487 -0.0370 -0.0891
   74CHL1  H21A 7935   0.802   6.374   7.868  0.5588  0.0736  0.5482
   74CHL1  H21B 7936   0.856   6.209   7.820 -0.9898 -0.5373 -0.4121
   74CHL1  H21C 7937   0.847   6.265   7.991  0.9473 -1.1206 -0.6658
   74CHL1   C22 7938   0.622   6.133   8.012  0.3700 -0.2412  0.0950
   74CHL1  H22A 7939   0.519   6.098   7.991  0.6200 -0.0875 -1.5504
   74CHL1  H22B 7940   0.693   6.052   7.985 -0.4289  0.0664 -3.4173
   74CHL1   C23 7941   0.650   6.180   8.157 -0.3166  0.3943  0.8225
   74CHL1  H23A 7942   0.622   6.108   8.237  1.6474 -0.1206  1.0981
   74CHL1  H23B 7943   0.759   6.197   8.163 -0.3086  1.7541 -1.8295
   74CHL1   C24 7944   0.582   6.316   8.191  0.5270  0.3587  0.3502
   74CHL1  H24A 7945   0.629   6.401   8.137 -0.0575 -0.0438 -0.8289
   74CHL1  H24B 7946   0.478   6.313   8.153  0.5426 -0.5344  0.3613
   74CHL1   C25 7947   0.592   6.347   8.339  0.3902 -0.3862 -0.1967
   74CHL1   H25 7948   0.563   6.255   8.393  2.7372  0.2080  2.2901
   74CHL1   C26 7949   0.739   6.387   8.389  0.2626  0.2504 -0.1119
   74CHL1  H26A 7950   0.808   6.307   8.355  0.9334  0.6048  0.3825
   74CHL1  H26B 7951   0.783   6.477   8.341 -1.5111  0.1851 -1.9758
   74CHL1  H26C 7952   0.745   6.399   8.500 -0.7689  0.0744 -0.0332
   74CHL1   C27 7953   0.490   6.454   8.372  0.1666  0.0906 -0.5475
   74CHL1  H27A 7954   0.478   6.469   8.481  1.2748 -1.6056 -0.1428
   74CHL1  H27B 7955   0.523   6.548   8.323 -1.8975 -0.0819 -2.4237
   74CHL1  H27C 7956   0.392   6.429   8.324 -0.0609  2.0098 -1.1509
   75CHL1    C3 7957   3.176   2.645   6.739  0.4380 -0.7342  0.5271
   75CHL1    H3 7958   3.226   2.742   6.759 -1.1400  0.8918 -2.6382
   75CHL1    O3 7959   3.193   2.629   6.604  0.0118  0.5816 -0.0529
   75CHL1   H3' 7960   3.157   2.545   6.574  1.7298 -0.0573 -0.4325
   75CHL1    C4 7961   3.252   2.531   6.803 -0.3238 -0.2133 -0.3891
   75CHL1   H4A 7962   3.220   2.435   6.757  0.8353  0.5263 -2.8914
   75CHL1   H4B 7963   3.359   2.534   6.773 -0.3120  2.1583 -0.2643
   75CHL1    C5 7964   3.239   2.538   6.956 -0.5357 -0.6787 -0.3150
   75CHL1    C6 7965   3.347   2.553   7.032 -0.3873  0.4889 -0.2828
   75CHL1    H6 7966   3.443   2.550   6.978 -1.7987  0.6450 -2.9577
   75CHL1    C7 7967   3.342   2.565   7.182 -0.6175  0.1003  0.2114
   75CHL1   H7A 7968   3.413   2.493   7.229 -1.0680 -1.9196 -2.0157
   75CHL1   H7B 7969   3.364   2.672   7.204  0.3876 -0.0515 -0.0086
   75CHL1    C8 7970   3.206   2.525   7.236  0.2138 -0.1615  0.4975
   75CHL1    H8 7971   3.196   2.414   7.235 -0.8683 -0.0731 -0.2616
   75CHL1   C14 7972   3.194   2.567   7.381 -0.1274 -0.0040 -0.4614
   75CHL1   H14 7973   3.204   2.678   7.386 -1.2510  0.0611  1.5477
   75CHL1   C15 7974   3.312   2.532   7.477 -0.0043 -0.1682 -0.3404
   75CHL1  H15A 7975   3.344   2.426   7.479 -0.8402 -0.4125  0.9484
   75CHL1  H15B 7976   3.403   2.594   7.458  0.1921  0.3376  1.9998
   75CHL1   C16 7977   3.264   2.561   7.619 -0.3152 -0.5031  0.5058
   75CHL1  H16A 7978   3.279   2.469   7.680 -1.6121 -0.7403  0.4976
   75CHL1  H16B 7979   3.291   2.654   7.673  0.7781 -1.2503  1.2581
   75CHL1   C17 7980   3.105   2.564   7.599  0.4599  0.1630  0.1727
   75CHL1   H17 7981   3.076   2.671   7.606 -1.1169 -0.3105  1.4787
   75CHL1   C13 7982   3.069   2.527   7.454 -0.1000 -0.0759 -0.2165
   75CHL1   C18 7983   3.053   2.373   7.449 -0.3751 -1.2641  0.5073
   75CHL1  H18A 7984   3.052   2.325   7.348 -0.1794  0.2686 -0.2418
   75CHL1  H18B 7985   3.134   2.322   7.506  0.9707  0.9004  0.6384
   75CHL1  H18C 7986   2.950   2.350   7.482 -1.7489  0.9512 -1.8838
   75CHL1   C12 7987   2.947   2.595   7.386 -0.4774 -0.2975  0.1801
   75CHL1  H12A 7988   2.853   2.556   7.431 -0.0351 -1.2526  0.2933
   75CHL1  H12B 7989   2.950   2.702   7.416 -2.2538 -0.7683  2.3172
   75CHL1   C11 7990   2.953   2.564   7.233  1.0784 -0.2273 -0.0740
   75CHL1  H11A 7991   2.928   2.457   7.222  0.1941 -0.1695  1.1411
   75CHL1  H11B 7992   2.880   2.627   7.178  0.3214 -2.4769 -1.7961
   75CHL1    C9 7993   3.093   2.591   7.160  0.0943  0.2861  0.2719
   75CHL1    H9 7994   3.112   2.700   7.170 -0.9929  0.4999  0.2048
   75CHL1   C10 7995   3.096   2.551   7.010 -0.3172  0.4848  0.1814
   75CHL1   C19 7996   3.045   2.410   6.984 -0.0294  0.0851 -0.3813
   75CHL1  H19A 7997   2.940   2.404   7.022 -0.0358  0.6481 -0.2951
   75CHL1  H19B 7998   3.054   2.374   6.879 -3.3062 -1.9875 -0.1135
   75CHL1  H19C 7999   3.101   2.335   7.044  0.1937  0.2265 -0.4119
   75CHL1    C1 8000   3.012   2.655   6.930  0.0942  0.1655  0.0161
   75CHL1   H1A 8001   2.905   2.653   6.962  0.2555  0.4926  0.6068
   75CHL1   H1B 8002   3.051   2.754   6.962  0.0727  0.6489 -1.3964
   75CHL1    C2 8003   3.024   2.647   6.778  0.0791  0.1484 -0.0592
   75CHL1   H2A 8004   2.962   2.726   6.730 -0.6930  0.5117  1.4493
   75CHL1   H2B 8005   2.978   2.550   6.749  0.5773 -0.7658  2.0135
   75CHL1   C20 8006   3.033   2.499   7.722 -0.4635  0.0800  0.4074
   75CHL1   H20 8007   3.049   2.389   7.712  0.1448  0.2111 -0.1442
   75CHL1   C21 8008   2.890   2.539   7.711  0.3777  0.4967 -0.6742
   75CHL1  H21A 8009   2.833   2.497   7.796  1.7155 -0.2626 -0.1220
   75CHL1  H21B 8010   2.850   2.491   7.619 -1.0184 -0.7490  0.5362
   75CHL1  H21C 8011   2.874   2.648   7.723 -0.5274  0.3494 -0.4977
   75CHL1   C22 8012   3.092   2.548   7.863 -0.3559  0.9172 -0.6914
   75CHL1  H22A 8013   3.202   2.542   7.872 -0.4710 -0.5396  0.1002
   75CHL1  H22B 8014   3.067   2.656   7.869  1.1342  1.3310 -1.3941
   75CHL1   C23 8015   3.044   2.466   7.980  0.2319 -0.1105  0.3797
   75CHL1  H23A 8016   2.937   2.485   8.003  0.5791  3.7227 -0.5353
   75CHL1  H23B 8017   3.050   2.359   7.949 -1.3995 -0.0144 -0.3828
   75CHL1   C24 8018   3.138   2.488   8.097  0.5798  0.4353 -0.2730
   75CHL1  H24A 8019   3.233   2.439   8.067 -0.8412 -3.5725  1.1868
   75CHL1  H24B 8020   3.151   2.597   8.115  1.0932  0.5418 -1.2123
   75CHL1   C25 8021   3.086   2.420   8.229 -0.5742 -0.2237  0.2919
   75CHL1   H25 8022   2.982   2.457   8.243 -0.8244  1.3947 -4.1365
   75CHL1   C26 8023   3.067   2.269   8.205  0.8106  0.1455 -0.2788
   75CHL1  H26A 8024   3.160   2.218   8.172  1.3686  1.6601 -1.1403
   75CHL1  H26B 8025   3.043   2.205   8.293  0.9811  1.4059  0.7064
   75CHL1  H26C 8026   2.992   2.257   8.124  1.1385  1.9187 -0.8895
   75CHL1   C27 8027   3.188   2.452   8.336  0.0524 -0.3313 -0.2650
   75CHL1  H27A 8028   3.206   2.561   8.347 -0.2526 -0.3655  0.6200
   75CHL1  H27B 8029   3.158   2.407   8.433 -3.7132  0.5931 -0.8435
   75CHL1  H27C 8030   3.282   2.404   8.301  0.0035  0.0324 -0.9008
   76CHL1    C3 8031   0.320   1.998   7.226  0.2525 -0.3916 -0.4039
   76CHL1    H3 8032   0.424   2.033   7.247  0.8161 -0.5938 -2.6263
   76CHL1    O3 8033   0.317   1.962   7.088  0.1603 -0.6612  0.5465
   76CHL1   H3' 8034   0.239   2.006   7.052  0.9381  1.2776  1.0957
   76CHL1    C4 8035   0.266   1.880   7.306 -0.3548  0.1129 -0.1124
   76CHL1   H4A 8036   0.166   1.851   7.267 -0.0218 -0.9293 -0.2062
   76CHL1   H4B 8037   0.328   1.789   7.290 -0.7052 -0.0024 -0.8845
   76CHL1    C5 8038   0.244   1.916   7.452  0.1247  0.0417  0.4070
   76CHL1    C6 8039   0.309   1.840   7.546 -0.2058 -0.0424 -0.5047
   76CHL1    H6 8040   0.369   1.755   7.510 -1.8732 -0.0520 -3.6262
   76CHL1    C7 8041   0.298   1.864   7.693 -0.4389  0.2893  0.3084
   76CHL1   H7A 8042   0.277   1.764   7.737 -0.3325  0.3537  0.5099
   76CHL1   H7B 8043   0.396   1.900   7.730  0.3730  0.0238 -1.5121
   76CHL1    C8 8044   0.187   1.967   7.722  0.6656 -0.6484 -0.2221
   76CHL1    H8 8045   0.088   1.917   7.715 -0.8357  2.0503  0.3141
   76CHL1   C14 8046   0.198   2.021   7.858  0.3063 -0.0420 -0.9916
   76CHL1   H14 8047   0.295   2.075   7.860  0.3372 -0.0216  2.0034
   76CHL1   C15 8048   0.206   1.919   7.974 -0.1509  0.1477 -0.0483
   76CHL1  H15A 8049   0.135   1.839   7.946  0.3336 -0.5120  0.5734
   76CHL1  H15B 8050   0.306   1.871   7.987 -1.0310 -1.3590  1.5361
   76CHL1   C16 8051   0.179   2.005   8.096 -0.3149 -1.0371 -0.7501
   76CHL1  H16A 8052   0.112   1.940   8.156  1.2576 -0.9629  1.1519
   76CHL1  H16B 8053   0.266   2.019   8.163 -1.6313  1.2770  0.6351
   76CHL1   C17 8054   0.131   2.142   8.044 -0.0053  0.1321 -0.7218
   76CHL1   H17 8055   0.218   2.210   8.041 -0.9506  1.3741 -0.9834
   76CHL1   C13 8056   0.097   2.118   7.904  0.0024 -0.7725  0.3918
   76CHL1   C18 8057  -0.048   2.050   7.898  0.3364  0.7611 -0.7145
   76CHL1  H18A 8058  -0.062   1.977   7.980 -0.7974  1.3860 -0.3188
   76CHL1  H18B 8059  -0.110   2.140   7.918  1.3487  1.2247  0.4533
   76CHL1  H18C 8060  -0.071   2.013   7.796  1.8014  1.0089 -1.1626
   76CHL1   C12 8061   0.109   2.241   7.809 -0.2878 -0.2034 -0.1129
   76CHL1  H12A 8062   0.032   2.315   7.841  0.7381  1.1497 -0.6915
   76CHL1  H12B 8063   0.209   2.285   7.827 -0.5171 -0.7540  3.0926
   76CHL1   C11 8064   0.089   2.201   7.664 -0.3117  0.0910 -0.1895
   76CHL1  H11A 8065  -0.015   2.183   7.631  0.0294 -0.6903 -0.8720
   76CHL1  H11B 8066   0.116   2.293   7.607 -1.7566  0.5776 -0.1172
   76CHL1    C9 8067   0.186   2.084   7.626 -0.2054  0.5088  0.4122
   76CHL1    H9 8068   0.283   2.136   7.641  0.3089 -1.1659  3.8868
   76CHL1   C10 8069   0.168   2.046   7.479 -0.2165  0.0764 -0.1264
   76CHL1   C19 8070   0.024   2.018   7.458  1.0901  0.2585  0.2365
   76CHL1  H19A 8071  -0.031   1.963   7.538  1.0709 -1.2985 -0.8119
   76CHL1  H19B 8072  -0.033   2.113   7.456  0.0544 -0.3581 -2.0180
   76CHL1  H19C 8073   0.003   1.969   7.361 -0.0446 -0.9066  1.0279
   76CHL1    C1 8074   0.214   2.166   7.390 -0.4880 -0.0988  0.5069
   76CHL1   H1A 8075   0.136   2.245   7.391  1.6843  2.1603  0.5377
   76CHL1   H1B 8076   0.312   2.210   7.417  0.5066 -0.5919 -1.9981
   76CHL1    C2 8077   0.232   2.127   7.247 -0.2713  0.2917  0.1585
   76CHL1   H2A 8078   0.289   2.206   7.194  2.0910 -0.8148  0.9055
   76CHL1   H2B 8079   0.131   2.122   7.200 -0.9870  2.4316  1.3062
   76CHL1   C20 8080   0.031   2.223   8.131  0.3340 -0.1468 -0.7491
   76CHL1   H20 8081  -0.031   2.281   8.059  3.1657  1.9857 -1.6802
   76CHL1   C21 8082   0.103   2.334   8.213  0.4757 -0.0394  0.2385
   76CHL1  H21A 8083   0.043   2.412   8.265  0.7978  0.4887 -0.1642
   76CHL1  H21B 8084   0.180   2.389   8.153  1.9423 -0.7681  1.3774
   76CHL1  H21C 8085   0.167   2.283   8.288 -1.9295 -0.6361  1.9815
   76CHL1   C22 8086  -0.060   2.130   8.222  0.4437 -0.6240 -0.1167
   76CHL1  H22A 8087  -0.125   2.062   8.162 -0.9233 -0.1789  0.8109
   76CHL1  H22B 8088  -0.014   2.067   8.301 -0.1348 -0.4942  0.3311
   76CHL1   C23 8089  -0.167   2.214   8.295  0.1921  0.2970  0.1530
   76CHL1  H23A 8090  -0.131   2.268   8.385  2.6308  1.1367 -1.2485
   76CHL1  H23B 8091  -0.208   2.294   8.229 -0.1557 -0.8316 -1.0468
   76CHL1   C24 8092  -0.283   2.130   8.342  0.5384  0.2431 -0.1375
   76CHL1  H24A 8093  -0.343   2.109   8.251  2.0126 -0.8717 -0.9057
   76CHL1  H24B 8094  -0.249   2.030   8.377  0.2190  0.8808  2.1605
   76CHL1   C25 8095  -0.364   2.206   8.452 -0.2070  0.2323 -0.1846
   76CHL1   H25 8096  -0.367   2.312   8.419  1.2850  0.5906  0.7371
   76CHL1   C26 8097  -0.502   2.149   8.434  1.0242  0.2217 -0.2727
   76CHL1  H26A 8098  -0.511   2.046   8.475 -0.8252  1.3268  2.3911
   76CHL1  H26B 8099  -0.571   2.198   8.506  0.2652 -0.9312 -0.1966
   76CHL1  H26C 8100  -0.553   2.160   8.335 -0.2669  0.5809  0.4018
   76CHL1   C27 8101  -0.321   2.185   8.600  0.5723 -0.2435 -0.7513
   76CHL1  H27A 8102  -0.335   2.078   8.628  0.3136  0.0793  0.4044
   76CHL1  H27B 8103  -0.211   2.194   8.615  0.4017  0.3394  0.1988
   76CHL1  H27C 8104  -0.376   2.253   8.668  1.5111 -0.0050 -0.2122
   77CHL1    C3 8105   3.207   1.840   6.769  0.5238 -0.7892  0.0348
   77CHL1    H3 8106   3.303   1.892   6.749  0.9459 -0.9911  1.4028
   77CHL1    O3 8107   3.152   1.799   6.639  0.1353  0.5558 -0.4100
   77CHL1   H3' 8108   3.094   1.869   6.611 -0.7676 -0.8215 -2.1733
   77CHL1    C4 8109   3.228   1.714   6.854  0.1505 -0.7969 -0.3737
   77CHL1   H4A 8110   3.136   1.651   6.858  0.4971 -1.2634  0.4991
   77CHL1   H4B 8111   3.305   1.660   6.796  0.7952 -1.5147  1.0865
   77CHL1    C5 8112   3.274   1.734   6.997  0.1200  0.3825 -0.1517
   77CHL1    C6 8113   3.385   1.677   7.054  0.1831  0.0405  1.1074
   77CHL1    H6 8114   3.461   1.614   7.005 -1.0257 -3.0359  2.9033
   77CHL1    C7 8115   3.423   1.699   7.196 -0.8265 -0.2922 -0.0688
   77CHL1   H7A 8116   3.452   1.605   7.246 -0.9005 -0.6959 -0.7710
   77CHL1   H7B 8117   3.510   1.768   7.203 -1.7200  0.7120  1.9230
   77CHL1    C8 8118   3.312   1.761   7.290  0.2245  0.3294  0.3031
   77CHL1    H8 8119   3.242   1.681   7.324 -1.3806  1.3986 -0.3751
   77CHL1   C14 8120   3.374   1.825   7.408 -0.7125  0.4222  0.0533
   77CHL1   H14 8121   3.451   1.893   7.365  1.3456 -1.9431 -0.2165
   77CHL1   C15 8122   3.459   1.725   7.489 -0.0894 -0.2485  0.1736
   77CHL1  H15A 8123   3.410   1.626   7.504 -5.0747  1.8089 -0.9382
   77CHL1  H15B 8124   3.560   1.709   7.444  0.0073 -2.2142  0.9811
   77CHL1   C16 8125   3.469   1.793   7.628 -0.1401 -0.3160 -0.6111
   77CHL1  H16A 8126   3.431   1.719   7.702 -0.6990  2.1701  1.7397
   77CHL1  H16B 8127   3.574   1.815   7.659 -0.6204  1.1517  0.0565
   77CHL1   C17 8128   3.384   1.930   7.626 -0.3113 -0.1589  0.2476
   77CHL1   H17 8129   3.448   2.012   7.588  1.2069 -0.5371  1.8597
   77CHL1   C13 8130   3.283   1.892   7.514  0.7734  0.3062 -0.0230
   77CHL1   C18 8131   3.183   1.790   7.572  0.0947  0.1429 -0.0775
   77CHL1  H18A 8132   3.115   1.744   7.497 -1.7923 -1.3198  2.3866
   77CHL1  H18B 8133   3.234   1.700   7.612 -1.2953 -1.5263 -1.8511
   77CHL1  H18C 8134   3.110   1.838   7.641  0.9818 -1.0243  1.7529
   77CHL1   C12 8135   3.206   2.001   7.438 -0.3653  0.3892 -0.0603
   77CHL1  H12A 8136   3.123   2.038   7.501 -0.8481 -1.8910  0.7604
   77CHL1  H12B 8137   3.277   2.078   7.401 -0.3767 -1.0085 -3.3604
   77CHL1   C11 8138   3.141   1.941   7.306 -0.8470  0.2651 -0.2197
   77CHL1  H11A 8139   3.058   1.876   7.341  0.3297  0.1649  2.6070
   77CHL1  H11B 8140   3.099   2.030   7.253 -1.5850  0.3089  0.4090
   77CHL1    C9 8141   3.238   1.868   7.211  0.0033 -0.4967 -0.0439
   77CHL1    H9 8142   3.309   1.952   7.197 -2.2850  1.3636 -1.3265
   77CHL1   C10 8143   3.184   1.831   7.076 -0.3500  0.2558  0.1128
   77CHL1   C19 8144   3.047   1.759   7.104  0.1607 -0.6535  0.2766
   77CHL1  H19A 8145   2.976   1.834   7.145 -0.7065 -0.7136 -1.0429
   77CHL1  H19B 8146   3.006   1.732   7.004 -1.8881 -1.9915  1.4053
   77CHL1  H19C 8147   3.063   1.664   7.158 -1.0453 -1.5012 -0.8006
   77CHL1    C1 8148   3.170   1.963   6.990  0.5027 -0.4189 -0.7867
   77CHL1   H1A 8149   3.094   2.016   7.051 -0.7066 -1.1415 -1.6154
   77CHL1   H1B 8150   3.262   2.023   6.975 -0.0675  0.4121 -0.9922
   77CHL1    C2 8151   3.111   1.934   6.851  0.0593 -0.0945 -0.7352
   77CHL1   H2A 8152   3.104   2.035   6.804  0.1610  0.2965  0.0639
   77CHL1   H2B 8153   3.008   1.902   6.876  0.5979  0.5232  2.7505
   77CHL1   C20 8154   3.332   1.964   7.769 -0.5672 -0.2002  0.4636
   77CHL1   H20 8155   3.227   1.928   7.783 -1.0415  1.3159  1.0147
   77CHL1   C21 8156   3.336   2.115   7.768 -0.4262 -0.1530  0.0692
   77CHL1  H21A 8157   3.279   2.152   7.856  2.0288  0.3154  1.5593
   77CHL1  H21B 8158   3.276   2.157   7.685 -2.9144 -1.2118  1.2376
   77CHL1  H21C 8159   3.438   2.158   7.769  0.6960 -2.4123  3.9800
   77CHL1   C22 8160   3.414   1.917   7.886  0.5996 -0.1949 -0.8243
   77CHL1  H22A 8161   3.398   1.807   7.900 -1.1225 -0.1052 -1.7879
   77CHL1  H22B 8162   3.523   1.925   7.867  0.2062  0.7545 -2.8669
   77CHL1   C23 8163   3.369   1.980   8.030 -0.2595  0.5574  0.3296
   77CHL1  H23A 8164   3.444   2.062   8.040 -0.3116  0.7379 -0.6682
   77CHL1  H23B 8165   3.265   2.019   8.020  0.2664  1.9005 -0.2758
   77CHL1   C24 8166   3.405   1.895   8.146 -0.4714  0.0289 -0.7408
   77CHL1  H24A 8167   3.363   1.793   8.134  1.3015 -0.4734 -3.7850
   77CHL1  H24B 8168   3.514   1.874   8.149 -0.2834  0.9254  2.4276
   77CHL1   C25 8169   3.359   1.950   8.289 -0.0827 -0.1648  0.5075
   77CHL1   H25 8170   3.404   2.052   8.288  2.1342 -1.0853  1.3445
   77CHL1   C26 8171   3.202   1.957   8.306 -0.8811 -0.1485 -0.2321
   77CHL1  H26A 8172   3.157   2.002   8.215 -0.0972  0.6919 -0.2136
   77CHL1  H26B 8173   3.168   1.857   8.341 -0.6160  0.3111  1.4159
   77CHL1  H26C 8174   3.179   2.014   8.398  1.9121 -1.3755  1.3704
   77CHL1   C27 8175   3.430   1.873   8.399 -0.4822 -0.2351 -0.6713
   77CHL1  H27A 8176   3.402   1.920   8.495  0.6837  1.4145 -1.0824
   77CHL1  H27B 8177   3.418   1.763   8.399 -0.6218 -0.3203 -4.0958
   77CHL1  H27C 8178   3.538   1.897   8.387 -0.4352 -0.2377 -0.2587
   78CHL1    C3 8179   2.674   3.051   6.974 -0.3599 -0.0019  1.1934
   78CHL1    H3 8180   2.742   3.139   6.973 -2.2155  1.5274  1.7236
   78CHL1    O3 8181   2.648   3.002   6.846 -0.0860  0.2430 -0.2349
   78CHL1   H3' 8182   2.569   3.044   6.811 -0.4171  0.3552  0.6046
   78CHL1    C4 8183   2.736   2.937   7.050 -0.0431  0.2881  0.1194
   78CHL1   H4A 8184   2.670   2.848   7.048 -0.4225  0.4484  2.7305
   78CHL1   H4B 8185   2.821   2.897   6.991 -1.1185  0.6506 -1.7595
   78CHL1    C5 8186   2.773   2.975   7.191  0.1939 -1.2320 -0.3859
   78CHL1    C6 8187   2.898   2.969   7.238 -0.7261  0.3710 -0.3854
   78CHL1    H6 8188   2.985   2.944   7.175 -0.1878 -2.4101  1.2696
   78CHL1    C7 8189   2.936   3.000   7.377 -0.4859  0.1539 -0.2257
   78CHL1   H7A 8190   3.010   2.922   7.405  0.8310  0.5029 -2.4676
   78CHL1   H7B 8191   2.989   3.097   7.377 -1.6968  0.8806  1.9083
   78CHL1    C8 8192   2.809   2.999   7.470  0.1063  0.7688  0.0048
   78CHL1    H8 8193   2.774   2.894   7.485  1.0287  0.4950  0.3001
   78CHL1   C14 8194   2.853   3.057   7.606 -0.0277  0.2413  0.3926
   78CHL1   H14 8195   2.897   3.158   7.592  0.9436 -0.2466 -0.2013
   78CHL1   C15 8196   2.962   2.980   7.677  0.0689  0.5633 -0.1543
   78CHL1  H15A 8197   2.969   2.870   7.665 -0.1457  0.5308  0.0074
   78CHL1  H15B 8198   3.060   3.024   7.652  1.7599 -0.7312  3.5080
   78CHL1   C16 8199   2.944   3.021   7.823 -0.3365 -0.0128  0.2324
   78CHL1  H16A 8200   2.932   2.930   7.887 -1.1443  0.0966  0.2459
   78CHL1  H16B 8201   3.020   3.085   7.872 -0.1388 -0.0580 -0.0132
   78CHL1   C17 8202   2.808   3.103   7.831  0.6228  0.9399  0.1877
   78CHL1   H17 8203   2.830   3.211   7.822  1.4696  0.9133  1.6327
   78CHL1   C13 8204   2.737   3.061   7.703  0.2038  0.2724 -0.4149
   78CHL1   C18 8205   2.673   2.922   7.723  0.8609 -0.1935  0.0781
   78CHL1  H18A 8206   2.592   2.934   7.797 -0.1237 -1.2870 -0.7928
   78CHL1  H18B 8207   2.618   2.877   7.637  0.4337 -1.7373  1.1323
   78CHL1  H18C 8208   2.740   2.841   7.760  1.2231 -0.1544 -0.4745
   78CHL1   C12 8209   2.640   3.166   7.637  0.2532 -0.3759 -0.3093
   78CHL1  H12A 8210   2.554   3.191   7.703 -1.1540  0.1881 -2.2769
   78CHL1  H12B 8211   2.702   3.256   7.615 -1.1776  1.2164  1.7590
   78CHL1   C11 8212   2.589   3.125   7.498 -0.4267  0.6439  0.0441
   78CHL1  H11A 8213   2.513   3.044   7.509 -1.0825  1.4507  1.8754
   78CHL1  H11B 8214   2.533   3.209   7.453 -0.7939 -1.6017 -4.0983
   78CHL1    C9 8215   2.694   3.087   7.400 -0.3238  0.4471 -0.7975
   78CHL1    H9 8216   2.741   3.185   7.375 -1.7975  1.5199  0.4600
   78CHL1   C10 8217   2.642   3.023   7.268  0.0041  0.3792 -0.4127
   78CHL1   C19 8218   2.554   2.900   7.299 -0.0028 -0.6117 -0.3798
   78CHL1  H19A 8219   2.520   2.848   7.207  0.6384 -0.7686 -0.5306
   78CHL1  H19B 8220   2.607   2.824   7.361 -2.7104 -2.8602 -0.5951
   78CHL1  H19C 8221   2.465   2.924   7.361 -0.7877  0.0508 -1.7071
   78CHL1    C1 8222   2.562   3.131   7.191  0.6482 -0.8508 -0.5111
   78CHL1   H1A 8223   2.462   3.154   7.233  1.0678 -0.9735  0.5711
   78CHL1   H1B 8224   2.618   3.227   7.195 -0.0858 -0.4316 -0.1501
   78CHL1    C2 8225   2.544   3.094   7.039 -0.0339  0.2339 -0.1004
   78CHL1   H2A 8226   2.496   3.178   6.983  1.8243  0.9997 -0.6154
   78CHL1   H2B 8227   2.477   3.005   7.042  1.1413 -0.6442  2.0013
   78CHL1   C20 8228   2.736   3.083   7.971 -0.1632 -0.1562 -0.0929
   78CHL1   H20 8229   2.690   2.982   7.973  2.3079 -1.3533  0.5845
   78CHL1   C21 8230   2.633   3.193   7.993 -0.0443 -0.1286 -0.1290
   78CHL1  H21A 8231   2.688   3.288   8.009  1.4461 -1.1267  0.9240
   78CHL1  H21B 8232   2.568   3.178   8.082  0.3438  1.4978  0.4499
   78CHL1  H21C 8233   2.570   3.216   7.904  0.9517  0.3274 -0.7306
   78CHL1   C22 8234   2.830   3.084   8.098 -0.0172 -0.4736  0.2053
   78CHL1  H22A 8235   2.898   2.999   8.081  0.1412 -0.1022 -1.1072
   78CHL1  H22B 8236   2.882   3.182   8.091 -1.6670  0.3507 -1.5660
   78CHL1   C23 8237   2.753   3.049   8.223 -0.0722 -0.2622 -0.1236
   78CHL1  H23A 8238   2.688   3.136   8.246  2.9893  2.5550 -1.3503
   78CHL1  H23B 8239   2.692   2.956   8.218 -0.2487 -0.5067  3.7150
   78CHL1   C24 8240   2.849   3.024   8.351 -0.4904 -0.1566  0.3744
   78CHL1  H24A 8241   2.911   3.116   8.359 -0.4904  0.0801 -1.7330
   78CHL1  H24B 8242   2.780   3.019   8.439 -1.6214 -1.9406 -0.5640
   78CHL1   C25 8243   2.942   2.897   8.338 -0.6873  0.2270 -0.1448
   78CHL1   H25 8244   2.899   2.820   8.271  3.0190 -2.9724  0.7487
   78CHL1   C26 8245   3.083   2.934   8.299 -0.0706 -0.8998 -0.0686
   78CHL1  H26A 8246   3.075   2.986   8.202 -1.7972  0.1312  0.5792
   78CHL1  H26B 8247   3.128   3.000   8.377  2.0171 -1.4774 -0.7187
   78CHL1  H26C 8248   3.133   2.837   8.280 -1.0833 -1.1779 -1.4341
   78CHL1   C27 8249   2.943   2.832   8.477  0.4486  0.1000  0.6090
   78CHL1  H27A 8250   2.965   2.904   8.559 -1.2804  0.3779  0.8732
   78CHL1  H27B 8251   2.839   2.797   8.492 -0.0933  1.0649 -0.6882
   78CHL1  H27C 8252   3.015   2.748   8.487 -1.5498 -1.8351 -0.4410
   79CHL1    C3 8253   1.687   2.470   7.155 -0.8281  0.1337 -1.0220
   79CHL1    H3 8254   1.795   2.448   7.169 -1.0413  0.1706  0.9669
   79CHL1    O3 8255   1.673   2.491   7.011  0.1602  0.1622  0.1184
   79CHL1   H3' 8256   1.583   2.524   7.006 -0.2259 -0.9956 -1.3355
   79CHL1    C4 8257   1.605   2.351   7.202  0.6280  0.3201  0.3472
   79CHL1   H4A 8258   1.501   2.361   7.165  1.1229  0.0533 -1.1655
   79CHL1   H4B 8259   1.650   2.268   7.144 -1.5608 -0.1583 -0.7504
   79CHL1    C5 8260   1.593   2.330   7.349  0.3466 -0.0279 -0.0711
   79CHL1    C6 8261   1.601   2.207   7.398 -0.2916  0.1794  0.0264
   79CHL1    H6 8262   1.612   2.123   7.328  0.3265  2.4655 -2.8128
   79CHL1    C7 8263   1.591   2.170   7.543  0.1891 -0.0903 -0.1237
   79CHL1   H7A 8264   1.521   2.085   7.560  0.5594 -0.3510  0.1209
   79CHL1   H7B 8265   1.691   2.141   7.582  0.9903  0.3338 -1.7986
   79CHL1    C8 8266   1.549   2.287   7.636  0.3331 -0.9312  0.8336
   79CHL1    H8 8267   1.440   2.298   7.616  0.6697 -0.8778 -1.2746
   79CHL1   C14 8268   1.588   2.262   7.781 -0.1593  0.2249 -0.1213
   79CHL1   H14 8269   1.699   2.263   7.775 -0.2067  1.3531 -1.3725
   79CHL1   C15 8270   1.544   2.128   7.851  0.0805 -0.8222  0.2521
   79CHL1  H15A 8271   1.450   2.081   7.817  0.5942 -0.7996 -1.2921
   79CHL1  H15B 8272   1.628   2.062   7.821  3.8336  3.6693 -0.3672
   79CHL1   C16 8273   1.554   2.158   8.000 -0.6561 -0.0098 -0.0020
   79CHL1  H16A 8274   1.450   2.157   8.039 -0.9575 -2.0804 -0.7350
   79CHL1  H16B 8275   1.619   2.087   8.055 -0.3584  0.2897  0.0342
   79CHL1   C17 8276   1.602   2.302   8.008 -0.8001  0.6389 -0.6856
   79CHL1   H17 8277   1.713   2.303   7.996 -0.4699 -0.7839  1.6856
   79CHL1   C13 8278   1.551   2.372   7.882 -0.4462 -0.4210 -0.1486
   79CHL1   C18 8279   1.401   2.392   7.888  0.4343 -0.4214  0.3659
   79CHL1  H18A 8280   1.338   2.306   7.920 -0.9564  0.7751  0.9508
   79CHL1  H18B 8281   1.378   2.482   7.948  1.2813  0.4768 -0.6227
   79CHL1  H18C 8282   1.359   2.424   7.790  1.7243  1.8359  0.4963
   79CHL1   C12 8283   1.629   2.497   7.833 -0.3421  0.0868 -0.3061
   79CHL1  H12A 8284   1.613   2.584   7.901 -1.3567 -0.3875  0.0708
   79CHL1  H12B 8285   1.739   2.477   7.831 -0.7735 -2.9946  1.0227
   79CHL1   C11 8286   1.591   2.531   7.692 -0.7712  0.4555  0.9936
   79CHL1  H11A 8287   1.485   2.563   7.695 -0.8341  0.3026  0.5102
   79CHL1  H11B 8288   1.645   2.623   7.660 -1.1386 -0.5953 -3.2717
   79CHL1    C9 8289   1.622   2.420   7.589  0.3406  0.0914  0.1884
   79CHL1    H9 8290   1.732   2.406   7.590  0.6308  1.9986  1.9118
   79CHL1   C10 8291   1.585   2.458   7.437  0.3977 -0.0778 -0.2265
   79CHL1   C19 8292   1.438   2.493   7.422 -0.0406  0.1558 -0.3832
   79CHL1  H19A 8293   1.418   2.579   7.490 -2.3740 -0.2747 -0.4692
   79CHL1  H19B 8294   1.409   2.534   7.323 -1.2195  2.0263  0.6729
   79CHL1  H19C 8295   1.357   2.426   7.456 -0.4869  0.8100 -0.1391
   79CHL1    C1 8296   1.673   2.577   7.389 -0.1553 -0.5165 -0.3480
   79CHL1   H1A 8297   1.626   2.661   7.446  0.3847 -0.7497  0.4560
   79CHL1   H1B 8298   1.770   2.549   7.436 -0.2294 -0.5849 -0.2356
   79CHL1    C2 8299   1.669   2.599   7.240  0.4684 -0.1242  0.1352
   79CHL1   H2A 8300   1.726   2.683   7.194 -0.7518  0.4356 -0.4132
   79CHL1   H2B 8301   1.565   2.632   7.219  0.5097  0.1096  0.2872
   79CHL1   C20 8302   1.566   2.364   8.147  0.5296 -0.0377  0.7633
   79CHL1   H20 8303   1.457   2.376   8.165  0.1641 -0.6215 -0.9100
   79CHL1   C21 8304   1.609   2.513   8.155  0.0170 -0.4216  0.2779
   79CHL1  H21A 8305   1.536   2.577   8.102 -0.8752 -2.1222 -0.6305
   79CHL1  H21B 8306   1.714   2.528   8.122 -0.3828  0.4365 -0.6616
   79CHL1  H21C 8307   1.602   2.553   8.258 -3.1618 -1.3367  0.5116
   79CHL1   C22 8308   1.618   2.282   8.262  0.7288 -0.6261 -0.7929
   79CHL1  H22A 8309   1.593   2.175   8.246 -0.1364 -0.1399 -3.0062
   79CHL1  H22B 8310   1.728   2.286   8.268  0.7265  1.0604 -1.4102
   79CHL1   C23 8311   1.547   2.318   8.396  0.2919  0.5964 -0.1717
   79CHL1  H23A 8312   1.590   2.415   8.429 -0.3402  1.4192 -1.6362
   79CHL1  H23B 8313   1.437   2.329   8.382  0.1713 -0.4372 -0.0965
   79CHL1   C24 8314   1.556   2.205   8.499  0.5374 -0.3541  0.0664
   79CHL1  H24A 8315   1.490   2.123   8.465 -0.4511  0.1030  0.8481
   79CHL1  H24B 8316   1.663   2.176   8.507  0.2000 -2.4230 -1.8166
   79CHL1   C25 8317   1.496   2.247   8.636  0.4689  0.3329 -0.6027
   79CHL1   H25 8318   1.558   2.332   8.673 -1.0211  0.8627  0.8081
   79CHL1   C26 8319   1.343   2.278   8.633  0.4353  0.6881 -0.0993
   79CHL1  H26A 8320   1.319   2.313   8.735 -0.6780 -2.4415  0.8260
   79CHL1  H26B 8321   1.322   2.354   8.554  0.6476  1.3355  0.4606
   79CHL1  H26C 8322   1.277   2.190   8.615 -1.3964  1.5948  1.7761
   79CHL1   C27 8323   1.510   2.131   8.738 -0.3045  0.0263 -0.2448
   79CHL1  H27A 8324   1.436   2.054   8.709 -0.4271 -0.0160  0.1770
   79CHL1  H27B 8325   1.613   2.089   8.733 -0.7507 -0.9966 -1.3654
   79CHL1  H27C 8326   1.483   2.172   8.838 -0.0880  0.0296 -0.1869
   80CHL1    C3 8327   6.611   3.443   6.926 -0.0151  1.1155  0.8726
   80CHL1    H3 8328   6.639   3.336   6.942 -1.5565  0.8753  2.1501
   80CHL1    O3 8329   6.673   3.493   6.806  0.4355 -0.3323 -0.2361
   80CHL1   H3' 8330   6.762   3.465   6.828  0.4849  1.5709  2.5082
   80CHL1    C4 8331   6.459   3.461   6.906  0.0515  0.1822  0.3731
   80CHL1   H4A 8332   6.442   3.569   6.887  2.6073  0.6105  0.1572
   80CHL1   H4B 8333   6.437   3.410   6.809 -2.7527 -3.0891  2.4855
   80CHL1    C5 8334   6.374   3.421   7.029  0.2904 -0.3564  0.0933
   80CHL1    C6 8335   6.282   3.325   7.020  0.3992 -0.2462 -1.0111
   80CHL1    H6 8336   6.265   3.285   6.919 -1.0827  0.0238 -0.8987
   80CHL1    C7 8337   6.200   3.286   7.140  0.1715  0.0573 -0.3866
   80CHL1   H7A 8338   6.095   3.289   7.105 -0.0072  0.8293  0.1873
   80CHL1   H7B 8339   6.242   3.188   7.170  1.4527  0.1543 -1.7685
   80CHL1    C8 8340   6.210   3.371   7.267  0.1415  0.4096  0.1037
   80CHL1    H8 8341   6.151   3.463   7.248  1.1782  0.6437 -2.5269
   80CHL1   C14 8342   6.171   3.291   7.393 -0.4513 -0.1783 -0.5309
   80CHL1   H14 8343   6.245   3.208   7.404  0.0091  0.3344  0.4073
   80CHL1   C15 8344   6.035   3.228   7.377  0.0394  0.3065 -0.5641
   80CHL1  H15A 8345   5.958   3.303   7.348  1.0514  1.7740  0.3629
   80CHL1  H15B 8346   6.039   3.155   7.294 -0.0340 -0.2412 -0.0885
   80CHL1   C16 8347   6.004   3.190   7.519  0.2090  0.3120 -0.0924
   80CHL1  H16A 8348   5.901   3.228   7.538 -0.2628 -0.8199 -0.3292
   80CHL1  H16B 8349   6.008   3.081   7.540 -2.3726 -0.2194 -1.8608
   80CHL1   C17 8350   6.106   3.261   7.613 -0.4262  0.3767 -0.5688
   80CHL1   H17 8351   6.191   3.190   7.626 -2.0515 -1.9215 -1.8317
   80CHL1   C13 8352   6.166   3.373   7.519 -0.3446 -0.3474 -0.6862
   80CHL1   C18 8353   6.068   3.495   7.513 -0.3771 -0.2808 -0.0552
   80CHL1  H18A 8354   6.078   3.546   7.612 -0.4991  0.5707 -0.4667
   80CHL1  H18B 8355   6.115   3.566   7.441  1.3020 -1.5555 -0.2751
   80CHL1  H18C 8356   5.961   3.478   7.490 -0.8800  1.9941  0.2729
   80CHL1   C12 8357   6.309   3.426   7.543  0.2006 -0.0299  0.2703
   80CHL1  H12A 8358   6.321   3.499   7.625 -0.9161 -0.5943  0.9571
   80CHL1  H12B 8359   6.376   3.341   7.565  0.2605 -0.9688 -3.0146
   80CHL1   C11 8360   6.378   3.499   7.413  0.1854  0.6062 -1.0495
   80CHL1  H11A 8361   6.316   3.591   7.405 -2.9417 -1.2327  0.1675
   80CHL1  H11B 8362   6.488   3.510   7.424  0.4760 -2.2681 -0.2491
   80CHL1    C9 8363   6.361   3.415   7.284  0.2444 -0.0146  0.4422
   80CHL1    H9 8364   6.416   3.319   7.296 -0.9616 -0.7252  0.4556
   80CHL1   C10 8365   6.417   3.486   7.163 -0.8382 -0.3942  0.3167
   80CHL1   C19 8366   6.374   3.635   7.152  0.6855 -0.5250 -0.6591
   80CHL1  H19A 8367   6.427   3.691   7.232 -1.4679 -1.2695  1.4053
   80CHL1  H19B 8368   6.398   3.698   7.064  0.9219  2.0226  1.1245
   80CHL1  H19C 8369   6.265   3.651   7.166  0.3960 -1.7884 -1.2964
   80CHL1    C1 8370   6.578   3.483   7.175  0.1934 -0.4491  0.7545
   80CHL1   H1A 8371   6.606   3.548   7.261  0.8692 -0.1755  0.3352
   80CHL1   H1B 8372   6.613   3.379   7.193  1.0245 -0.2684  0.2269
   80CHL1    C2 8373   6.646   3.531   7.052  0.6153 -0.4684  0.2442
   80CHL1   H2A 8374   6.756   3.534   7.067  0.6773  2.3424 -0.3647
   80CHL1   H2B 8375   6.612   3.634   7.030 -0.5411 -1.0806 -1.0098
   80CHL1   C20 8376   6.048   3.296   7.747 -0.2469 -0.1403 -0.0834
   80CHL1   H20 8377   5.968   3.371   7.726 -1.0243 -0.9707 -0.1222
   80CHL1   C21 8378   6.157   3.352   7.846 -0.5122 -0.0775 -0.5649
   80CHL1  H21A 8379   6.114   3.376   7.945 -0.2709 -0.0079 -0.4771
   80CHL1  H21B 8380   6.212   3.441   7.808 -1.4810 -0.0840 -2.0717
   80CHL1  H21C 8381   6.235   3.275   7.867 -1.4935 -1.3245 -1.2962
   80CHL1   C22 8382   5.962   3.185   7.818 -0.3579  0.6269 -0.2099
   80CHL1  H22A 8383   5.903   3.134   7.738 -1.9899 -1.9774  2.4539
   80CHL1  H22B 8384   6.020   3.099   7.856 -2.5148 -2.4978 -3.2972
   80CHL1   C23 8385   5.865   3.231   7.928  0.0475  0.2297  1.0513
   80CHL1  H23A 8386   5.923   3.275   8.011  2.4621  2.6697 -1.7014
   80CHL1  H23B 8387   5.794   3.300   7.876 -0.3329 -0.3071  0.8364
   80CHL1   C24 8388   5.775   3.111   7.984  0.1845 -0.1383  0.6028
   80CHL1  H24A 8389   5.734   3.064   7.892  0.3491 -1.7793  1.3379
   80CHL1  H24B 8390   5.834   3.034   8.037 -1.8772 -2.5150 -0.3588
   80CHL1   C25 8391   5.657   3.164   8.064  0.2590 -0.4383 -0.0455
   80CHL1   H25 8392   5.594   3.229   7.999 -0.5816 -0.1808  0.9909
   80CHL1   C26 8393   5.582   3.043   8.112  0.1958 -0.6478 -0.0448
   80CHL1  H26A 8394   5.646   2.989   8.184 -1.1207 -1.6728  0.4049
   80CHL1  H26B 8395   5.488   3.066   8.166  0.7666 -0.9485  1.1026
   80CHL1  H26C 8396   5.570   2.971   8.028  1.7255 -0.8407 -0.1210
   80CHL1   C27 8397   5.701   3.255   8.186 -0.2317  0.4335 -0.1797
   80CHL1  H27A 8398   5.618   3.297   8.247  0.2594  1.3486 -0.1231
   80CHL1  H27B 8399   5.762   3.200   8.260  1.6141  2.2831 -0.2356
   80CHL1  H27C 8400   5.765   3.338   8.149  1.1387 -1.4137 -2.2629
   81CHL1    C3 8401   0.325   4.579   6.817 -0.6418  0.0195 -0.1688
   81CHL1    H3 8402   0.302   4.688   6.824 -1.6164 -0.1121 -1.1175
   81CHL1    O3 8403   0.364   4.553   6.684  0.2786  0.4634  0.1982
   81CHL1   H3' 8404   0.460   4.559   6.678  0.4199 -1.7787 -0.6933
   81CHL1    C4 8405   0.443   4.553   6.909  0.1979 -0.1176 -0.7820
   81CHL1   H4A 8406   0.481   4.451   6.887  1.7079  0.7891 -2.6750
   81CHL1   H4B 8407   0.521   4.630   6.894 -0.3912  0.9103  1.0893
   81CHL1    C5 8408   0.403   4.556   7.056 -0.5989  0.7095 -1.3048
   81CHL1    C6 8409   0.471   4.633   7.148 -0.1935  0.0484  0.0503
   81CHL1    H6 8410   0.554   4.688   7.102  1.2394 -3.1705 -1.5563
   81CHL1    C7 8411   0.448   4.637   7.300  0.1305  0.3751 -0.3621
   81CHL1   H7A 8412   0.545   4.622   7.351  0.3516  0.9427 -0.5997
   81CHL1   H7B 8413   0.397   4.732   7.326 -0.4254  0.0167 -0.1324
   81CHL1    C8 8414   0.360   4.510   7.344  0.2913 -0.1691  0.2885
   81CHL1    H8 8415   0.425   4.420   7.344 -1.0015 -1.1501  1.4615
   81CHL1   C14 8416   0.313   4.536   7.488  0.3643  0.0489  0.5050
   81CHL1   H14 8417   0.262   4.634   7.475  2.3432  1.2977  1.6350
   81CHL1   C15 8418   0.423   4.559   7.593 -1.5067 -0.4860 -0.3588
   81CHL1  H15A 8419   0.512   4.493   7.582  0.8144  2.1146  1.3328
   81CHL1  H15B 8420   0.459   4.664   7.585  1.7835 -0.8486  4.7222
   81CHL1   C16 8421   0.353   4.525   7.724 -0.1510 -0.1358  0.1630
   81CHL1  H16A 8422   0.392   4.447   7.792  0.4727  0.9743  1.1185
   81CHL1  H16B 8423   0.346   4.625   7.773 -2.6094 -0.7153  1.1475
   81CHL1   C17 8424   0.201   4.488   7.686  0.0917 -0.1880 -0.2551
   81CHL1   H17 8425   0.148   4.585   7.674  0.7250  0.0658 -1.1419
   81CHL1   C13 8426   0.220   4.435   7.550  0.0700  0.2159  0.3780
   81CHL1   C18 8427   0.284   4.298   7.553 -0.1057  0.2013 -0.6939
   81CHL1  H18A 8428   0.208   4.234   7.602  0.1162 -0.2979 -0.9963
   81CHL1  H18B 8429   0.306   4.254   7.453 -0.0426  0.1429 -0.6546
   81CHL1  H18C 8430   0.376   4.302   7.614  0.3093 -0.5090 -1.2561
   81CHL1   C12 8431   0.094   4.436   7.462  0.3348  0.0969  0.4836
   81CHL1  H12A 8432   0.013   4.363   7.482 -1.1508  0.9222 -2.0665
   81CHL1  H12B 8433   0.057   4.539   7.480  1.1745  0.2347  1.4550
   81CHL1   C11 8434   0.125   4.406   7.309 -0.0803  0.0257  0.9718
   81CHL1  H11A 8435   0.143   4.297   7.303 -2.5216 -0.3831 -3.4651
   81CHL1  H11B 8436   0.028   4.423   7.257 -0.1057 -1.9821  0.2800
   81CHL1    C9 8437   0.239   4.500   7.254  0.2701  0.3199  0.0526
   81CHL1    H9 8438   0.200   4.604   7.251  1.4631  0.7856  0.2122
   81CHL1   C10 8439   0.278   4.472   7.101 -0.7433 -0.2192  0.2523
   81CHL1   C19 8440   0.308   4.319   7.093  0.3079  0.3927  0.6692
   81CHL1  H19A 8441   0.215   4.258   7.088 -0.2070  1.2545 -3.1645
   81CHL1  H19B 8442   0.361   4.296   6.999  0.9063  0.3432  1.0180
   81CHL1  H19C 8443   0.366   4.288   7.183 -1.1567 -1.1434  1.1466
   81CHL1    C1 8444   0.162   4.516   7.001  0.1166 -0.1029  0.2799
   81CHL1   H1A 8445   0.075   4.448   7.013  0.8323 -1.1303 -0.2061
   81CHL1   H1B 8446   0.134   4.620   7.026  0.0915 -0.0909  0.2002
   81CHL1    C2 8447   0.209   4.494   6.853  0.8291  0.5812 -1.1200
   81CHL1   H2A 8448   0.122   4.512   6.786 -0.0295 -1.5140 -0.6148
   81CHL1   H2B 8449   0.242   4.389   6.845 -0.2236  0.2709 -1.6170
   81CHL1   C20 8450   0.123   4.410   7.788  0.2415 -0.1157 -0.5602
   81CHL1   H20 8451   0.139   4.300   7.785 -0.8832 -0.2672 -1.3945
   81CHL1   C21 8452  -0.030   4.436   7.765 -0.1236 -1.0491  0.0832
   81CHL1  H21A 8453  -0.095   4.385   7.839  2.2691 -2.7450  1.1449
   81CHL1  H21B 8454  -0.063   4.398   7.666 -1.2856 -0.2000  0.1285
   81CHL1  H21C 8455  -0.052   4.544   7.761 -0.5772 -1.0139  2.2526
   81CHL1   C22 8456   0.140   4.468   7.931 -0.3634  0.3055  0.2631
   81CHL1  H22A 8457   0.245   4.485   7.963  0.1029  0.4685 -1.2439
   81CHL1  H22B 8458   0.084   4.561   7.956  1.0695  1.4478 -0.5610
   81CHL1   C23 8459   0.087   4.373   8.037 -0.1511  0.9574 -0.0008
   81CHL1  H23A 8460  -0.021   4.353   8.019 -0.0507 -1.8339  1.9819
   81CHL1  H23B 8461   0.143   4.279   8.021  2.0995  2.3715 -1.0857
   81CHL1   C24 8462   0.096   4.424   8.183 -0.0239  0.8317 -0.6481
   81CHL1  H24A 8463   0.205   4.441   8.193  0.2805 -0.6133 -1.1885
   81CHL1  H24B 8464   0.037   4.517   8.198  0.2728  0.7943  0.9522
   81CHL1   C25 8465   0.071   4.317   8.292 -0.0118 -0.0354 -0.5579
   81CHL1   H25 8466  -0.026   4.267   8.270 -0.0165 -0.5136  0.5216
   81CHL1   C26 8467   0.179   4.208   8.292  0.7453  0.1687  0.0335
   81CHL1  H26A 8468   0.188   4.149   8.198 -0.8579 -0.6552  0.3703
   81CHL1  H26B 8469   0.278   4.254   8.310  0.4507  0.4173  1.0838
   81CHL1  H26C 8470   0.165   4.133   8.372  0.7593  0.0282 -0.0944
   81CHL1   C27 8471   0.078   4.386   8.435  0.6036 -0.5107  0.1454
   81CHL1  H27A 8472   0.005   4.470   8.433  0.6334 -0.4931 -1.2209
   81CHL1  H27B 8473   0.064   4.307   8.511 -0.2442  2.0246  2.8533
   81CHL1  H27C 8474   0.180   4.424   8.458  0.8576 -0.5436 -0.8679
   82CHL1    C3 8475   6.170   2.647   6.977 -0.4326 -0.1166 -0.2053
   82CHL1    H3 8476   6.133   2.547   6.944  0.4350 -0.6168  0.2892
   82CHL1    O3 8477   6.234   2.704   6.863 -0.4231 -0.1403  0.0415
   82CHL1   H3' 8478   6.165   2.695   6.797 -2.2752  1.0494  1.6942
   82CHL1    C4 8479   6.051   2.741   6.996  0.4559  0.0598  0.3004
   82CHL1   H4A 8480   6.071   2.849   6.982 -0.9698  0.1540 -1.6086
   82CHL1   H4B 8481   5.983   2.713   6.912  1.1625 -2.2115  0.4027
   82CHL1    C5 8482   5.968   2.729   7.128  0.3169 -0.1657 -0.6063
   82CHL1    C6 8483   5.835   2.712   7.120 -0.1984  0.1055 -0.3067
   82CHL1    H6 8484   5.781   2.712   7.024  0.4293 -0.8895 -0.6673
   82CHL1    C7 8485   5.750   2.693   7.243 -0.0883 -1.0517 -0.0522
   82CHL1   H7A 8486   5.661   2.759   7.234  2.0187  1.8301 -1.4654
   82CHL1   H7B 8487   5.712   2.589   7.251  1.5016 -1.5494  1.7125
   82CHL1    C8 8488   5.819   2.715   7.380 -0.7305 -0.0371  0.7053
   82CHL1    H8 8489   5.820   2.826   7.383 -1.6950  0.1724 -2.5542
   82CHL1   C14 8490   5.749   2.649   7.494 -0.3134  0.0732  0.4962
   82CHL1   H14 8491   5.779   2.542   7.495  1.0478  0.3838  3.1550
   82CHL1   C15 8492   5.596   2.667   7.509 -0.5350 -0.4869 -0.5449
   82CHL1  H15A 8493   5.559   2.770   7.496 -1.6813 -0.8517 -0.2569
   82CHL1  H15B 8494   5.534   2.600   7.445 -0.0233 -0.4163 -1.1201
   82CHL1   C16 8495   5.576   2.627   7.655  0.7000 -0.0926  0.4073
   82CHL1  H16A 8496   5.519   2.710   7.702 -1.0898 -0.1637 -1.4863
   82CHL1  H16B 8497   5.514   2.537   7.674  0.9248 -0.1024  1.1252
   82CHL1   C17 8498   5.716   2.619   7.723  0.9258 -0.5109  0.3488
   82CHL1   H17 8499   5.737   2.510   7.717 -0.1227 -0.6563 -1.1752
   82CHL1   C13 8500   5.811   2.695   7.626  1.1387 -0.2519 -1.1654
   82CHL1   C18 8501   5.784   2.848   7.646  0.3731 -0.2184 -0.1318
   82CHL1  H18A 8502   5.833   2.911   7.568  1.2639  0.8657  1.2608
   82CHL1  H18B 8503   5.679   2.866   7.676 -1.0336 -1.6973 -3.6340
   82CHL1  H18C 8504   5.847   2.873   7.734 -0.9537  0.2633  0.7043
   82CHL1   C12 8505   5.957   2.654   7.635 -0.4112  0.5205 -0.2554
   82CHL1  H12A 8506   6.006   2.690   7.728 -1.2174 -2.7094  1.5585
   82CHL1  H12B 8507   5.955   2.544   7.645  3.5758  0.3700  0.6301
   82CHL1   C11 8508   6.036   2.685   7.514  0.3041 -0.0411 -0.5076
   82CHL1  H11A 8509   6.056   2.793   7.532  1.7824 -0.5974  1.5848
   82CHL1  H11B 8510   6.136   2.639   7.509  1.0845  1.4029  0.9456
   82CHL1    C9 8511   5.965   2.669   7.377 -0.4048 -0.3535  0.7632
   82CHL1    H9 8512   5.962   2.559   7.361  0.7700 -0.1624 -0.9904
   82CHL1   C10 8513   6.053   2.724   7.260 -0.1994  1.1586  0.7724
   82CHL1   C19 8514   6.104   2.864   7.304  0.4345 -0.0239  0.3707
   82CHL1  H19A 8515   6.016   2.928   7.326  0.6052  0.2006  0.4034
   82CHL1  H19B 8516   6.180   2.854   7.384  1.4661 -0.8597 -0.6608
   82CHL1  H19C 8517   6.155   2.919   7.222  1.9734 -1.0922  0.5705
   82CHL1    C1 8518   6.179   2.629   7.234  0.3495 -0.2990 -0.2594
   82CHL1   H1A 8519   6.242   2.617   7.324 -0.8333  1.8395  0.9178
   82CHL1   H1B 8520   6.130   2.529   7.227  0.9782 -0.5406 -1.7203
   82CHL1    C2 8521   6.254   2.645   7.103  0.8329 -0.1856 -0.5159
   82CHL1   H2A 8522   6.343   2.579   7.095  0.5738 -0.5470 -0.4510
   82CHL1   H2B 8523   6.298   2.747   7.100  0.1294  0.1184 -0.6406
   82CHL1   C20 8524   5.707   2.658   7.869 -0.2969  0.2119 -0.6095
   82CHL1   H20 8525   5.693   2.768   7.876 -0.4405  0.2055 -0.8004
   82CHL1   C21 8526   5.841   2.618   7.934  0.2014 -0.6634 -0.3661
   82CHL1  H21A 8527   5.872   2.514   7.912  0.4610 -1.2996  2.5966
   82CHL1  H21B 8528   5.839   2.616   8.045  1.2443 -1.6615 -0.3477
   82CHL1  H21C 8529   5.918   2.696   7.916  0.5304 -0.6226  1.0365
   82CHL1   C22 8530   5.598   2.581   7.946  0.1448  0.3519 -0.3532
   82CHL1  H22A 8531   5.509   2.565   7.882 -0.9340 -1.4882  1.4637
   82CHL1  H22B 8532   5.635   2.478   7.965 -2.0937 -0.0684  2.4450
   82CHL1   C23 8533   5.556   2.651   8.079  0.0549 -0.2967 -0.1370
   82CHL1  H23A 8534   5.637   2.647   8.155  0.2678  1.4506 -0.2144
   82CHL1  H23B 8535   5.532   2.757   8.053  1.7840 -0.2274 -1.6890
   82CHL1   C24 8536   5.430   2.585   8.140 -0.5674 -0.1605  0.1838
   82CHL1  H24A 8537   5.340   2.586   8.076 -0.9225 -0.8677  0.6566
   82CHL1  H24B 8538   5.449   2.477   8.159  0.4170  0.2439  1.7360
   82CHL1   C25 8539   5.393   2.635   8.278 -0.2071  0.7497  0.3628
   82CHL1   H25 8540   5.403   2.745   8.282 -3.8727  1.1650  1.0171
   82CHL1   C26 8541   5.247   2.609   8.304  0.2740 -0.2953 -0.0078
   82CHL1  H26A 8542   5.194   2.649   8.215 -0.0124  1.2416  0.8290
   82CHL1  H26B 8543   5.231   2.499   8.311  2.9922 -0.7929 -0.5268
   82CHL1  H26C 8544   5.195   2.652   8.392 -2.3147 -0.5375 -1.3478
   82CHL1   C27 8545   5.488   2.595   8.390  0.2573  0.2060 -0.2379
   82CHL1  H27A 8546   5.515   2.488   8.382 -0.1409  0.1993 -1.7176
   82CHL1  H27B 8547   5.586   2.649   8.385  0.3205  0.4083  2.0707
   82CHL1  H27C 8548   5.455   2.619   8.494 -0.1165 -0.1620 -0.2745
   83CHL1    C3 8549   1.872   4.006   7.062  0.2892 -0.0633 -0.3931
   83CHL1    H3 8550   1.790   4.050   7.123  1.4283  1.8207 -0.1476
   83CHL1    O3 8551   1.852   4.043   6.925  0.3433 -0.1816  0.1531
   83CHL1   H3' 8552   1.795   3.970   6.899 -0.4113 -0.4108  2.2378
   83CHL1    C4 8553   2.001   4.066   7.115  0.6590  0.2987 -0.3435
   83CHL1   H4A 8554   2.084   4.025   7.055 -0.5731 -1.7170 -0.7880
   83CHL1   H4B 8555   2.000   4.176   7.098  0.0818  0.4894  0.7909
   83CHL1    C5 8556   2.015   4.032   7.263 -0.0603 -0.4421  0.5754
   83CHL1    C6 8557   2.018   4.124   7.360  0.2813  0.0647  0.0052
   83CHL1    H6 8558   2.027   4.229   7.328 -1.9914 -0.2726 -2.0662
   83CHL1    C7 8559   2.021   4.099   7.508 -0.0459 -0.5420 -0.4344
   83CHL1   H7A 8560   2.100   4.159   7.557 -1.1712 -0.5642  1.4808
   83CHL1   H7B 8561   1.926   4.113   7.562  0.4367 -0.7090  0.4844
   83CHL1    C8 8562   2.059   3.949   7.531  0.3455  0.0169  0.2075
   83CHL1    H8 8563   2.167   3.937   7.508  0.9708  2.9189  1.2267
   83CHL1   C14 8564   2.034   3.914   7.674  0.2611 -0.1139  0.5330
   83CHL1   H14 8565   1.927   3.917   7.703 -0.0032 -0.2011 -0.4049
   83CHL1   C15 8566   2.104   4.004   7.776 -0.8154  0.2271 -0.2239
   83CHL1  H15A 8567   2.205   4.042   7.747 -0.5004 -0.3513  0.1014
   83CHL1  H15B 8568   2.043   4.095   7.796 -0.7385  0.0208  1.0176
   83CHL1   C16 8569   2.120   3.914   7.899 -0.0126  0.0718 -0.1607
   83CHL1  H16A 8570   2.226   3.909   7.931 -0.4140  0.0461  1.2223
   83CHL1  H16B 8571   2.062   3.949   7.987 -0.5610 -0.1373 -0.4393
   83CHL1   C17 8572   2.061   3.769   7.866  0.7420 -0.2717  0.0191
   83CHL1   H17 8573   1.953   3.778   7.891  0.5068 -2.8393  0.1880
   83CHL1   C13 8574   2.075   3.770   7.708  0.1933  0.7592  0.1919
   83CHL1   C18 8575   2.231   3.744   7.685 -0.3346  0.2316 -0.1048
   83CHL1  H18A 8576   2.297   3.811   7.745 -0.6570  2.3426 -1.9520
   83CHL1  H18B 8577   2.251   3.635   7.690 -0.3047  0.1490 -1.5526
   83CHL1  H18C 8578   2.252   3.765   7.578  2.0985  0.1373  0.2969
   83CHL1   C12 8579   1.980   3.673   7.632 -0.6788 -0.6521  0.0708
   83CHL1  H12A 8580   2.000   3.564   7.648  1.2468 -0.3643 -0.1249
   83CHL1  H12B 8581   1.875   3.705   7.650 -1.3463 -2.3833 -0.4873
   83CHL1   C11 8582   2.004   3.693   7.487 -0.0325 -0.4270  0.6089
   83CHL1  H11A 8583   2.112   3.682   7.465 -0.2571  0.3042 -1.0111
   83CHL1  H11B 8584   1.942   3.616   7.436 -0.5267 -0.0567  0.6438
   83CHL1    C9 8585   1.979   3.841   7.442 -0.5733 -0.5394  0.0918
   83CHL1    H9 8586   1.876   3.869   7.472 -0.5373  0.6605 -0.8353
   83CHL1   C10 8587   2.003   3.882   7.293 -0.8629  0.3303  0.2488
   83CHL1   C19 8588   2.137   3.817   7.259  0.3311 -0.0034 -0.2732
   83CHL1  H19A 8589   2.121   3.709   7.279  0.6933 -0.1784 -0.9066
   83CHL1  H19B 8590   2.159   3.820   7.150 -0.4663 -2.1219 -0.5561
   83CHL1  H19C 8591   2.223   3.856   7.318  0.1029 -1.3341  1.0017
   83CHL1    C1 8592   1.890   3.815   7.215 -0.2480 -0.5879 -0.8850
   83CHL1   H1A 8593   1.914   3.706   7.206  0.6774 -0.4399 -0.3041
   83CHL1   H1B 8594   1.789   3.839   7.253  0.8166 -0.1164  1.8231
   83CHL1    C2 8595   1.875   3.854   7.071 -0.2880  0.4823 -0.2784
   83CHL1   H2A 8596   1.784   3.817   7.019 -0.5852  1.2456 -0.3158
   83CHL1   H2B 8597   1.971   3.835   7.018  1.1398 -1.7117  2.7747
   83CHL1   C20 8598   2.107   3.650   7.950  0.8284 -0.5732  0.1390
   83CHL1   H20 8599   2.197   3.602   7.907  0.9597  0.3792 -0.6712
   83CHL1   C21 8600   1.996   3.545   7.955  0.1561  0.1135  0.4518
   83CHL1  H21A 8601   1.910   3.572   8.019  0.6910  1.6651  0.5462
   83CHL1  H21B 8602   2.041   3.450   7.991  0.1554  0.7854  2.3177
   83CHL1  H21C 8603   1.955   3.529   7.853  0.0440 -0.1758  0.5408
   83CHL1   C22 8604   2.137   3.699   8.098  0.2744 -0.0580  0.6900
   83CHL1  H22A 8605   2.218   3.775   8.106  1.1237 -0.8797 -0.0159
   83CHL1  H22B 8606   2.045   3.743   8.144  2.0624  1.4426  3.0895
   83CHL1   C23 8607   2.166   3.580   8.183  0.1690  0.1264 -0.5852
   83CHL1  H23A 8608   2.085   3.505   8.189  0.7915 -0.7020 -2.0702
   83CHL1  H23B 8609   2.244   3.519   8.133  0.4978  1.2757 -1.5396
   83CHL1   C24 8610   2.211   3.623   8.323 -0.0307 -0.1824  1.0181
   83CHL1  H24A 8611   2.293   3.697   8.306  1.4563 -1.9847 -0.0759
   83CHL1  H24B 8612   2.135   3.679   8.381 -0.7199 -0.9502  0.8653
   83CHL1   C25 8613   2.250   3.511   8.417  0.0622 -0.6539 -0.7458
   83CHL1   H25 8614   2.308   3.439   8.356 -1.4379 -1.0941 -1.7066
   83CHL1   C26 8615   2.332   3.564   8.539 -0.1356 -0.3853 -0.4286
   83CHL1  H26A 8616   2.354   3.484   8.613  0.6144  0.4011  0.2239
   83CHL1  H26B 8617   2.419   3.620   8.499 -0.7471  0.1213 -1.0743
   83CHL1  H26C 8618   2.270   3.638   8.594 -0.7713 -0.4343 -1.0671
   83CHL1   C27 8619   2.129   3.435   8.479  0.2858  0.3222 -0.2011
   83CHL1  H27A 8620   2.076   3.372   8.405  0.0220  0.9287 -0.5374
   83CHL1  H27B 8621   2.165   3.380   8.569 -1.2072 -0.7288 -0.2060
   83CHL1  H27C 8622   2.054   3.509   8.515 -0.0151  0.1269 -0.4193
   84CHL1    C3 8623   5.283   6.358   6.843 -0.1234 -0.8540 -0.7422
   84CHL1    H3 8624   5.392   6.349   6.862  0.4615  5.3200  0.9652
   84CHL1    O3 8625   5.252   6.369   6.703  0.1966  0.3029  0.0326
   84CHL1   H3' 8626   5.168   6.323   6.692 -0.0494  0.0809  2.2330
   84CHL1    C4 8627   5.204   6.254   6.915  0.4396 -0.0755  0.1776
   84CHL1   H4A 8628   5.096   6.264   6.891  0.5815  1.2382 -0.0014
   84CHL1   H4B 8629   5.240   6.152   6.891  1.9029  0.2347  0.9094
   84CHL1    C5 8630   5.213   6.255   7.066 -0.8530 -0.2001 -0.5580
   84CHL1    C6 8631   5.249   6.144   7.135 -1.1992 -0.4222  0.0824
   84CHL1    H6 8632   5.269   6.051   7.079  0.1462  0.7898 -1.5432
   84CHL1    C7 8633   5.271   6.138   7.283 -0.2034  0.6002 -0.3163
   84CHL1   H7A 8634   5.228   6.043   7.322 -0.9965  0.3601 -1.7103
   84CHL1   H7B 8635   5.379   6.130   7.307 -0.4005 -0.5132  0.2627
   84CHL1    C8 8636   5.205   6.253   7.356  0.1093  0.4993 -0.2758
   84CHL1    H8 8637   5.096   6.232   7.355  0.2364 -0.2312  0.3478
   84CHL1   C14 8638   5.242   6.255   7.504  0.4931  0.2230 -0.0358
   84CHL1   H14 8639   5.353   6.256   7.501  0.5495 -1.5417  0.1315
   84CHL1   C15 8640   5.209   6.129   7.590 -0.1765 -0.7335 -0.2062
   84CHL1  H15A 8641   5.101   6.114   7.571 -0.0922 -1.0300 -0.4673
   84CHL1  H15B 8642   5.265   6.035   7.566 -0.5387 -0.7917 -0.8502
   84CHL1   C16 8643   5.221   6.184   7.733  0.0526 -0.4030 -0.1000
   84CHL1  H16A 8644   5.129   6.156   7.790 -0.3925  0.9821 -0.1063
   84CHL1  H16B 8645   5.314   6.146   7.781  1.5127  1.0926 -1.6075
   84CHL1   C17 8646   5.233   6.340   7.725  0.2128  0.4338  0.0050
   84CHL1   H17 8647   5.341   6.363   7.729  0.9667 -2.7227  0.2979
   84CHL1   C13 8648   5.190   6.375   7.579  1.3974  0.7606  0.3460
   84CHL1   C18 8649   5.037   6.372   7.578 -0.6434  0.4515  0.0075
   84CHL1  H18A 8650   4.995   6.283   7.628 -0.2710 -0.5961 -1.4801
   84CHL1  H18B 8651   5.013   6.463   7.637  1.5580  1.8504 -1.0964
   84CHL1  H18C 8652   4.993   6.386   7.477 -0.7990 -0.1257 -0.0085
   84CHL1   C12 8653   5.251   6.505   7.508 -0.2818  0.0012  0.3486
   84CHL1  H12A 8654   5.222   6.602   7.553  2.7170  2.3774 -2.2814
   84CHL1  H12B 8655   5.362   6.500   7.506 -0.2774 -0.0776 -1.6793
   84CHL1   C11 8656   5.222   6.515   7.355 -0.5752 -0.8747  0.4010
   84CHL1  H11A 8657   5.118   6.551   7.343  0.2800  1.4235 -0.6769
   84CHL1  H11B 8658   5.278   6.596   7.304 -0.0077 -0.1934  2.0324
   84CHL1    C9 8659   5.242   6.381   7.278  0.5977 -0.3903  0.5625
   84CHL1    H9 8660   5.353   6.372   7.271  0.7666  2.1695 -1.5635
   84CHL1   C10 8661   5.195   6.389   7.138  0.9071 -0.3753  0.3291
   84CHL1   C19 8662   5.036   6.411   7.126 -0.6728 -0.3575  0.3543
   84CHL1  H19A 8663   4.982   6.334   7.186 -0.9693 -1.5236 -1.3549
   84CHL1  H19B 8664   5.007   6.507   7.174  0.0250 -0.2263  0.5175
   84CHL1  H19C 8665   5.000   6.415   7.021  2.2237 -0.8696 -0.7505
   84CHL1    C1 8666   5.262   6.499   7.048 -0.7659 -0.0728  0.6443
   84CHL1   H1A 8667   5.251   6.599   7.095 -0.3219  0.8746 -1.1587
   84CHL1   H1B 8668   5.373   6.486   7.051 -0.7871 -0.1202  1.2709
   84CHL1    C2 8669   5.240   6.495   6.901 -0.2732  0.6128 -0.6390
   84CHL1   H2A 8670   5.297   6.580   6.856  1.0142 -0.6019 -1.4024
   84CHL1   H2B 8671   5.134   6.508   6.873 -0.0752  0.4907 -1.4932
   84CHL1   C20 8672   5.164   6.407   7.846  0.4453  0.0150 -0.1300
   84CHL1   H20 8673   5.054   6.402   7.832  0.2445 -1.4740  1.5072
   84CHL1   C21 8674   5.182   6.559   7.858  0.1850 -0.3472  0.4419
   84CHL1  H21A 8675   5.134   6.590   7.953 -0.0642 -1.7757  0.8075
   84CHL1  H21B 8676   5.121   6.606   7.778 -1.6138  0.6326  2.3106
   84CHL1  H21C 8677   5.284   6.602   7.863  1.1659 -2.5925  1.6208
   84CHL1   C22 8678   5.199   6.341   7.984  0.2706 -0.5623  0.0413
   84CHL1  H22A 8679   5.136   6.392   8.060  0.7844  1.1481 -0.6347
   84CHL1  H22B 8680   5.169   6.234   7.986  0.8615 -0.7439  2.2791
   84CHL1   C23 8681   5.342   6.357   8.022  0.3543  0.4072  0.2443
   84CHL1  H23A 8682   5.413   6.292   7.965 -2.0967 -2.0845 -0.1593
   84CHL1  H23B 8683   5.370   6.464   8.019  0.0082  0.5711  1.9707
   84CHL1   C24 8684   5.357   6.317   8.171  0.3853  0.7940  0.2472
   84CHL1  H24A 8685   5.266   6.358   8.219 -0.1555  1.3385 -1.1888
   84CHL1  H24B 8686   5.362   6.206   8.181  1.8604  0.6710 -1.3748
   84CHL1   C25 8687   5.482   6.380   8.241 -0.6432  0.4250 -0.2989
   84CHL1   H25 8688   5.562   6.362   8.167  0.9174  1.0762  1.1763
   84CHL1   C26 8689   5.467   6.532   8.275  0.0578 -0.0732  0.1257
   84CHL1  H26A 8690   5.564   6.574   8.311  0.4664 -0.9696  0.1038
   84CHL1  H26B 8691   5.438   6.579   8.179 -0.1400 -3.4413 -1.6208
   84CHL1  H26C 8692   5.381   6.543   8.344 -2.1438 -0.7567 -2.3369
   84CHL1   C27 8693   5.520   6.300   8.363 -0.5706  0.0045 -0.0834
   84CHL1  H27A 8694   5.515   6.192   8.336  0.8524 -0.9004  2.8635
   84CHL1  H27B 8695   5.622   6.313   8.406  0.3895 -2.9847 -1.2125
   84CHL1  H27C 8696   5.451   6.319   8.448  1.4751  0.9138  1.4682
   85CHL1    C3 8697   4.192   2.977   6.836 -0.1082  0.4866 -0.6778
   85CHL1    H3 8698   4.165   2.873   6.862 -0.7858  0.6915 -0.5360
   85CHL1    O3 8699   4.210   2.991   6.697  0.2691  0.0988 -0.1142
   85CHL1   H3' 8700   4.292   2.947   6.675  0.3800  0.6536 -0.8376
   85CHL1    C4 8701   4.072   3.064   6.877 -0.2349 -0.3679  0.2714
   85CHL1   H4A 8702   4.072   3.171   6.846 -1.6929  0.1300  1.8723
   85CHL1   H4B 8703   3.980   3.024   6.830  0.0759 -0.2025 -0.5130
   85CHL1    C5 8704   4.057   3.057   7.028  0.6524 -0.4023 -0.2415
   85CHL1    C6 8705   3.942   3.009   7.078 -0.1870  0.6364 -0.0841
   85CHL1    H6 8706   3.867   2.973   7.006 -1.0072  2.0921  0.0103
   85CHL1    C7 8707   3.919   3.006   7.228 -0.7255  0.1024 -0.2767
   85CHL1   H7A 8708   3.818   3.043   7.255  0.1971  1.8201  0.9729
   85CHL1   H7B 8709   3.935   2.903   7.267 -3.0279 -0.8090 -1.5174
   85CHL1    C8 8710   4.018   3.093   7.300 -0.8022 -0.4522 -0.3199
   85CHL1    H8 8711   3.993   3.198   7.275 -3.0496 -1.0127 -0.6144
   85CHL1   C14 8712   4.002   3.077   7.451  0.2885  0.4119  0.1958
   85CHL1   H14 8713   4.036   2.972   7.466  0.3956  0.6505  1.7716
   85CHL1   C15 8714   3.860   3.087   7.519 -0.0308  0.1513 -0.3720
   85CHL1  H15A 8715   3.783   3.150   7.469  0.7931 -1.2014 -3.5926
   85CHL1  H15B 8716   3.813   2.986   7.518 -1.4924  0.7879  0.5430
   85CHL1   C16 8717   3.880   3.135   7.661 -0.3278 -0.4930 -0.0098
   85CHL1  H16A 8718   3.823   3.230   7.669 -0.9425 -0.7796 -0.8265
   85CHL1  H16B 8719   3.836   3.062   7.733 -0.1187 -0.3111  0.3064
   85CHL1   C17 8720   4.028   3.141   7.675 -0.1949  0.3034 -0.2228
   85CHL1   H17 8721   4.068   3.043   7.711  1.8932  0.8246 -0.9778
   85CHL1   C13 8722   4.091   3.168   7.526  0.4794  0.8963 -0.9531
   85CHL1   C18 8723   4.062   3.319   7.490 -0.1028 -0.1568  0.5660
   85CHL1  H18A 8724   3.953   3.339   7.481 -0.3113 -0.8789  1.3453
   85CHL1  H18B 8725   4.122   3.378   7.562  2.0793  0.1670 -1.3623
   85CHL1  H18C 8726   4.105   3.344   7.390 -0.5130 -1.5430  0.0031
   85CHL1   C12 8727   4.238   3.131   7.497 -0.1353  0.4537 -0.6073
   85CHL1  H12A 8728   4.298   3.213   7.542  0.9495 -0.4628 -0.3392
   85CHL1  H12B 8729   4.261   3.030   7.538  1.0848  0.8550 -0.2534
   85CHL1   C11 8730   4.264   3.141   7.347  0.5358 -0.7499  0.0531
   85CHL1  H11A 8731   4.265   3.249   7.323  0.2759 -0.6626  0.4202
   85CHL1  H11B 8732   4.365   3.100   7.326  0.3263 -1.3278  0.1373
   85CHL1    C9 8733   4.164   3.062   7.259  0.4468 -0.5599  0.1029
   85CHL1    H9 8734   4.186   2.954   7.273  1.6578 -0.1357  1.7806
   85CHL1   C10 8735   4.185   3.092   7.106  0.9176  0.6925  0.1354
   85CHL1   C19 8736   4.206   3.245   7.082 -0.0002  0.2403  0.0555
   85CHL1  H19A 8737   4.310   3.268   7.115 -0.0182  1.9661 -0.9725
   85CHL1  H19B 8738   4.205   3.262   6.973 -1.7737 -3.3056 -0.6272
   85CHL1  H19C 8739   4.126   3.299   7.137  0.3152 -0.2557  1.0291
   85CHL1    C1 8740   4.308   3.010   7.057  0.1693 -0.2781  0.3452
   85CHL1   H1A 8741   4.397   3.046   7.114 -0.3656 -0.0636  1.0559
   85CHL1   H1B 8742   4.303   2.904   7.091  0.8716 -0.8788 -1.3224
   85CHL1    C2 8743   4.322   3.017   6.902 -0.3482  0.0784 -0.5924
   85CHL1   H2A 8744   4.405   2.968   6.848 -0.7314 -0.2051 -0.9356
   85CHL1   H2B 8745   4.338   3.125   6.881 -0.0204  0.2336  0.4101
   85CHL1   C20 8746   4.065   3.240   7.789 -0.1026  0.2389  0.1951
   85CHL1   H20 8747   4.038   3.345   7.764  0.0371 -0.1696 -1.8170
   85CHL1   C21 8748   4.219   3.234   7.812 -0.1759 -0.2095 -0.1828
   85CHL1  H21A 8749   4.242   3.296   7.901  1.0108 -2.4028  1.1417
   85CHL1  H21B 8750   4.268   3.266   7.717  3.1550  0.8695  1.7097
   85CHL1  H21C 8751   4.246   3.134   7.852 -1.6234  0.0295  1.5086
   85CHL1   C22 8752   3.991   3.213   7.923  0.2001 -0.1226 -0.2705
   85CHL1  H22A 8753   3.989   3.305   7.985 -0.5809 -1.6550  2.1286
   85CHL1  H22B 8754   3.882   3.207   7.903 -0.3693  1.1905  2.0926
   85CHL1   C23 8755   4.028   3.093   8.010  0.0480  0.3902  0.4027
   85CHL1  H23A 8756   4.004   2.994   7.967 -0.1279 -0.1328  1.6629
   85CHL1  H23B 8757   4.139   3.088   8.015 -0.0401 -2.3827  2.5710
   85CHL1   C24 8758   3.966   3.103   8.152  0.4144  0.5386  0.3649
   85CHL1  H24A 8759   4.006   3.191   8.207  0.5814  0.6372  0.0883
   85CHL1  H24B 8760   3.855   3.114   8.147  0.2564 -1.2146 -1.9897
   85CHL1   C25 8761   4.001   2.977   8.239  0.0155 -0.5573 -0.5192
   85CHL1   H25 8762   3.955   2.992   8.339 -0.3705 -1.8580 -0.4799
   85CHL1   C26 8763   3.939   2.843   8.194  0.0578  0.0127 -0.7855
   85CHL1  H26A 8764   3.915   2.770   8.275  0.8474  0.7057  0.0965
   85CHL1  H26B 8765   3.842   2.860   8.144  1.1813  2.0969 -2.4138
   85CHL1  H26C 8766   3.998   2.792   8.115 -1.3753 -0.1389 -1.7896
   85CHL1   C27 8767   4.146   2.952   8.270 -0.3832 -1.0010 -0.0986
   85CHL1  H27A 8768   4.199   3.049   8.279 -1.0911 -0.5528 -0.6691
   85CHL1  H27B 8769   4.161   2.894   8.364 -1.7337  0.7304  1.2720
   85CHL1  H27C 8770   4.189   2.904   8.180  1.5576  3.3998 -1.8344
   86CHL1    C3 8771   6.771   1.772   7.102  0.1474 -0.2268 -0.7298
   86CHL1    H3 8772   6.823   1.865   7.135  0.2701 -0.6391  0.2690
   86CHL1    O3 8773   6.815   1.747   6.972 -0.3010  0.3820 -0.2971
   86CHL1   H3' 8774   6.875   1.672   6.977 -0.5878 -0.0121 -2.0704
   86CHL1    C4 8775   6.792   1.645   7.195  0.1083 -0.3505 -1.3932
   86CHL1   H4A 8776   6.728   1.561   7.160 -1.4299 -0.0975  0.6234
   86CHL1   H4B 8777   6.894   1.602   7.190  0.2821 -0.7298  2.6303
   86CHL1    C5 8778   6.734   1.664   7.334  0.6268 -0.2463  0.0592
   86CHL1    C6 8779   6.818   1.641   7.437 -0.3140 -0.6983  0.2435
   86CHL1    H6 8780   6.918   1.599   7.417  0.2428  0.7955 -0.2178
   86CHL1    C7 8781   6.759   1.653   7.582  0.0805 -0.7541 -0.3136
   86CHL1   H7A 8782   6.778   1.561   7.641 -1.9152 -1.2930 -0.4211
   86CHL1   H7B 8783   6.814   1.740   7.622  1.1257 -0.6819 -1.8518
   86CHL1    C8 8784   6.610   1.680   7.601 -0.6015 -0.2470 -0.6613
   86CHL1    H8 8785   6.557   1.583   7.596 -1.4061  0.1100  0.5762
   86CHL1   C14 8786   6.579   1.757   7.730  0.5096 -1.5464 -0.3264
   86CHL1   H14 8787   6.636   1.851   7.717 -4.1040  1.5080 -0.5520
   86CHL1   C15 8788   6.641   1.700   7.862 -0.1849  0.2205  0.7115
   86CHL1  H15A 8789   6.611   1.593   7.872 -1.3190  0.4662  0.0405
   86CHL1  H15B 8790   6.748   1.730   7.859 -0.1767  0.1607 -2.4349
   86CHL1   C16 8791   6.574   1.768   7.979  0.7539  0.2221  0.3795
   86CHL1  H16A 8792   6.520   1.691   8.038 -0.8902 -0.5906 -2.0157
   86CHL1  H16B 8793   6.641   1.835   8.036 -0.1578  4.0760 -2.6167
   86CHL1   C17 8794   6.453   1.847   7.905  0.4930  0.0159 -0.5581
   86CHL1   H17 8795   6.492   1.949   7.886 -0.0393  0.7482  1.8524
   86CHL1   C13 8796   6.432   1.781   7.764 -1.2659  0.7616 -0.4745
   86CHL1   C18 8797   6.360   1.642   7.777  0.1217  0.2407  0.0939
   86CHL1  H18A 8798   6.346   1.581   7.685  1.3033 -0.8425  0.5948
   86CHL1  H18B 8799   6.408   1.585   7.860  0.1729  1.1761  0.7134
   86CHL1  H18C 8800   6.257   1.661   7.812  0.3734 -0.1345  1.0664
   86CHL1   C12 8801   6.365   1.857   7.647  0.2038 -0.6931  0.1958
   86CHL1  H12A 8802   6.255   1.871   7.650  0.2368 -0.5902  1.4949
   86CHL1  H12B 8803   6.413   1.956   7.634 -2.0924  0.6724  1.3892
   86CHL1   C11 8804   6.395   1.783   7.511  0.1428  0.3331 -0.3020
   86CHL1  H11A 8805   6.346   1.683   7.516 -1.3579  1.0930  3.5774
   86CHL1  H11B 8806   6.354   1.838   7.424 -0.1858 -1.7909 -1.5712
   86CHL1    C9 8807   6.551   1.767   7.488  0.2643 -0.0800 -0.4595
   86CHL1    H9 8808   6.593   1.869   7.499  2.4063 -1.0078  0.5296
   86CHL1   C10 8809   6.582   1.712   7.341  0.7447  0.0298  0.1536
   86CHL1   C19 8810   6.497   1.583   7.308  0.0187  0.3863 -0.3988
   86CHL1  H19A 8811   6.486   1.517   7.396  1.8640  0.4081 -0.1194
   86CHL1  H19B 8812   6.399   1.626   7.277 -0.8202 -0.5018  0.9543
   86CHL1  H19C 8813   6.544   1.526   7.225 -0.8795 -1.3474  0.2421
   86CHL1    C1 8814   6.560   1.827   7.235 -0.5741  0.0597  0.4411
   86CHL1   H1A 8815   6.451   1.837   7.214 -0.5689 -0.6824  0.0157
   86CHL1   H1B 8816   6.585   1.919   7.292 -3.0228 -0.5831  2.7666
   86CHL1    C2 8817   6.621   1.801   7.097 -0.2338  0.2680 -0.3351
   86CHL1   H2A 8818   6.614   1.898   7.043 -1.1573  0.5103  0.1943
   86CHL1   H2B 8819   6.560   1.727   7.042  1.8869 -0.9582 -1.1541
   86CHL1   C20 8820   6.316   1.881   7.976 -0.1440  0.8328 -1.0906
   86CHL1   H20 8821   6.238   1.834   7.912  0.3216 -2.6256  0.6518
   86CHL1   C21 8822   6.289   2.035   7.973  0.1175 -0.3063 -0.3665
   86CHL1  H21A 8823   6.187   2.060   8.008 -0.6922 -0.7509 -2.2886
   86CHL1  H21B 8824   6.308   2.080   7.873  5.6566  0.7813  0.8437
   86CHL1  H21C 8825   6.364   2.080   8.042 -1.0053  2.5797 -0.8674
   86CHL1   C22 8826   6.292   1.809   8.112 -0.1709 -0.0281 -0.0606
   86CHL1  H22A 8827   6.323   1.705   8.091  4.5924  1.2727 -0.6862
   86CHL1  H22B 8828   6.366   1.848   8.185 -0.4845  2.2765 -0.8698
   86CHL1   C23 8829   6.154   1.827   8.175 -0.5309  0.4156 -0.0172
   86CHL1  H23A 8830   6.154   1.934   8.205  0.0619  1.1444 -2.4522
   86CHL1  H23B 8831   6.078   1.807   8.096  1.3186 -0.1747 -1.7133
   86CHL1   C24 8832   6.132   1.731   8.296 -0.0067  0.2787  0.3550
   86CHL1  H24A 8833   6.134   1.625   8.263  1.6382  0.7748 -1.3274
   86CHL1  H24B 8834   6.222   1.733   8.360  1.7456 -2.5919 -1.7775
   86CHL1   C25 8835   6.006   1.760   8.376 -0.5576 -0.1283 -0.1716
   86CHL1   H25 8836   5.920   1.728   8.313 -0.5195 -1.8610  0.6134
   86CHL1   C26 8837   6.009   1.684   8.510 -0.6368 -0.0825 -0.0545
   86CHL1  H26A 8838   6.104   1.712   8.561  0.3247 -0.9739 -1.2854
   86CHL1  H26B 8839   5.930   1.714   8.582 -0.7277 -0.2288 -0.0942
   86CHL1  H26C 8840   6.012   1.574   8.497 -0.4718 -0.0012 -0.7437
   86CHL1   C27 8841   6.000   1.909   8.414 -0.1075 -0.1530  0.3205
   86CHL1  H27A 8842   5.999   1.963   8.317  1.1270  1.6645  1.2750
   86CHL1  H27B 8843   5.907   1.925   8.473 -1.4376 -4.5946 -0.1865
   86CHL1  H27C 8844   6.086   1.930   8.481 -2.2062 -0.8221  3.4801
   87CHL1    C3 8845   1.850   3.192   7.155  0.0241  0.4480  0.0124
   87CHL1    H3 8846   1.942   3.130   7.150  1.3137  2.3606 -1.7252
   87CHL1    O3 8847   1.814   3.224   7.025 -0.3969  0.0396  0.4603
   87CHL1   H3' 8848   1.726   3.260   7.041 -0.8743 -0.7952 -0.1458
   87CHL1    C4 8849   1.738   3.101   7.207  0.4279 -0.0813  0.0012
   87CHL1   H4A 8850   1.641   3.156   7.200  1.4861  1.5974 -2.5541
   87CHL1   H4B 8851   1.742   3.008   7.147  3.8786 -0.7376  1.0553
   87CHL1    C5 8852   1.758   3.075   7.353 -0.2328 -0.0809 -0.1335
   87CHL1    C6 8853   1.756   2.945   7.389  0.5086  0.1296 -0.0794
   87CHL1    H6 8854   1.743   2.868   7.312  0.6423  1.0203 -1.0056
   87CHL1    C7 8855   1.767   2.903   7.535  0.0386  0.0833  0.2064
   87CHL1   H7A 8856   1.689   2.828   7.561 -0.3484 -0.3097 -1.9237
   87CHL1   H7B 8857   1.864   2.855   7.560  0.9601  2.0051  0.5540
   87CHL1    C8 8858   1.759   3.017   7.648  0.3999 -0.3759  0.0512
   87CHL1    H8 8859   1.651   3.045   7.659  1.3236  3.3463  1.1710
   87CHL1   C14 8860   1.814   2.983   7.790  0.4273 -0.4311 -0.1169
   87CHL1   H14 8861   1.923   2.965   7.782  0.4846 -0.2901  0.3272
   87CHL1   C15 8862   1.767   2.850   7.856 -0.2748  0.5090  0.0562
   87CHL1  H15A 8863   1.658   2.844   7.833 -0.4140  1.9459  0.2377
   87CHL1  H15B 8864   1.814   2.757   7.818 -0.0313  1.0230 -0.9163
   87CHL1   C16 8865   1.798   2.873   8.003 -0.6650 -0.4006 -0.2480
   87CHL1  H16A 8866   1.716   2.849   8.074  1.6967 -2.2142  2.0634
   87CHL1  H16B 8867   1.881   2.809   8.039  0.0091 -0.0977 -1.2109
   87CHL1   C17 8868   1.850   3.021   8.018  0.3399  0.0724 -0.5709
   87CHL1   H17 8869   1.960   3.009   8.013  0.2266 -0.5132 -2.2071
   87CHL1   C13 8870   1.799   3.100   7.892  0.3160  0.4814  0.1673
   87CHL1   C18 8871   1.647   3.142   7.919 -0.2692 -0.0527 -0.5829
   87CHL1  H18A 8872   1.601   3.161   7.820  3.4019  1.9422 -2.1429
   87CHL1  H18B 8873   1.583   3.065   7.967 -1.4235  0.8284 -0.6786
   87CHL1  H18C 8874   1.651   3.232   7.984  0.6855  0.2994 -1.1049
   87CHL1   C12 8875   1.879   3.216   7.840  0.5606  0.5875 -0.2912
   87CHL1  H12A 8876   1.863   3.304   7.906 -4.6749 -1.7767  2.0759
   87CHL1  H12B 8877   1.986   3.188   7.834  0.5723  0.6760 -0.5578
   87CHL1   C11 8878   1.834   3.262   7.694  0.5425 -0.2107 -0.2282
   87CHL1  H11A 8879   1.733   3.302   7.719  0.0887 -0.4656 -1.5705
   87CHL1  H11B 8880   1.913   3.330   7.654 -1.5275  1.3687 -1.8606
   87CHL1    C9 8881   1.829   3.145   7.592 -0.2427  0.3169 -0.7609
   87CHL1    H9 8882   1.934   3.112   7.575 -0.7682 -2.5760  0.9984
   87CHL1   C10 8883   1.783   3.195   7.447  0.4922 -0.2811 -0.0778
   87CHL1   C19 8884   1.649   3.265   7.467 -1.1869  0.0253  0.1218
   87CHL1  H19A 8885   1.576   3.197   7.517 -1.4891 -0.1242 -0.5113
   87CHL1  H19B 8886   1.656   3.350   7.538 -1.3439 -1.5438  2.1288
   87CHL1  H19C 8887   1.594   3.308   7.381 -2.0856  1.3163  1.2837
   87CHL1    C1 8888   1.890   3.287   7.392 -0.4087 -0.1729 -0.0087
   87CHL1   H1A 8889   1.898   3.384   7.445  1.2170 -0.8745  1.1056
   87CHL1   H1B 8890   1.985   3.231   7.402 -0.0056  0.2573 -1.2576
   87CHL1    C2 8891   1.867   3.322   7.242  0.1235  0.0424  0.6965
   87CHL1   H2A 8892   1.954   3.376   7.199 -0.5307  0.2607 -0.3853
   87CHL1   H2B 8893   1.776   3.385   7.250 -0.9366 -1.6299  2.8292
   87CHL1   C20 8894   1.814   3.079   8.162 -0.0527  0.2177  0.4806
   87CHL1   H20 8895   1.704   3.076   8.168  0.0273 -2.5223  5.0225
   87CHL1   C21 8896   1.863   3.227   8.178 -0.2226 -0.1552 -0.2292
   87CHL1  H21A 8897   1.974   3.221   8.177 -0.3000 -2.1930  0.0922
   87CHL1  H21B 8898   1.826   3.275   8.271  0.9304  1.0518 -0.3529
   87CHL1  H21C 8899   1.831   3.291   8.093  1.7856 -2.4329 -2.8771
   87CHL1   C22 8900   1.867   2.984   8.274  0.2726  0.0996 -0.0195
   87CHL1  H22A 8901   1.853   2.875   8.257 -0.0596  0.0528  0.5235
   87CHL1  H22B 8902   1.978   2.995   8.276  0.4973 -1.7440  1.2523
   87CHL1   C23 8903   1.811   3.026   8.412  0.8849  0.0420 -0.1405
   87CHL1  H23A 8904   1.866   3.113   8.455 -1.1277  0.7866  1.0901
   87CHL1  H23B 8905   1.706   3.052   8.383  0.5937 -2.1320 -1.1848
   87CHL1   C24 8906   1.796   2.914   8.518 -0.5063  0.0223 -0.0026
   87CHL1  H24A 8907   1.727   2.837   8.476  0.8504 -0.9127 -0.5908
   87CHL1  H24B 8908   1.896   2.868   8.533  0.5277  2.3701  0.7514
   87CHL1   C25 8909   1.739   2.950   8.656  0.4001  0.8299 -0.4271
   87CHL1   H25 8910   1.631   2.974   8.640 -0.5466 -0.7049  2.7679
   87CHL1   C26 8911   1.736   2.831   8.753 -0.1578 -0.1335 -0.9191
   87CHL1  H26A 8912   1.707   2.859   8.856  0.3119 -3.2130  0.1624
   87CHL1  H26B 8913   1.673   2.749   8.713  0.4616  0.1434 -2.5662
   87CHL1  H26C 8914   1.836   2.784   8.763 -1.4842 -2.7809  1.0085
   87CHL1   C27 8915   1.796   3.082   8.724 -0.1720  0.6451 -0.0650
   87CHL1  H27A 8916   1.907   3.089   8.734 -0.3986  1.9937  2.1627
   87CHL1  H27B 8917   1.764   3.177   8.677  1.2776  1.4290  0.4815
   87CHL1  H27C 8918   1.755   3.092   8.827  2.2895 -2.1563  1.3691
   88CHL1    C3 8919   4.509   5.528   6.966  0.0931 -0.0860  0.1203
   88CHL1    H3 8920   4.514   5.639   6.974  0.5019  0.0568 -1.6652
   88CHL1    O3 8921   4.477   5.505   6.828 -0.5272 -0.4219  0.2879
   88CHL1   H3' 8922   4.484   5.411   6.810 -0.0825 -0.3608  0.1349
   88CHL1    C4 8923   4.639   5.452   7.001  0.0967 -0.2201 -0.6441
   88CHL1   H4A 8924   4.634   5.351   6.954 -2.3366 -0.9690  1.0116
   88CHL1   H4B 8925   4.723   5.510   6.958  1.3083 -0.5215  1.2119
   88CHL1    C5 8926   4.667   5.437   7.147  0.9949  0.0532  0.2180
   88CHL1    C6 8927   4.780   5.488   7.198  0.4705  0.3281 -0.9038
   88CHL1    H6 8928   4.855   5.526   7.127 -0.8183  2.4362 -1.2007
   88CHL1    C7 8929   4.813   5.453   7.340  0.0051 -0.3535 -0.1891
   88CHL1   H7A 8930   4.913   5.406   7.349  0.6866  1.4227  2.3523
   88CHL1   H7B 8931   4.824   5.544   7.402 -2.2374  0.4545 -0.8637
   88CHL1    C8 8932   4.719   5.358   7.412  0.0737 -0.2727 -0.0604
   88CHL1    H8 8933   4.746   5.254   7.383  1.4161  0.0409  0.0177
   88CHL1   C14 8934   4.735   5.370   7.562 -0.3026 -0.0801  0.8686
   88CHL1   H14 8935   4.721   5.479   7.576 -0.0790  0.2754 -1.2612
   88CHL1   C15 8936   4.868   5.349   7.636  0.4765 -0.1454 -0.8020
   88CHL1  H15A 8937   4.915   5.249   7.619 -1.2953 -1.2999  0.7100
   88CHL1  H15B 8938   4.942   5.421   7.595 -0.0046 -0.8660 -3.0505
   88CHL1   C16 8939   4.828   5.349   7.786 -0.8440 -0.1064 -0.3024
   88CHL1  H16A 8940   4.877   5.271   7.847 -1.3290 -2.0527 -2.2793
   88CHL1  H16B 8941   4.873   5.435   7.839  0.9406 -0.9092 -0.4347
   88CHL1   C17 8942   4.680   5.348   7.793  0.1827 -0.0381  0.2065
   88CHL1   H17 8943   4.649   5.454   7.799  1.1338  0.2879 -0.4311
   88CHL1   C13 8944   4.626   5.308   7.649 -1.0559  0.7869 -0.7711
   88CHL1   C18 8945   4.637   5.157   7.630  0.0715  0.0660 -0.6485
   88CHL1  H18A 8946   4.644   5.114   7.527  0.7404 -2.0016  0.2131
   88CHL1  H18B 8947   4.722   5.106   7.680 -0.8307  0.0618  0.9517
   88CHL1  H18C 8948   4.548   5.108   7.674 -1.4698  0.7242 -2.8526
   88CHL1   C12 8949   4.492   5.356   7.610 -1.1328  0.0931 -0.1494
   88CHL1  H12A 8950   4.413   5.303   7.667  0.8725 -3.2959 -0.3116
   88CHL1  H12B 8951   4.471   5.465   7.616 -2.1766 -0.0475 -0.8070
   88CHL1   C11 8952   4.470   5.324   7.458  0.6403 -0.5276 -0.2617
   88CHL1  H11A 8953   4.468   5.213   7.448 -1.6963 -0.5996  0.6260
   88CHL1  H11B 8954   4.368   5.359   7.433  0.8298  1.9005  2.0002
   88CHL1    C9 8955   4.572   5.384   7.366 -0.3418  0.0048 -0.0717
   88CHL1    H9 8956   4.558   5.493   7.383  0.6014  0.7258 -3.2683
   88CHL1   C10 8957   4.548   5.368   7.216 -0.2833 -0.3225 -0.0865
   88CHL1   C19 8958   4.540   5.217   7.176 -0.1835 -0.3843  0.5380
   88CHL1  H19A 8959   4.522   5.201   7.068 -2.3395  0.4736  0.7398
   88CHL1  H19B 8960   4.634   5.166   7.208  0.1989  0.0131  0.0497
   88CHL1  H19C 8961   4.450   5.167   7.218 -0.6742  0.1961  0.1843
   88CHL1    C1 8962   4.419   5.446   7.181  0.0745 -1.4777 -0.3700
   88CHL1   H1A 8963   4.336   5.405   7.242  0.4440  1.1396  2.1226
   88CHL1   H1B 8964   4.422   5.545   7.232  0.3067 -2.5498  1.8367
   88CHL1    C2 8965   4.393   5.454   7.030  0.0726  0.4061  0.2070
   88CHL1   H2A 8966   4.296   5.498   6.998  0.0320 -0.1108 -0.4039
   88CHL1   H2B 8967   4.382   5.349   6.997 -1.9012  0.1078  1.5606
   88CHL1   C20 8968   4.627   5.278   7.928 -0.1165 -0.2624  0.1643
   88CHL1   H20 8969   4.658   5.171   7.918  0.8244  0.1262 -1.4788
   88CHL1   C21 8970   4.468   5.266   7.923 -0.2229  0.1849 -0.1024
   88CHL1  H21A 8971   4.419   5.225   8.014 -2.0576  2.1964 -0.1225
   88CHL1  H21B 8972   4.452   5.183   7.851 -3.0627 -0.8105  1.5371
   88CHL1  H21C 8973   4.411   5.358   7.900 -0.4323 -0.5548 -2.9215
   88CHL1   C22 8974   4.689   5.339   8.054  1.3380  0.2055 -0.6368
   88CHL1  H22A 8975   4.800   5.337   8.054  1.3380 -2.1984 -0.5958
   88CHL1  H22B 8976   4.659   5.446   8.048 -1.1117 -0.4897 -2.6263
   88CHL1   C23 8977   4.628   5.283   8.183  0.0595  1.1127 -0.7103
   88CHL1  H23A 8978   4.523   5.311   8.158  0.5021 -0.5628 -5.4617
   88CHL1  H23B 8979   4.629   5.172   8.186  2.0436  0.9651 -3.5928
   88CHL1   C24 8980   4.689   5.336   8.312  0.2812 -0.3911 -0.6627
   88CHL1  H24A 8981   4.676   5.263   8.395  1.2832  0.0469 -0.1064
   88CHL1  H24B 8982   4.795   5.337   8.280 -0.0520  0.9340 -1.7880
   88CHL1   C25 8983   4.653   5.478   8.348 -0.6319 -0.2752 -0.5929
   88CHL1   H25 8984   4.674   5.549   8.265  0.9803  0.6153  0.5220
   88CHL1   C26 8985   4.500   5.512   8.393  0.2424 -0.2039 -0.3065
   88CHL1  H26A 8986   4.468   5.426   8.455 -0.4538  0.2879  0.0330
   88CHL1  H26B 8987   4.492   5.611   8.443  0.0991  0.2617 -1.2352
   88CHL1  H26C 8988   4.442   5.513   8.298  0.3126  0.1632 -0.3474
   88CHL1   C27 8989   4.749   5.533   8.454  0.5792 -0.5083  0.6261
   88CHL1  H27A 8990   4.762   5.452   8.528  1.4159 -1.6007 -0.6657
   88CHL1  H27B 8991   4.845   5.548   8.400 -0.2248  0.6426 -0.5738
   88CHL1  H27C 8992   4.709   5.631   8.487 -1.1851  0.0744 -2.7389
   89CHL1    C3 8993   0.931   5.072   6.922  0.2004  0.7123 -0.1829
   89CHL1    H3 8994   0.980   5.169   6.946  0.9642  0.1528  0.5942
   89CHL1    O3 8995   0.943   5.044   6.782  0.5556  0.1042 -0.0912
   89CHL1   H3' 8996   0.890   4.966   6.765  2.2122 -1.4885  1.5423
   89CHL1    C4 8997   1.009   4.964   6.998  0.2810  0.2886 -1.0767
   89CHL1   H4A 8998   0.976   4.868   6.954 -2.8996  0.6880  0.1443
   89CHL1   H4B 8999   1.113   4.984   6.963  0.7171 -1.0800 -0.6134
   89CHL1    C5 9000   0.991   4.980   7.147  0.3468 -0.6494 -0.2493
   89CHL1    C6 9001   1.092   4.974   7.224  0.0073 -0.7989  0.0090
   89CHL1    H6 9002   1.194   4.983   7.182 -1.2639  1.1292 -2.9760
   89CHL1    C7 9003   1.075   4.947   7.374 -0.7733 -0.6396  0.5345
   89CHL1   H7A 9004   1.152   4.877   7.414  0.5219  0.6722  0.4182
   89CHL1   H7B 9005   1.090   5.043   7.428  0.3980 -0.7424  0.4090
   89CHL1    C8 9006   0.934   4.894   7.407  0.0009 -0.2017  0.3230
   89CHL1    H8 9007   0.935   4.783   7.398  1.2795 -0.1679 -0.1189
   89CHL1   C14 9008   0.905   4.911   7.557  0.9432 -0.5182  0.0041
   89CHL1   H14 9009   0.893   5.020   7.573 -0.2919 -0.5563 -0.5854
   89CHL1   C15 9010   1.013   4.862   7.654 -0.3495  0.2279 -0.2976
   89CHL1  H15A 9011   1.050   4.764   7.618  1.3886  0.6982  0.1059
   89CHL1  H15B 9012   1.103   4.927   7.656  0.7652 -1.1860 -1.5318
   89CHL1   C16 9013   0.947   4.847   7.793  0.1508  0.1758 -0.4625
   89CHL1  H16A 9014   0.969   4.742   7.821  2.6107  0.2804 -1.7347
   89CHL1  H16B 9015   0.990   4.915   7.870 -0.5954 -0.4344  0.5220
   89CHL1   C17 9016   0.794   4.882   7.764 -0.1791  0.3676  0.1416
   89CHL1   H17 9017   0.798   4.991   7.781  2.6025  0.4936 -0.8619
   89CHL1   C13 9018   0.772   4.852   7.614  0.6549  0.3300 -0.2905
   89CHL1   C18 9019   0.761   4.698   7.599  0.0866 -0.2269 -0.3553
   89CHL1  H18A 9020   0.667   4.663   7.647  0.6271 -1.6265 -0.2928
   89CHL1  H18B 9021   0.752   4.661   7.494 -3.0363 -1.1637  0.1546
   89CHL1  H18C 9022   0.843   4.640   7.645  0.5285  0.7370  0.0915
   89CHL1   C12 9023   0.653   4.922   7.540  0.3716 -0.5428  0.0461
   89CHL1  H12A 9024   0.553   4.874   7.547  0.6773 -0.9907  1.8396
   89CHL1  H12B 9025   0.639   5.027   7.574 -1.1995 -0.9749  0.8743
   89CHL1   C11 9026   0.684   4.920   7.386 -0.4794  0.8073  0.6491
   89CHL1  H11A 9027   0.683   4.812   7.362 -1.4341  0.5700  1.6253
   89CHL1  H11B 9028   0.607   4.972   7.325 -1.1980  0.2864  1.0815
   89CHL1    C9 9029   0.821   4.968   7.337  0.0343  0.4226  0.4856
   89CHL1    H9 9030   0.825   5.076   7.365  3.9511 -0.0755  2.4411
   89CHL1   C10 9031   0.844   4.961   7.181 -0.5325  0.5745 -0.6184
   89CHL1   C19 9032   0.802   4.814   7.130  0.8706 -0.1194 -0.2186
   89CHL1  H19A 9033   0.879   4.742   7.164 -0.9146 -2.4760 -0.9481
   89CHL1  H19B 9034   0.704   4.782   7.169  0.6662 -1.5927 -1.8107
   89CHL1  H19C 9035   0.781   4.817   7.021 -2.4301 -0.4579  0.3058
   89CHL1    C1 9036   0.775   5.083   7.108  0.1247  0.2209 -0.4020
   89CHL1   H1A 9037   0.669   5.084   7.142  1.1191  0.7262  3.0416
   89CHL1   H1B 9038   0.818   5.178   7.146  1.7904 -0.5709 -0.2246
   89CHL1    C2 9039   0.785   5.077   6.954 -0.2261 -0.2815  0.4109
   89CHL1   H2A 9040   0.748   5.170   6.907 -0.2611 -1.2221 -1.5243
   89CHL1   H2B 9041   0.741   4.986   6.907 -0.4442  0.7598 -1.5000
   89CHL1   C20 9042   0.701   4.820   7.869  0.4035  0.1243 -0.1632
   89CHL1   H20 9043   0.706   4.709   7.858 -1.6183 -0.1828  1.3898
   89CHL1   C21 9044   0.556   4.864   7.838  0.5274  0.7988 -0.0235
   89CHL1  H21A 9045   0.488   4.846   7.924  1.2344  3.1353  1.1320
   89CHL1  H21B 9046   0.503   4.826   7.748  0.2341 -0.2790  0.5921
   89CHL1  H21C 9047   0.559   4.975   7.828  0.2231  0.7805 -0.3168
   89CHL1   C22 9048   0.755   4.836   8.019  0.3822  0.1080  0.3877
   89CHL1  H22A 9049   0.862   4.804   8.026  0.0453 -0.9343  0.8996
   89CHL1  H22B 9050   0.754   4.946   8.037  0.2786  0.1445  0.1526
   89CHL1   C23 9051   0.671   4.768   8.128 -0.6455 -0.2177 -0.1699
   89CHL1  H23A 9052   0.561   4.781   8.124 -0.7500 -0.6528  0.9587
   89CHL1  H23B 9053   0.699   4.660   8.123 -0.2417 -0.0945 -0.6643
   89CHL1   C24 9054   0.728   4.815   8.269 -0.8406  0.6040  0.0309
   89CHL1  H24A 9055   0.838   4.812   8.252 -1.0035  0.2810 -1.0547
   89CHL1  H24B 9056   0.699   4.922   8.276  0.9737  1.1261  0.0868
   89CHL1   C25 9057   0.685   4.735   8.389 -0.1856 -0.2348  0.3470
   89CHL1   H25 9058   0.577   4.708   8.381  0.7649 -4.3556 -0.2917
   89CHL1   C26 9059   0.760   4.605   8.399 -0.5011  0.0159 -0.1579
   89CHL1  H26A 9060   0.869   4.628   8.401 -0.7520  1.2341  0.1861
   89CHL1  H26B 9061   0.750   4.558   8.499  0.8821 -0.6555 -0.3131
   89CHL1  H26C 9062   0.737   4.534   8.316 -0.6294 -0.5261  0.3382
   89CHL1   C27 9063   0.680   4.816   8.515 -0.3223 -0.2523  0.5107
   89CHL1  H27A 9064   0.596   4.888   8.505  0.8128  0.9762 -0.6415
   89CHL1  H27B 9065   0.682   4.752   8.606  3.2195 -3.6931 -1.6665
   89CHL1  H27C 9066   0.775   4.874   8.511 -0.7806  0.4283 -1.6526
   90CHL1    C3 9067   2.673   1.927   6.848  0.0826  0.9633 -0.2137
   90CHL1    H3 9068   2.774   1.886   6.869 -1.0106 -1.6719  0.3896
   90CHL1    O3 9069   2.652   1.908   6.707 -0.3051  0.3562 -0.2467
   90CHL1   H3' 9070   2.645   1.813   6.699 -1.7093  0.4342 -0.1711
   90CHL1    C4 9071   2.567   1.858   6.930  0.1105  0.4107  0.8261
   90CHL1   H4A 9072   2.467   1.904   6.916 -0.1035 -0.4409 -0.7223
   90CHL1   H4B 9073   2.563   1.752   6.895  2.0151  0.4443  0.4346
   90CHL1    C5 9074   2.603   1.858   7.077 -0.6289 -0.4784  0.1921
   90CHL1    C6 9075   2.619   1.744   7.143  0.0015  0.1309  0.7314
   90CHL1    H6 9076   2.594   1.649   7.093 -0.7539  1.5425 -1.7504
   90CHL1    C7 9077   2.666   1.737   7.279  0.1537  0.2050  0.0259
   90CHL1   H7A 9078   2.597   1.660   7.319  2.4938 -0.8259  2.4342
   90CHL1   H7B 9079   2.769   1.696   7.282 -0.7062 -2.0964 -0.1392
   90CHL1    C8 9080   2.653   1.871   7.350  0.2671 -0.1921  0.5356
   90CHL1    H8 9081   2.545   1.883   7.375 -0.0859 -1.5573 -0.2833
   90CHL1   C14 9082   2.735   1.862   7.476 -0.5350 -0.0458 -0.6939
   90CHL1   H14 9083   2.842   1.848   7.452 -0.0623 -1.5673  1.9361
   90CHL1   C15 9084   2.692   1.740   7.564  0.1162 -0.2267 -0.8015
   90CHL1  H15A 9085   2.582   1.729   7.575 -0.1076  0.7588 -1.8382
   90CHL1  H15B 9086   2.734   1.646   7.523  0.6611 -0.9491  1.2727
   90CHL1   C16 9087   2.746   1.772   7.709 -0.2458 -0.4251 -0.3777
   90CHL1  H16A 9088   2.655   1.782   7.772  0.3620  1.4893  0.2573
   90CHL1  H16B 9089   2.806   1.686   7.744  0.0620 -1.3256 -2.8742
   90CHL1   C17 9090   2.802   1.918   7.694 -0.1853  0.3355 -0.3002
   90CHL1   H17 9091   2.907   1.914   7.657  0.0330 -1.5865  0.4537
   90CHL1   C13 9092   2.735   1.981   7.571 -0.2699 -0.5214 -0.1462
   90CHL1   C18 9093   2.594   2.014   7.608 -0.1922 -0.5854 -0.4035
   90CHL1  H18A 9094   2.604   2.105   7.670  0.8323  0.9544 -2.6930
   90CHL1  H18B 9095   2.529   2.037   7.521 -1.2251  0.5653  0.6266
   90CHL1  H18C 9096   2.544   1.939   7.673  1.1259 -0.7311  0.4851
   90CHL1   C12 9097   2.809   2.094   7.488 -0.1193  0.3868 -0.1274
   90CHL1  H12A 9098   2.829   2.192   7.536  1.6026  0.1576 -0.2947
   90CHL1  H12B 9099   2.910   2.060   7.457 -1.2069 -0.7648 -2.7761
   90CHL1   C11 9100   2.732   2.115   7.358 -0.1505 -0.1412  0.2265
   90CHL1  H11A 9101   2.634   2.155   7.394 -0.2779  0.4771 -0.7677
   90CHL1  H11B 9102   2.784   2.191   7.296 -1.8163  0.5400 -0.4057
   90CHL1    C9 9103   2.710   1.988   7.270 -0.4069 -0.5838 -0.2170
   90CHL1    H9 9104   2.814   1.953   7.255  0.1256  1.2262 -0.9267
   90CHL1   C10 9105   2.642   2.001   7.128  0.1703  0.0155  0.1331
   90CHL1   C19 9106   2.510   2.073   7.148 -0.0956 -0.7571 -0.4310
   90CHL1  H19A 9107   2.450   2.024   7.228 -0.3279  0.1086 -0.0595
   90CHL1  H19B 9108   2.532   2.175   7.186  0.7299 -1.0458 -0.1167
   90CHL1  H19C 9109   2.452   2.079   7.053  1.0605 -0.2472 -1.1232
   90CHL1    C1 9110   2.740   2.075   7.037  0.8233  0.0415 -0.3288
   90CHL1   H1A 9111   2.766   2.178   7.067  0.8034 -0.6616  2.3897
   90CHL1   H1B 9112   2.833   2.016   7.052 -0.6083 -1.8864  1.4948
   90CHL1    C2 9113   2.699   2.074   6.891 -0.2394 -0.3610 -0.4993
   90CHL1   H2A 9114   2.775   2.119   6.824  1.0151 -1.3913  0.1899
   90CHL1   H2B 9115   2.609   2.139   6.889  0.1314  0.5220  3.6057
   90CHL1   C20 9116   2.816   1.997   7.829  0.5478  0.3756  0.1177
   90CHL1   H20 9117   2.720   2.045   7.858  1.2606  0.7232  2.0443
   90CHL1   C21 9118   2.915   2.115   7.807  0.1991 -0.3479  0.0039
   90CHL1  H21A 9119   2.862   2.198   7.757  0.0853 -0.6616 -0.4011
   90CHL1  H21B 9120   2.999   2.082   7.741  0.4039  1.3895 -0.6441
   90CHL1  H21C 9121   2.942   2.162   7.904 -0.9335 -1.0659  0.6838
   90CHL1   C22 9122   2.856   1.908   7.959  0.1413 -0.4418  0.2166
   90CHL1  H22A 9123   2.785   1.822   7.959  3.6781 -3.6639 -2.1836
   90CHL1  H22B 9124   2.954   1.862   7.934 -0.4226 -1.1929 -0.6973
   90CHL1   C23 9125   2.847   1.973   8.094 -0.2073 -0.9597  0.1701
   90CHL1  H23A 9126   2.841   1.905   8.182  0.5586 -1.7261 -0.3445
   90CHL1  H23B 9127   2.945   2.025   8.102 -1.1365  0.9941 -0.6874
   90CHL1   C24 9128   2.734   2.078   8.116 -0.6282 -0.3148  0.8228
   90CHL1  H24A 9129   2.763   2.175   8.071  1.9235 -1.7441 -0.8985
   90CHL1  H24B 9130   2.648   2.027   8.066  1.8408 -0.8208 -3.4450
   90CHL1   C25 9131   2.702   2.091   8.270 -0.3004 -0.1469 -0.8459
   90CHL1   H25 9132   2.791   2.079   8.335 -0.9790  3.1082  0.9109
   90CHL1   C26 9133   2.649   2.230   8.304 -0.5749  0.5929 -0.4368
   90CHL1  H26A 9134   2.619   2.230   8.412 -1.1414  1.8158 -0.5702
   90CHL1  H26B 9135   2.732   2.303   8.303  1.5622 -1.7164 -1.4484
   90CHL1  H26C 9136   2.564   2.265   8.242 -1.9710 -1.5035  0.1734
   90CHL1   C27 9137   2.593   1.986   8.307  0.0049 -0.4862  0.1531
   90CHL1  H27A 9138   2.582   1.973   8.417 -1.1029 -0.4036  0.0582
   90CHL1  H27B 9139   2.501   2.004   8.249 -0.7573 -1.1325  1.1236
   90CHL1  H27C 9140   2.631   1.887   8.273  0.7897  0.4325 -1.8095
   91CHL1    C3 9141   0.243   3.441   7.181 -0.0109 -0.5484 -0.0058
   91CHL1    H3 9142   0.194   3.540   7.175 -0.9586 -0.7769  2.6364
   91CHL1    O3 9143   0.322   3.418   7.071  0.1258 -0.0519 -0.0894
   91CHL1   H3' 9144   0.401   3.472   7.077 -0.1872  0.6273 -1.4545
   91CHL1    C4 9145   0.334   3.443   7.306  0.0212 -0.1925 -0.4655
   91CHL1   H4A 9146   0.401   3.354   7.300 -0.0045 -0.3617  1.3014
   91CHL1   H4B 9147   0.394   3.535   7.290  1.1646 -0.5346  1.5568
   91CHL1    C5 9148   0.266   3.431   7.447 -0.2647 -0.2805 -1.0575
   91CHL1    C6 9149   0.296   3.515   7.543  0.5620  0.2212 -0.1470
   91CHL1    H6 9150   0.379   3.584   7.522  0.8154  0.2156  0.7809
   91CHL1    C7 9151   0.234   3.530   7.676 -0.1299  0.6870 -0.9770
   91CHL1   H7A 9152   0.317   3.540   7.749 -0.8162 -1.1473  0.1136
   91CHL1   H7B 9153   0.170   3.621   7.672 -0.1178  0.6666 -1.7528
   91CHL1    C8 9154   0.149   3.401   7.704 -0.2946  0.0720  0.7301
   91CHL1    H8 9155   0.210   3.313   7.732 -1.5864 -1.6734 -1.5678
   91CHL1   C14 9156   0.061   3.431   7.823  0.3843 -0.0229 -0.5828
   91CHL1   H14 9157  -0.006   3.515   7.794  0.8933  0.3712 -0.6311
   91CHL1   C15 9158   0.130   3.468   7.952  0.0472  0.4483 -0.2906
   91CHL1  H15A 9159   0.219   3.404   7.971 -0.5034 -1.1472 -2.6861
   91CHL1  H15B 9160   0.163   3.573   7.942  2.0297 -0.1302 -0.1730
   91CHL1   C16 9161   0.020   3.457   8.057 -0.5530  0.1058  0.1473
   91CHL1  H16A 9162   0.067   3.394   8.136 -0.8292  2.8917  2.7326
   91CHL1  H16B 9163  -0.015   3.557   8.090 -2.2840  0.3442 -2.1412
   91CHL1   C17 9164  -0.096   3.375   7.991  0.0719 -0.3833 -0.6687
   91CHL1   H17 9165  -0.167   3.458   7.967  2.4034  2.6118  1.8423
   91CHL1   C13 9166  -0.041   3.312   7.865  0.4227  0.4823  0.6693
   91CHL1   C18 9167   0.037   3.182   7.901  0.2784 -0.5636 -0.4158
   91CHL1  H18A 9168   0.113   3.160   7.823  0.7784  0.2973 -0.1852
   91CHL1  H18B 9169   0.102   3.202   7.989 -0.8115  2.8936 -0.2408
   91CHL1  H18C 9170  -0.032   3.099   7.925 -2.4216  0.9503 -2.4298
   91CHL1   C12 9171  -0.133   3.292   7.742 -0.6749  0.6943 -0.3642
   91CHL1  H12A 9172  -0.199   3.205   7.757 -2.0032  1.5917 -0.8676
   91CHL1  H12B 9173  -0.178   3.392   7.726  0.4788  0.8808 -3.0320
   91CHL1   C11 9174  -0.044   3.252   7.614 -0.2352  0.1630  0.2164
   91CHL1  H11A 9175   0.002   3.151   7.616  0.1565  0.2982 -1.0186
   91CHL1  H11B 9176  -0.120   3.244   7.533  1.1606 -0.9462 -1.0467
   91CHL1    C9 9177   0.064   3.362   7.582  0.0123 -0.5239  0.2172
   91CHL1    H9 9178   0.003   3.451   7.556  1.3624  0.4008  0.1124
   91CHL1   C10 9179   0.157   3.330   7.456  0.2487 -0.3201 -0.2375
   91CHL1   C19 9180   0.241   3.195   7.468  0.7158  0.2479  0.2162
   91CHL1  H19A 9181   0.282   3.193   7.571 -0.7844 -0.2950  0.8290
   91CHL1  H19B 9182   0.172   3.108   7.455  1.0691 -0.0902  0.5860
   91CHL1  H19C 9183   0.322   3.188   7.392  0.4137  0.3506 -0.1215
   91CHL1    C1 9184   0.058   3.327   7.330  1.1796  0.1020  0.6246
   91CHL1   H1A 9185   0.002   3.232   7.342 -1.3674  1.2708 -1.2343
   91CHL1   H1B 9186  -0.021   3.404   7.341 -0.2843 -1.2751  0.2275
   91CHL1    C2 9187   0.130   3.330   7.192  0.1924 -0.1835  0.1042
   91CHL1   H2A 9188   0.052   3.347   7.115 -0.5259 -1.7137  0.4642
   91CHL1   H2B 9189   0.183   3.234   7.179  1.1504  0.3643 -0.1301
   91CHL1   C20 9190  -0.167   3.286   8.092  0.4463  0.3070  0.1776
   91CHL1   H20 9191  -0.096   3.207   8.124  0.5659  0.2398 -0.2431
   91CHL1   C21 9192  -0.287   3.222   8.022  0.2670 -0.1953 -0.4262
   91CHL1  H21A 9193  -0.260   3.146   7.946  3.2991 -0.8344  1.1332
   91CHL1  H21B 9194  -0.341   3.309   7.980  1.4416 -0.0805 -1.7908
   91CHL1  H21C 9195  -0.340   3.167   8.102  2.3021 -0.4490  0.8342
   91CHL1   C22 9196  -0.210   3.359   8.222 -0.1867  0.5205  0.5393
   91CHL1  H22A 9197  -0.125   3.424   8.253  0.7202 -0.8039  0.8851
   91CHL1  H22B 9198  -0.294   3.431   8.210 -0.3118  0.3659  0.4907
   91CHL1   C23 9199  -0.204   3.266   8.343  0.3776  0.5049  0.3066
   91CHL1  H23A 9200  -0.287   3.195   8.324  0.9882 -0.9858  2.7615
   91CHL1  H23B 9201  -0.111   3.206   8.352  0.9331  1.4969  1.6336
   91CHL1   C24 9202  -0.238   3.334   8.476  0.4062  0.6528 -0.7236
   91CHL1  H24A 9203  -0.179   3.427   8.487 -0.2323  1.1683 -1.5894
   91CHL1  H24B 9204  -0.347   3.358   8.480  0.0272 -1.0961  1.5939
   91CHL1   C25 9205  -0.216   3.242   8.596 -0.0300 -0.2315  1.0017
   91CHL1   H25 9206  -0.251   3.143   8.559 -0.6537  0.6479 -0.8835
   91CHL1   C26 9207  -0.070   3.230   8.634 -0.2390 -0.6034 -0.3361
   91CHL1  H26A 9208  -0.052   3.128   8.674  0.2449 -0.9563 -1.4139
   91CHL1  H26B 9209  -0.009   3.231   8.540 -0.8282 -1.7397 -0.7446
   91CHL1  H26C 9210  -0.042   3.304   8.712 -1.2503 -2.0963  1.5066
   91CHL1   C27 9211  -0.301   3.295   8.719 -0.0176 -0.0337 -0.3211
   91CHL1  H27A 9212  -0.409   3.304   8.698 -0.1211  0.0083  0.2182
   91CHL1  H27B 9213  -0.294   3.224   8.803 -0.0153  1.2475  0.7918
   91CHL1  H27C 9214  -0.254   3.392   8.748  0.2085 -0.2629  0.0860
   92CHL1    C3 9215   3.445   6.093   7.020 -0.7019 -0.4168 -0.0233
   92CHL1    H3 9216   3.348   6.124   7.064 -0.1812  2.1253 -0.5092
   92CHL1    O3 9217   3.430   6.089   6.881  0.0646 -0.1051  0.4200
   92CHL1   H3' 9218   3.412   6.003   6.843 -0.6983  0.1973  0.0690
   92CHL1    C4 9219   3.541   6.205   7.055 -0.1057 -1.1421 -0.5954
   92CHL1   H4A 9220   3.645   6.185   7.022  0.2301 -1.3214  0.5328
   92CHL1   H4B 9221   3.516   6.298   6.999  0.9743  1.6618  3.1239
   92CHL1    C5 9222   3.558   6.244   7.201 -0.3431 -0.4948  0.2810
   92CHL1    C6 9223   3.541   6.367   7.253  0.5789 -0.1198  0.3599
   92CHL1    H6 9224   3.516   6.447   7.183  1.8933 -1.0415 -1.2594
   92CHL1    C7 9225   3.565   6.382   7.400  0.1913  0.3822  0.2097
   92CHL1   H7A 9226   3.622   6.475   7.424  0.9600 -0.4490  1.7694
   92CHL1   H7B 9227   3.467   6.400   7.449 -0.1490 -1.2702  0.1887
   92CHL1    C8 9228   3.634   6.262   7.485 -0.0936  0.5480 -0.4611
   92CHL1    H8 9229   3.740   6.272   7.454  0.2159  0.2370  0.4571
   92CHL1   C14 9230   3.629   6.273   7.634 -0.0308  0.5034 -1.1160
   92CHL1   H14 9231   3.522   6.256   7.659  0.2318 -2.7949 -1.8316
   92CHL1   C15 9232   3.670   6.402   7.702  0.8325 -0.1335 -0.2250
   92CHL1  H15A 9233   3.774   6.411   7.664  1.7401 -0.0259  2.1012
   92CHL1  H15B 9234   3.600   6.486   7.680  0.4925 -0.5886 -0.8909
   92CHL1   C16 9235   3.675   6.366   7.856  0.0617  0.6721  0.8960
   92CHL1  H16A 9236   3.776   6.393   7.891  0.1251  1.5005  0.1087
   92CHL1  H16B 9237   3.593   6.404   7.921  0.7909 -1.2936  3.0875
   92CHL1   C17 9238   3.668   6.209   7.852  0.0723  0.2637  0.6148
   92CHL1   H17 9239   3.560   6.189   7.868  0.0825 -0.8221 -0.4926
   92CHL1   C13 9240   3.701   6.160   7.711 -0.2891  0.4602 -0.1827
   92CHL1   C18 9241   3.853   6.168   7.692  0.2392 -0.3604 -0.0349
   92CHL1  H18A 9242   3.889   6.156   7.588 -0.4271 -2.9451 -0.0204
   92CHL1  H18B 9243   3.893   6.257   7.745  4.7197 -2.1207  0.0264
   92CHL1  H18C 9244   3.904   6.081   7.739 -0.7335 -2.3043 -2.3858
   92CHL1   C12 9245   3.630   6.034   7.667  0.0004 -0.2726 -0.4086
   92CHL1  H12A 9246   3.659   5.941   7.721 -1.3350  1.2142  3.1977
   92CHL1  H12B 9247   3.521   6.045   7.682  0.2363  0.6354  0.7620
   92CHL1   C11 9248   3.655   6.013   7.515 -0.5543 -0.1217 -0.5999
   92CHL1  H11A 9249   3.765   5.998   7.507 -0.7480 -3.9581  1.2724
   92CHL1  H11B 9250   3.599   5.919   7.492 -2.4862  1.0282 -0.7689
   92CHL1    C9 9251   3.583   6.123   7.440 -0.6473 -0.6297 -0.1723
   92CHL1    H9 9252   3.475   6.112   7.465 -0.2259 -3.1435  0.9169
   92CHL1   C10 9253   3.593   6.115   7.289  0.2757 -0.0827  0.7256
   92CHL1   C19 9254   3.739   6.067   7.248 -0.5406 -0.9893 -0.3239
   92CHL1  H19A 9255   3.743   5.956   7.263 -1.1791 -0.6702  2.9862
   92CHL1  H19B 9256   3.764   6.108   7.148 -3.1358  0.6338 -0.3955
   92CHL1  H19C 9257   3.815   6.106   7.319  0.2819 -0.4733 -1.4636
   92CHL1    C1 9258   3.499   5.999   7.238  0.3725  0.1045 -0.2524
   92CHL1   H1A 9259   3.517   5.906   7.296 -1.0948 -0.5141 -0.7291
   92CHL1   H1B 9260   3.396   6.014   7.277 -0.1993  0.4393 -1.8121
   92CHL1    C2 9261   3.489   5.967   7.090 -0.0788 -0.2075  0.0886
   92CHL1   H2A 9262   3.415   5.885   7.071 -1.0298  0.6938 -0.1931
   92CHL1   H2B 9263   3.591   5.941   7.054 -0.5695 -2.3314  0.0690
   92CHL1   C20 9264   3.746   6.149   7.969  0.5678  0.0880 -0.4600
   92CHL1   H20 9265   3.851   6.184   7.965 -0.3771  3.1431 -0.8967
   92CHL1   C21 9266   3.752   5.992   7.967 -0.2871  0.0375 -0.5552
   92CHL1  H21A 9267   3.776   5.963   8.072 -0.1171 -0.0715 -0.6244
   92CHL1  H21B 9268   3.824   5.944   7.898 -0.7048  0.4763 -1.3165
   92CHL1  H21C 9269   3.653   5.944   7.956 -0.5755 -0.2992  2.6452
   92CHL1   C22 9270   3.709   6.198   8.121 -0.4724 -0.3790 -0.1670
   92CHL1  H22A 9271   3.782   6.140   8.181  2.7331  0.6631 -2.7892
   92CHL1  H22B 9272   3.726   6.307   8.133 -0.6882 -0.4372  0.7569
   92CHL1   C23 9273   3.560   6.175   8.160 -0.1916  0.6267 -0.1385
   92CHL1  H23A 9274   3.513   6.246   8.089  1.3917  1.3896 -0.4636
   92CHL1  H23B 9275   3.525   6.071   8.141  0.2839  0.7873 -2.1173
   92CHL1   C24 9276   3.535   6.204   8.306  0.4381 -0.4987 -0.5891
   92CHL1  H24A 9277   3.558   6.312   8.322 -0.9982 -0.4758  1.7556
   92CHL1  H24B 9278   3.426   6.191   8.320  0.3554 -1.1827 -1.7652
   92CHL1   C25 9279   3.619   6.112   8.400 -0.0820 -0.1951  0.1670
   92CHL1   H25 9280   3.726   6.128   8.377 -0.1137  2.7571  1.6504
   92CHL1   C26 9281   3.580   6.144   8.547 -0.0966  0.1204 -0.4328
   92CHL1  H26A 9282   3.474   6.117   8.563 -1.2377  3.5755 -1.4077
   92CHL1  H26B 9283   3.641   6.077   8.612 -0.2017 -0.4705 -0.9415
   92CHL1  H26C 9284   3.594   6.252   8.569 -0.1049  0.3904 -1.7025
   92CHL1   C27 9285   3.592   5.960   8.380 -0.5771 -0.7250 -0.7174
   92CHL1  H27A 9286   3.483   5.942   8.374 -0.6993 -0.9570  1.4322
   92CHL1  H27B 9287   3.646   5.936   8.286  1.1051 -2.8691  0.6977
   92CHL1  H27C 9288   3.640   5.895   8.456 -0.3409  0.7906  0.4812
   93CHL1    C3 9289   1.901   2.022   6.934 -0.5647  0.0532  0.0229
   93CHL1    H3 9290   1.939   2.124   6.956  0.7614 -0.4560  0.1793
   93CHL1    O3 9291   1.866   2.011   6.796 -0.0134  0.8019  0.0606
   93CHL1   H3' 9292   1.796   1.947   6.786 -0.2224  1.2526 -1.8141
   93CHL1    C4 9293   2.018   1.925   6.974 -0.0456  0.7510 -0.3774
   93CHL1   H4A 9294   1.976   1.827   6.941 -2.1571  0.9177  1.6099
   93CHL1   H4B 9295   2.099   1.957   6.905  1.0798 -0.2456  0.4406
   93CHL1    C5 9296   2.045   1.916   7.122  0.3793  0.8083 -0.1373
   93CHL1    C6 9297   2.171   1.928   7.164  0.0095  0.3527  0.3453
   93CHL1    H6 9298   2.249   1.938   7.088  0.5166 -1.3259  0.5978
   93CHL1    C7 9299   2.211   1.919   7.312  0.2986  0.1507  0.4751
   93CHL1   H7A 9300   2.307   1.866   7.330 -0.3850 -0.3798  2.9576
   93CHL1   H7B 9301   2.231   2.021   7.350  0.5032  0.2916  0.0025
   93CHL1    C8 9302   2.100   1.849   7.401 -0.0836  0.2256  0.5467
   93CHL1    H8 9303   2.099   1.740   7.383  0.2663  0.1709  0.8636
   93CHL1   C14 9304   2.125   1.864   7.549 -0.2204  0.3923 -0.0330
   93CHL1   H14 9305   2.135   1.974   7.560  0.3519  0.3695 -0.2645
   93CHL1   C15 9306   2.263   1.804   7.589  0.4832  0.3228 -0.2486
   93CHL1  H15A 9307   2.283   1.701   7.552 -2.0027 -0.8897  1.5823
   93CHL1  H15B 9308   2.336   1.876   7.544 -0.0533 -0.0419 -1.7538
   93CHL1   C16 9309   2.256   1.804   7.742  0.6556 -0.8887  0.3122
   93CHL1  H16A 9310   2.285   1.702   7.777 -0.6543 -0.9518  1.2788
   93CHL1  H16B 9311   2.327   1.877   7.786 -0.0484  1.8627 -2.6950
   93CHL1   C17 9312   2.107   1.841   7.778 -0.8507  1.1948 -0.6281
   93CHL1   H17 9313   2.105   1.950   7.798  1.9024  0.9760  1.4714
   93CHL1   C13 9314   2.027   1.811   7.651  0.8540  0.0888  0.2550
   93CHL1   C18 9315   1.998   1.658   7.647  0.1241  0.2090 -0.1968
   93CHL1  H18A 9316   1.908   1.627   7.705 -0.8456 -0.0641 -1.7666
   93CHL1  H18B 9317   1.964   1.640   7.542 -1.8132  4.7864 -0.5813
   93CHL1  H18C 9318   2.083   1.588   7.661  0.9315  0.8312 -1.8054
   93CHL1   C12 9319   1.898   1.895   7.625  0.0715 -0.4096  1.4530
   93CHL1  H12A 9320   1.812   1.856   7.683 -0.1063 -1.1336  0.7215
   93CHL1  H12B 9321   1.920   2.001   7.650  0.9882 -0.8759  2.7256
   93CHL1   C11 9322   1.849   1.880   7.476  0.2901 -0.0759 -0.2903
   93CHL1  H11A 9323   1.807   1.778   7.464  0.0773 -0.0963  0.5337
   93CHL1  H11B 9324   1.761   1.947   7.460 -0.9153 -1.0603  1.7815
   93CHL1    C9 9325   1.961   1.914   7.371 -1.1939 -0.1555  0.3389
   93CHL1    H9 9326   1.978   2.021   7.396  0.6345 -0.9140  2.6559
   93CHL1   C10 9327   1.924   1.895   7.217 -0.3404  0.0430  0.1337
   93CHL1   C19 9328   1.873   1.751   7.197 -0.0869  0.6135 -0.3437
   93CHL1  H19A 9329   1.934   1.679   7.256  0.5439  1.7559  0.4601
   93CHL1  H19B 9330   1.770   1.743   7.238  0.7281  0.1021  1.7556
   93CHL1  H19C 9331   1.869   1.714   7.093  1.0225 -0.8146  0.0876
   93CHL1    C1 9332   1.825   2.003   7.172  0.3432  0.2873 -0.0583
   93CHL1   H1A 9333   1.743   1.999   7.246  0.1384  0.8783 -0.2488
   93CHL1   H1B 9334   1.878   2.100   7.185  0.3780  0.0068  2.2635
   93CHL1    C2 9335   1.780   1.996   7.028 -0.2035 -0.6637 -0.2037
   93CHL1   H2A 9336   1.700   2.071   7.011  0.9897  1.1696  1.7749
   93CHL1   H2B 9337   1.737   1.895   7.010  0.9744 -1.1055 -0.6051
   93CHL1   C20 9338   2.059   1.784   7.916 -0.2502 -0.3206  0.3371
   93CHL1   H20 9339   2.048   1.674   7.912 -0.2769 -0.2742 -1.3770
   93CHL1   C21 9340   1.918   1.838   7.960 -0.4121  0.5897 -1.3166
   93CHL1  H21A 9341   1.907   1.948   7.970  0.6117  0.5005  2.7576
   93CHL1  H21B 9342   1.895   1.797   8.061 -0.2895  1.3437 -0.9709
   93CHL1  H21C 9343   1.844   1.792   7.892 -0.5602 -1.7606  0.3300
   93CHL1   C22 9344   2.167   1.811   8.025  0.1716 -0.1657  0.6117
   93CHL1  H22A 9345   2.261   1.759   7.995  1.5118  1.0645  2.4498
   93CHL1  H22B 9346   2.190   1.920   8.018 -1.2860  0.0505 -2.2936
   93CHL1   C23 9347   2.143   1.776   8.164 -0.0395  0.0982 -0.6352
   93CHL1  H23A 9348   2.223   1.817   8.230 -0.6550  0.5470 -0.1465
   93CHL1  H23B 9349   2.053   1.832   8.198  1.2560  1.6822  0.2947
   93CHL1   C24 9350   2.127   1.623   8.180 -0.2569 -0.6116  0.7683
   93CHL1  H24A 9351   2.024   1.584   8.163 -0.9339  0.2778  2.5640
   93CHL1  H24B 9352   2.203   1.573   8.116 -1.0662 -1.7414  0.6459
   93CHL1   C25 9353   2.150   1.574   8.320 -0.4723  0.1783 -0.1840
   93CHL1   H25 9354   2.250   1.594   8.364  0.8411 -5.4666  0.1780
   93CHL1   C26 9355   2.065   1.642   8.424  0.3515 -0.1023  0.5082
   93CHL1  H26A 9356   2.085   1.752   8.422  0.1408 -0.0701  0.1852
   93CHL1  H26B 9357   1.959   1.619   8.401  0.1552  1.0343  0.1996
   93CHL1  H26C 9358   2.096   1.613   8.527 -0.8032  0.7430  1.1222
   93CHL1   C27 9359   2.118   1.423   8.332 -0.2139 -0.2841  0.1098
   93CHL1  H27A 9360   2.122   1.402   8.441  2.0880  1.0996  0.3658
   93CHL1  H27B 9361   2.016   1.415   8.290  0.5184  1.1105 -2.0850
   93CHL1  H27C 9362   2.189   1.359   8.275 -1.2576 -0.7277 -0.7261
   94CHL1    C3 9363   3.921   6.372   6.994 -0.0966 -0.0263 -1.4014
   94CHL1    H3 9364   3.830   6.322   7.033 -0.6754  1.6701 -0.4517
   94CHL1    O3 9365   3.896   6.386   6.855 -0.0843 -0.6255 -0.0684
   94CHL1   H3' 9366   3.960   6.453   6.830 -0.7178  0.3966  0.9438
   94CHL1    C4 9367   3.937   6.513   7.055 -0.1528  0.0510 -0.5342
   94CHL1   H4A 9368   4.009   6.580   7.004  1.1745  0.0611  1.2391
   94CHL1   H4B 9369   3.838   6.561   7.041 -0.4606  0.1549  1.5756
   94CHL1    C5 9370   3.977   6.496   7.201  0.0356  0.1862  1.1279
   94CHL1    C6 9371   3.902   6.556   7.299 -0.1029 -0.4224  0.4182
   94CHL1    H6 9372   3.819   6.619   7.264  1.4730  1.2500 -0.4719
   94CHL1    C7 9373   3.948   6.560   7.445 -0.3197  0.8316 -0.1343
   94CHL1   H7A 9374   3.945   6.661   7.491 -1.9082  0.3109  1.0070
   94CHL1   H7B 9375   3.874   6.496   7.497 -1.3978  0.8315 -1.6202
   94CHL1    C8 9376   4.091   6.500   7.476 -0.4074 -0.8519  0.3529
   94CHL1    H8 9377   4.166   6.579   7.454 -0.2238 -1.2916 -0.6566
   94CHL1   C14 9378   4.096   6.442   7.620 -0.0714 -0.7862 -0.8405
   94CHL1   H14 9379   4.037   6.347   7.616 -0.4551 -0.5016 -2.6298
   94CHL1   C15 9380   4.050   6.520   7.739  0.0970 -0.7847 -0.0459
   94CHL1  H15A 9381   4.098   6.620   7.731  0.3235 -0.9837 -1.4201
   94CHL1  H15B 9382   3.939   6.529   7.743 -0.0915 -2.6939 -0.1618
   94CHL1   C16 9383   4.103   6.436   7.859  0.8251  0.1706 -0.4924
   94CHL1  H16A 9384   4.144   6.506   7.935  0.7845 -1.0304  0.6648
   94CHL1  H16B 9385   4.015   6.386   7.904  1.5088  2.1151  3.4161
   94CHL1   C17 9386   4.204   6.343   7.793 -0.1889 -0.1389 -0.1473
   94CHL1   H17 9387   4.152   6.246   7.776 -1.5412  0.6333 -0.5938
   94CHL1   C13 9388   4.233   6.393   7.654 -1.2228 -0.3082  0.5803
   94CHL1   C18 9389   4.335   6.510   7.664  0.1229 -0.0217  0.4012
   94CHL1  H18A 9390   4.312   6.566   7.758  1.7100  2.5909 -0.6540
   94CHL1  H18B 9391   4.439   6.471   7.676  0.0698 -0.4573 -0.5187
   94CHL1  H18C 9392   4.331   6.580   7.578 -1.8175 -0.6619 -0.0698
   94CHL1   C12 9393   4.286   6.280   7.557 -0.4051 -0.3985 -0.7609
   94CHL1  H12A 9394   4.395   6.262   7.567 -0.1403  1.2120 -0.4454
   94CHL1  H12B 9395   4.231   6.185   7.573 -0.9704  0.1611  0.7432
   94CHL1   C11 9396   4.266   6.327   7.407 -0.5355 -0.1202 -0.1237
   94CHL1  H11A 9397   4.334   6.414   7.400  0.7437 -0.8299  2.3401
   94CHL1  H11B 9398   4.308   6.254   7.335  2.0169  1.6649 -0.5669
   94CHL1    C9 9399   4.124   6.386   7.380  0.8932 -0.6165 -0.1152
   94CHL1    H9 9400   4.057   6.302   7.409  0.5675  0.0044  0.9960
   94CHL1   C10 9401   4.100   6.413   7.229  0.0839 -0.7900 -0.3688
   94CHL1   C19 9402   4.221   6.507   7.177  0.7853  0.7830 -0.8779
   94CHL1  H19A 9403   4.221   6.600   7.239  2.6929 -0.0841  0.5008
   94CHL1  H19B 9404   4.321   6.463   7.193  1.2703  1.6490 -1.4545
   94CHL1  H19C 9405   4.215   6.532   7.069  1.1236 -0.6513 -1.2377
   94CHL1    C1 9406   4.097   6.278   7.148 -0.0802 -0.5380 -0.1457
   94CHL1   H1A 9407   4.196   6.227   7.154 -0.1170 -0.9471 -2.2474
   94CHL1   H1B 9408   4.019   6.224   7.205  0.0638 -1.5465 -0.8753
   94CHL1    C2 9409   4.051   6.292   6.999 -0.8416  0.2156 -0.2001
   94CHL1   H2A 9410   4.033   6.187   6.968 -1.0689  0.4210 -0.7711
   94CHL1   H2B 9411   4.129   6.336   6.933 -0.2457 -0.9829 -0.3171
   94CHL1   C20 9412   4.322   6.313   7.885  0.1073  0.3837  0.3403
   94CHL1   H20 9413   4.414   6.286   7.830  0.2624  2.7053 -0.6854
   94CHL1   C21 9414   4.297   6.169   7.947  0.7798 -0.0699  0.0044
   94CHL1  H21A 9415   4.286   6.093   7.868  1.4559  1.1024 -1.2700
   94CHL1  H21B 9416   4.211   6.165   8.018 -0.3960 -1.1766 -1.4232
   94CHL1  H21C 9417   4.387   6.119   7.989  1.5880  1.6331  0.3989
   94CHL1   C22 9418   4.364   6.414   7.996  0.3546  0.3522  0.5317
   94CHL1  H22A 9419   4.373   6.514   7.949  1.8716 -1.2054 -2.8192
   94CHL1  H22B 9420   4.286   6.430   8.073  0.5347  0.0859  0.7735
   94CHL1   C23 9421   4.497   6.369   8.054 -0.4492 -0.5654  0.1612
   94CHL1  H23A 9422   4.467   6.277   8.109 -0.4918  0.7584  2.4739
   94CHL1  H23B 9423   4.574   6.354   7.975 -0.3948  1.4688 -0.2285
   94CHL1   C24 9424   4.547   6.466   8.152 -0.2376  0.3969 -0.2631
   94CHL1  H24A 9425   4.591   6.559   8.111  0.5165  0.5244  0.7881
   94CHL1  H24B 9426   4.472   6.497   8.228 -0.1081 -1.1751  0.5576
   94CHL1   C25 9427   4.651   6.400   8.242  0.3198  0.2129 -0.2725
   94CHL1   H25 9428   4.611   6.314   8.299  0.9749  0.1676  0.1390
   94CHL1   C26 9429   4.778   6.371   8.163  0.2862  0.0967 -0.3305
   94CHL1  H26A 9430   4.766   6.269   8.120  3.0152 -0.5316  0.2243
   94CHL1  H26B 9431   4.780   6.436   8.073 -1.9091 -0.5289 -0.9003
   94CHL1  H26C 9432   4.870   6.377   8.225  0.1974  1.5999 -0.3136
   94CHL1   C27 9433   4.682   6.498   8.363  0.9008 -0.3335 -0.5401
   94CHL1  H27A 9434   4.774   6.465   8.415  0.7125 -0.3777 -0.2280
   94CHL1  H27B 9435   4.713   6.598   8.326  4.3090 -0.5911  1.2913
   94CHL1  H27C 9436   4.592   6.511   8.427  1.9243  0.4657  0.7687
   95CHL1    C3 9437   3.941   4.512   6.391  0.3610 -0.0512 -0.1169
   95CHL1    H3 9438   3.842   4.462   6.385  1.0989 -1.4242 -1.6298
   95CHL1    O3 9439   4.007   4.531   6.268  0.3503  0.5599  0.2017
   95CHL1   H3' 9440   4.032   4.445   6.233 -1.5231 -0.2655  0.7725
   95CHL1    C4 9441   3.933   4.649   6.455  0.3977 -1.0711  0.1202
   95CHL1   H4A 9442   4.034   4.687   6.429  0.7132 -2.5503 -0.9219
   95CHL1   H4B 9443   3.869   4.714   6.392  0.7104 -0.3570  0.5218
   95CHL1    C5 9444   3.908   4.667   6.605  0.8452  1.0758  0.8103
   95CHL1    C6 9445   3.815   4.757   6.646 -0.3172 -0.5935 -0.0866
   95CHL1    H6 9446   3.776   4.837   6.580  0.5774 -0.2246 -0.1856
   95CHL1    C7 9447   3.779   4.770   6.793  0.8298 -0.1455  0.3828
   95CHL1   H7A 9448   3.777   4.875   6.830  1.7829 -0.3549  1.0941
   95CHL1   H7B 9449   3.678   4.725   6.794  1.2565 -1.2462 -1.7200
   95CHL1    C8 9450   3.869   4.681   6.894 -0.0865 -0.5069  0.0205
   95CHL1    H8 9451   3.960   4.743   6.909 -1.7253  2.3217 -0.9840
   95CHL1   C14 9452   3.808   4.666   7.034  0.3426  0.1862  0.2039
   95CHL1   H14 9453   3.720   4.599   7.022  1.8945 -1.9544  0.0940
   95CHL1   C15 9454   3.764   4.796   7.103  0.3609 -1.1661 -0.5866
   95CHL1  H15A 9455   3.845   4.871   7.085  0.5331 -1.3726 -0.6809
   95CHL1  H15B 9456   3.672   4.825   7.049  1.9514  0.7406 -2.4815
   95CHL1   C16 9457   3.753   4.756   7.246 -0.6279 -0.3279 -0.1543
   95CHL1  H16A 9458   3.803   4.843   7.294  2.1486 -0.3063 -2.7321
   95CHL1  H16B 9459   3.649   4.730   7.274 -0.4446 -0.7277  0.1551
   95CHL1   C17 9460   3.838   4.629   7.270 -0.2620 -0.2282 -0.5385
   95CHL1   H17 9461   3.768   4.543   7.282 -2.2383  1.5120  0.9811
   95CHL1   C13 9462   3.907   4.602   7.132  0.0064 -0.0772  0.5679
   95CHL1   C18 9463   4.043   4.676   7.132 -0.0195 -0.4037  0.1427
   95CHL1  H18A 9464   4.038   4.785   7.153 -1.7807 -0.5997  0.8931
   95CHL1  H18B 9465   4.104   4.618   7.205  2.0072  1.1174 -0.2539
   95CHL1  H18C 9466   4.097   4.678   7.035 -1.0242  2.7649 -0.4662
   95CHL1   C12 9467   3.925   4.454   7.082 -0.3583 -0.2018  0.1765
   95CHL1  H12A 9468   3.986   4.395   7.154 -0.0410  0.1399  0.1918
   95CHL1  H12B 9469   3.828   4.400   7.078 -0.0828 -0.6787 -0.3485
   95CHL1   C11 9470   3.978   4.447   6.937  0.0903 -0.5526  0.3315
   95CHL1  H11A 9471   4.085   4.475   6.950 -0.6818  1.9054  2.0589
   95CHL1  H11B 9472   3.964   4.343   6.899  0.4260 -0.1844 -0.8318
   95CHL1    C9 9473   3.906   4.544   6.838 -0.7127 -0.0615  0.5455
   95CHL1    H9 9474   3.810   4.493   6.817  0.1022 -1.4121 -0.0978
   95CHL1   C10 9475   3.966   4.560   6.694 -0.0948  0.4342 -0.0732
   95CHL1   C19 9476   4.112   4.613   6.711 -0.1499  0.5150  0.3784
   95CHL1  H19A 9477   4.159   4.649   6.617  0.0756  1.6824  0.9282
   95CHL1  H19B 9478   4.120   4.693   6.787 -0.8961  1.0773 -0.1172
   95CHL1  H19C 9479   4.171   4.525   6.746 -0.7178  0.1406  0.4254
   95CHL1    C1 9480   3.968   4.423   6.624  0.2116  0.0093  0.6157
   95CHL1   H1A 9481   4.023   4.349   6.686 -2.0482 -2.0860  0.2878
   95CHL1   H1B 9482   3.862   4.393   6.615  0.3795 -0.0678 -1.7779
   95CHL1    C2 9483   4.024   4.424   6.485 -0.9623  0.7834  0.0236
   95CHL1   H2A 9484   4.004   4.324   6.440  2.0117 -0.0320  0.3063
   95CHL1   H2B 9485   4.133   4.443   6.476 -0.5979  0.1485  2.5255
   95CHL1   C20 9486   3.909   4.632   7.400 -0.3500  0.0122  0.4909
   95CHL1   H20 9487   3.978   4.719   7.401  1.0416 -0.8013 -3.8175
   95CHL1   C21 9488   3.989   4.510   7.417  0.0077 -0.0353  0.2042
   95CHL1  H21A 9489   4.046   4.506   7.512 -0.0727 -0.3963  0.2407
   95CHL1  H21B 9490   4.072   4.489   7.346  0.6796  0.5450  0.8001
   95CHL1  H21C 9491   3.929   4.416   7.412  0.3097 -0.1626 -2.6708
   95CHL1   C22 9492   3.821   4.655   7.520 -0.3217  0.2103 -0.2602
   95CHL1  H22A 9493   3.731   4.718   7.504 -0.1250  0.6497  0.3383
   95CHL1  H22B 9494   3.787   4.552   7.545 -1.7285 -0.0095 -2.7391
   95CHL1   C23 9495   3.891   4.721   7.641  0.4842 -0.3832  0.1613
   95CHL1  H23A 9496   3.992   4.675   7.651  0.7206 -0.5286 -2.3162
   95CHL1  H23B 9497   3.902   4.829   7.619 -1.0511 -0.5060 -1.4625
   95CHL1   C24 9498   3.816   4.706   7.773  0.5025  0.1947 -0.0404
   95CHL1  H24A 9499   3.731   4.777   7.763  0.2013 -0.0128  0.8997
   95CHL1  H24B 9500   3.772   4.606   7.795 -0.1486  0.3218 -0.7254
   95CHL1   C25 9501   3.898   4.757   7.896  0.4244 -0.2802 -0.1939
   95CHL1   H25 9502   3.988   4.693   7.903  1.3603  1.1218  1.2679
   95CHL1   C26 9503   3.968   4.888   7.885  0.8499 -0.3040  0.4174
   95CHL1  H26A 9504   4.041   4.889   7.801 -0.8178  0.1487 -1.0892
   95CHL1  H26B 9505   3.897   4.972   7.873  0.4784 -0.4807  1.3339
   95CHL1  H26C 9506   4.033   4.905   7.974  3.1464  2.9097 -1.6451
   95CHL1   C27 9507   3.835   4.740   8.033 -0.1083  0.0861  0.0737
   95CHL1  H27A 9508   3.907   4.749   8.117  1.2582  1.3756 -1.1823
   95CHL1  H27B 9509   3.747   4.808   8.048 -0.5142 -0.2198 -0.8464
   95CHL1  H27C 9510   3.791   4.638   8.040  1.6230 -0.8630 -1.8438
   96CHL1    C3 9511   4.643   3.421   6.722 -0.2992  0.7573 -0.0455
   96CHL1    H3 9512   4.539   3.389   6.699  0.2701 -0.4476 -1.0012
   96CHL1    O3 9513   4.695   3.463   6.596  0.0458  0.5411 -0.2201
   96CHL1   H3' 9514   4.681   3.389   6.538  0.9237  0.5918 -0.5189
   96CHL1    C4 9515   4.657   3.534   6.825 -0.3323 -0.3700 -0.9960
   96CHL1   H4A 9516   4.760   3.576   6.815 -0.4428 -0.2013 -1.4383
   96CHL1   H4B 9517   4.587   3.618   6.803 -0.2089  0.8314  2.5369
   96CHL1    C5 9518   4.631   3.492   6.969 -0.1218  0.3143 -0.0367
   96CHL1    C6 9519   4.543   3.557   7.049 -0.0870  0.1037  0.0083
   96CHL1    H6 9520   4.486   3.641   7.007 -2.3830 -1.5931 -0.4776
   96CHL1    C7 9521   4.518   3.516   7.189 -0.3928 -0.4671 -0.1820
   96CHL1   H7A 9522   4.508   3.601   7.260  2.3578 -0.1273 -0.0996
   96CHL1   H7B 9523   4.421   3.462   7.190 -0.0074 -1.3909 -3.3053
   96CHL1    C8 9524   4.619   3.416   7.246  0.5584 -0.1578  1.0719
   96CHL1    H8 9525   4.709   3.477   7.265  0.5658 -0.5166  2.2315
   96CHL1   C14 9526   4.572   3.358   7.381  0.0393 -0.5783 -0.0777
   96CHL1   H14 9527   4.484   3.297   7.354  0.9157 -2.4982  1.2169
   96CHL1   C15 9528   4.534   3.460   7.492 -0.0537 -0.0986  0.4525
   96CHL1  H15A 9529   4.608   3.543   7.493  0.9330 -0.8928 -1.1263
   96CHL1  H15B 9530   4.433   3.500   7.471  0.2557 -0.1392 -1.2612
   96CHL1   C16 9531   4.531   3.372   7.620 -0.7433 -0.6211  0.7775
   96CHL1  H16A 9532   4.587   3.428   7.698 -0.5382 -1.9742  1.6386
   96CHL1  H16B 9533   4.430   3.365   7.666 -0.6884  0.7744  1.1612
   96CHL1   C17 9534   4.597   3.236   7.589 -0.1363 -0.0115  0.2596
   96CHL1   H17 9535   4.513   3.166   7.576 -1.0770  1.2272 -0.5756
   96CHL1   C13 9536   4.669   3.258   7.451  1.0367 -0.5086  0.0819
   96CHL1   C18 9537   4.805   3.325   7.478  0.8980 -0.8127 -0.0323
   96CHL1  H18A 9538   4.798   3.414   7.543 -0.3492 -1.4440  0.7353
   96CHL1  H18B 9539   4.875   3.254   7.528  0.8533 -0.1320  1.0142
   96CHL1  H18C 9540   4.850   3.360   7.383 -2.2927  2.2764 -0.6017
   96CHL1   C12 9541   4.677   3.145   7.350  0.0675 -0.0823 -0.5310
   96CHL1  H12A 9542   4.747   3.070   7.393 -1.2200 -0.8813  0.2372
   96CHL1  H12B 9543   4.580   3.094   7.337 -1.0709  1.9202 -0.2547
   96CHL1   C11 9544   4.731   3.192   7.209 -0.1764  0.5571  0.1592
   96CHL1  H11A 9545   4.840   3.214   7.214 -0.4003  1.5783  3.4067
   96CHL1  H11B 9546   4.715   3.108   7.139 -0.2559  1.1138 -0.5113
   96CHL1    C9 9547   4.647   3.303   7.147 -0.4359  0.5990 -0.0497
   96CHL1    H9 9548   4.549   3.256   7.123  0.6926 -1.6421 -0.4576
   96CHL1   C10 9549   4.707   3.357   7.017  0.5804  0.3282  0.1793
   96CHL1   C19 9550   4.848   3.421   7.043  0.7006  0.0927 -0.2319
   96CHL1  H19A 9551   4.916   3.340   7.078  0.0404 -0.1358  0.5276
   96CHL1  H19B 9552   4.901   3.469   6.957  0.0051  1.4286  0.0537
   96CHL1  H19C 9553   4.846   3.496   7.125  0.3071 -0.1266 -0.0397
   96CHL1    C1 9554   4.693   3.246   6.913 -0.0655 -0.0511  0.8676
   96CHL1   H1A 9555   4.767   3.165   6.930  1.7490  1.4223  0.3472
   96CHL1   H1B 9556   4.593   3.199   6.900  0.0193  0.5546 -3.8910
   96CHL1    C2 9557   4.724   3.296   6.764  0.7323 -0.5976 -0.1193
   96CHL1   H2A 9558   4.703   3.206   6.702  0.1807 -1.0239  0.6607
   96CHL1   H2B 9559   4.835   3.309   6.764  0.6476  1.1880  2.8308
   96CHL1   C20 9560   4.676   3.188   7.713  0.4033  0.4846  0.2551
   96CHL1   H20 9561   4.746   3.271   7.732 -1.6115  2.3953 -0.2164
   96CHL1   C21 9562   4.738   3.050   7.672 -0.1726  0.0132 -0.3471
   96CHL1  H21A 9563   4.811   3.072   7.591 -1.2989  2.1655 -0.8557
   96CHL1  H21B 9564   4.665   2.972   7.641  0.9326 -0.4331 -1.9918
   96CHL1  H21C 9565   4.790   3.010   7.762 -1.2000  1.7358  1.0857
   96CHL1   C22 9566   4.581   3.163   7.835 -0.4979 -0.3039 -0.4545
   96CHL1  H22A 9567   4.523   3.255   7.858  1.2640  0.7584 -0.0915
   96CHL1  H22B 9568   4.496   3.092   7.823  0.3177 -1.3112 -0.3126
   96CHL1   C23 9569   4.646   3.123   7.964 -0.1446  0.1352 -0.1580
   96CHL1  H23A 9570   4.709   3.032   7.951 -0.6985 -0.6372  2.1120
   96CHL1  H23B 9571   4.719   3.206   7.978  0.0114 -0.1955  1.1137
   96CHL1   C24 9572   4.556   3.118   8.092  0.1142  0.2933  0.1456
   96CHL1  H24A 9573   4.497   3.211   8.107 -0.4606 -0.0092 -0.2049
   96CHL1  H24B 9574   4.472   3.051   8.065  0.6896  0.7484 -3.2796
   96CHL1   C25 9575   4.615   3.068   8.227 -0.0556 -0.4308 -0.8996
   96CHL1   H25 9576   4.701   3.001   8.206  1.1268  0.6751  0.2586
   96CHL1   C26 9577   4.672   3.190   8.306  0.0534 -0.5511 -0.0402
   96CHL1  H26A 9578   4.710   3.173   8.409  0.6875  2.3449  0.2928
   96CHL1  H26B 9579   4.756   3.229   8.245  0.9762 -0.5082  1.2185
   96CHL1  H26C 9580   4.602   3.275   8.322  0.4903 -0.2284  0.1605
   96CHL1   C27 9581   4.517   2.988   8.309  0.2430  0.2445  0.1956
   96CHL1  H27A 9582   4.430   3.052   8.332 -0.9500 -1.3539  0.2799
   96CHL1  H27B 9583   4.472   2.899   8.261 -2.9190  2.7617 -1.8909
   96CHL1  H27C 9584   4.571   2.959   8.402  0.2109  1.1293  0.4946
   97OSM      N 9585   1.980   6.688  11.025  0.2423  0.1420 -0.4879
   97OSM    C15 9586   2.078   6.627  11.119 -0.4929  0.3362 -0.2019
   97OSM   H15A 9587   2.045   6.595  11.217 -0.3429  0.7573 -0.0075
   97OSM   H15B 9588   2.152   6.700  11.148 -0.9971  0.9729 -0.4689
   97OSM   H15C 9589   2.131   6.544  11.078 -0.1124 -1.2530  3.1632
   97OSM    C14 9590   1.877   6.586  10.988  0.0235  0.2735  0.0687
   97OSM   H14A 9591   1.834   6.612  10.892 -0.1477 -1.3738 -0.3399
   97OSM   H14B 9592   1.802   6.593  11.065 -3.7069 -0.7931 -3.0926
   97OSM   H14C 9593   1.924   6.489  10.985  2.4795  1.3020  2.0375
   97OSM    C13 9594   1.912   6.803  11.081  0.0818  0.1445  0.0578
   97OSM   H13A 9595   1.853   6.854  11.005  0.2910 -1.5543 -1.3017
   97OSM   H13B 9596   1.990   6.874  11.107 -0.4910  0.7657  0.1193
   97OSM   H13C 9597   1.846   6.772  11.160 -1.9525  3.1818 -0.2566
   97OSM    C12 9598   2.047   6.739  10.898  0.1599  0.6279 -0.1811
   97OSM   H12A 9599   1.980   6.808  10.848 -2.0747 -1.4598 -0.2458
   97OSM   H12B 9600   2.052   6.651  10.836 -1.3172 -0.4570  1.1501
   97OSM    C11 9601   2.194   6.795  10.909  0.0702 -0.0094 -0.2115
   97OSM   H11A 9602   2.225   6.833  10.809 -0.6656 -0.4964 -0.6309
   97OSM   H11B 9603   2.250   6.699  10.913 -0.2988 -0.2065  0.3065
   97OSM      P 9604   2.171   7.041  10.995 -0.0791  0.5499  0.3616
   97OSM    O13 9605   2.092   7.086  11.108  0.1958  0.4642 -0.5472
   97OSM    O14 9606   2.292   7.117  10.981 -0.8564  0.3225  0.1773
   97OSM    O11 9607   2.095   7.053  10.856 -0.1111 -0.5574 -0.2534
   97OSM    O12 9608   2.215   6.890  11.015  0.4017 -0.0219  0.2032
   97OSM    C1S 9609   2.165   7.102  10.743  0.5550 -0.7529 -0.4322
   97OSM    H1S 9610   2.242   7.026  10.719  0.1326 -0.9868 -1.0719
   97OSM    H1T 9611   2.209   7.201  10.767 -0.1007 -0.2465 -1.2269
   97OSM     NF 9612   2.140   7.131  10.492  0.4103 -0.4784  0.3196
   97OSM    HNF 9613   2.149   7.228  10.470 -1.2731 -0.0845  1.1924
   97OSM    C2S 9614   2.066   7.120  10.624  0.5739  0.3452  0.0853
   97OSM    H2S 9615   2.001   7.030  10.619  0.4429  0.3340  1.7139
   97OSM    C3S 9616   1.971   7.237  10.657 -0.1464 -0.9560 -0.4793
   97OSM    H3S 9617   2.035   7.326  10.674 -2.7848  0.5104  2.6652
   97OSM     O3 9618   1.888   7.218  10.770 -0.0747  0.1308 -0.3524
   97OSM    HO3 9619   1.925   7.140  10.812 -0.3176 -0.0798 -0.5308
   97OSM    C4S 9620   1.879   7.262  10.543  0.2279  0.0216 -0.2727
   97OSM    H4S 9621   1.933   7.309  10.460 -1.7227  1.4369 -0.7988
   97OSM    C5S 9622   1.747   7.234  10.525 -0.2793 -0.8788  0.9695
   97OSM    H5S 9623   1.686   7.184  10.602 -2.6250 -0.7520 -0.7140
   97OSM    C6S 9624   1.672   7.270  10.397 -0.0368 -0.3325 -0.2938
   97OSM    H6S 9625   1.610   7.358  10.428  2.1536  0.9530  0.7169
   97OSM    H6T 9626   1.608   7.185  10.366 -1.1183  0.3314  0.0526
   97OSM    C7S 9627   1.751   7.322  10.269 -0.5623  0.8904 -0.4009
   97OSM    H7S 9628   1.827   7.394  10.305 -1.5883  1.1797  1.2703
   97OSM    H7T 9629   1.684   7.384  10.205 -1.8162  1.2036  1.1681
   97OSM    C8S 9630   1.818   7.210  10.197 -0.5358  0.0217  1.2425
   97OSM    H8S 9631   1.753   7.130  10.157  0.0615 -1.2443  2.7231
   97OSM    H8T 9632   1.880   7.149  10.266 -0.9012 -1.9435 -0.0923
   97OSM    C9S 9633   1.915   7.260  10.093 -0.2271  0.1813 -0.5262
   97OSM    H9S 9634   2.014   7.301  10.120 -0.1279 -0.9980  0.9682
   97OSM    H9T 9635   1.872   7.352  10.047 -1.0615  0.1445  0.1676
   97OSM   C10S 9636   1.943   7.160   9.976  0.1254  0.3962 -0.2163
   97OSM   H10S 9637   1.846   7.127   9.933  0.7935 -1.7424 -0.1642
   97OSM   H10T 9638   1.990   7.074  10.029 -4.3014 -0.9672  2.0293
   97OSM   C11S 9639   2.037   7.217   9.861 -0.1297  0.1583  0.2171
   97OSM   H11S 9640   2.079   7.132   9.804  1.0928  0.6833  0.2989
   97OSM   H11T 9641   2.117   7.283   9.901 -0.9598  1.0034  0.5229
   97OSM   C12S 9642   1.948   7.308   9.773 -0.1576 -0.3157 -0.2793
   97OSM   H12S 9643   1.917   7.398   9.830  0.7376  0.5306 -1.0844
   97OSM   H12T 9644   1.856   7.248   9.757  0.7054 -1.6022 -0.5529
   97OSM   C13S 9645   2.012   7.336   9.635 -0.1660 -0.3178  0.9944
   97OSM   H13S 9646   2.043   7.238   9.593  1.3156  0.6932 -0.4142
   97OSM   H13T 9647   2.112   7.385   9.644  0.7282 -2.0566  1.0059
   97OSM   C14S 9648   1.934   7.404   9.520 -0.4025 -0.8497  0.0696
   97OSM   H14S 9649   1.943   7.514   9.533 -2.0226 -0.6487 -0.2184
   97OSM   H14T 9650   1.827   7.374   9.525 -0.1424 -2.1346 -1.3302
   97OSM   C15S 9651   1.977   7.358   9.385  0.3537 -0.1529  0.1489
   97OSM   H15S 9652   1.933   7.256   9.369  0.2624 -0.1898  0.6237
   97OSM   H15T 9653   2.088   7.355   9.380  0.3371 -0.2052 -0.2303
   97OSM   C16S 9654   1.939   7.450   9.265 -0.0500  0.4296 -0.6647
   97OSM   H16S 9655   1.988   7.549   9.267  3.9204 -1.3051  1.9174
   97OSM   H16T 9656   1.829   7.463   9.267  0.2217  3.0822  0.6708
   97OSM   C17S 9657   1.972   7.378   9.133 -0.3565  0.1358 -0.1616
   97OSM   H17S 9658   1.925   7.278   9.141 -2.3503  1.1120  1.1807
   97OSM   H17T 9659   2.083   7.371   9.135 -0.4237 -1.0984  1.2769
   97OSM   C18S 9660   1.935   7.447   8.996  0.5267 -0.3078  0.0297
   97OSM   H18S 9661   1.833   7.412   8.969 -0.0318 -0.7407  2.4489
   97OSM   H18T 9662   2.005   7.418   8.915 -0.9325 -2.9434 -0.4233
   97OSM   H18U 9663   1.951   7.555   9.012  0.6820 -0.7220  3.3507
   97OSM    C1F 9664   2.198   7.041  10.424  0.1338  0.2655 -0.0299
   97OSM     OF 9665   2.194   6.922  10.458 -0.3260 -0.3865  0.1398
   97OSM    C2F 9666   2.269   7.081  10.296  0.2847 -0.4344  0.4664
   97OSM    H2F 9667   2.375   7.093  10.329  0.9675  0.3314 -1.7823
   97OSM    H2G 9668   2.225   7.176  10.259 -0.1140 -0.7012  0.2569
   97OSM    C3F 9669   2.261   6.978  10.181 -0.5388  0.3762 -0.0591
   97OSM    H3F 9670   2.158   6.954  10.148  0.3458 -0.7821 -2.2371
   97OSM    H3G 9671   2.305   6.877  10.201 -1.5712 -0.1054 -0.1889
   97OSM    C4F 9672   2.344   7.023  10.056 -0.2043 -0.6191 -0.4628
   97OSM    H4F 9673   2.454   7.014  10.067 -0.0053  0.3918 -1.4344
   97OSM    H4G 9674   2.322   7.130  10.037 -1.0808 -0.0134  3.3271
   97OSM    C5F 9675   2.319   6.948   9.921 -0.2721  0.1693  0.0189
   97OSM    H5F 9676   2.208   6.947   9.911 -0.3942  0.4016  1.1855
   97OSM    H5G 9677   2.342   6.841   9.936  0.0985  0.2727  0.1859
   97OSM    C6F 9678   2.399   7.003   9.802  0.1386  0.0567 -0.9215
   97OSM    H6F 9679   2.502   6.992   9.841 -0.2331 -1.7284 -0.3196
   97OSM    H6G 9680   2.372   7.107   9.775 -1.8532 -0.4318 -0.9753
   97OSM    C7F 9681   2.371   6.909   9.683 -0.5592 -0.1784 -0.1673
   97OSM    H7F 9682   2.351   6.812   9.732  0.6421  0.5742  1.9159
   97OSM    H7G 9683   2.461   6.910   9.618  0.0546 -0.7580  0.6727
   97OSM    C8F 9684   2.248   6.932   9.602  0.0568 -0.5167 -0.5818
   97OSM    H8F 9685   2.155   6.925   9.662  0.9020  1.7350  1.1524
   97OSM    H8G 9686   2.237   6.845   9.535  0.1794 -1.4377  0.5678
   97OSM    C9F 9687   2.241   7.059   9.524 -0.3368 -0.2249 -0.1479
   97OSM    H9F 9688   2.262   7.153   9.577 -0.3370  0.7122 -1.7459
   97OSM   C10F 9689   2.245   7.070   9.388  0.4055 -0.0528 -0.0331
   97OSM   H10F 9690   2.238   7.171   9.345  0.8091 -0.3132 -0.7170
   97OSM   C11F 9691   2.258   6.960   9.287 -0.0157  0.4684 -0.3960
   97OSM   H11F 9692   2.210   6.864   9.318  2.6364 -0.0023  2.8030
   97OSM   H11G 9693   2.365   6.935   9.276 -0.1936 -1.1082  1.0654
   97OSM   C12F 9694   2.199   7.000   9.152  1.1568 -0.0116  0.2490
   97OSM   H12F 9695   2.091   7.021   9.168  1.4181  1.2492  0.5070
   97OSM   H12G 9696   2.198   6.917   9.078 -1.1126 -0.7160  0.9946
   97OSM   C13F 9697   2.288   7.102   9.072  0.1163  0.8858  0.2417
   97OSM   H13F 9698   2.395   7.074   9.068  0.2657  1.4840 -0.1586
   97OSM   H13G 9699   2.292   7.199   9.127 -0.2731  0.3579  1.2311
   97OSM   C14F 9700   2.242   7.136   8.922 -0.1921 -0.5317 -0.5856
   97OSM   H14F 9701   2.158   7.206   8.937  0.7568  0.3852  0.6406
   97OSM   H14G 9702   2.213   7.045   8.865  2.1668 -0.2874 -2.3189
   97OSM   C15F 9703   2.363   7.196   8.852 -0.1208  0.3261 -0.0442
   97OSM   H15F 9704   2.418   7.265   8.919  1.7373 -1.0947 -0.0234
   97OSM   H15G 9705   2.316   7.252   8.769 -0.8126 -0.1762  0.0026
   97OSM   C16F 9706   2.468   7.100   8.786 -0.6072  0.2066  0.6991
   97OSM   H16F 9707   2.411   7.028   8.723  1.9984  2.2763 -4.7417
   97OSM   H16G 9708   2.526   7.045   8.863  3.0638 -0.6726 -2.3552
   97OSM   C17F 9709   2.561   7.177   8.694 -0.2534  0.6101  0.1186
   97OSM   H17F 9710   2.598   7.257   8.762 -0.1854  0.4690  0.2486
   97OSM   H17G 9711   2.512   7.230   8.610  2.4165 -0.0650 -2.0224
   97OSM   C18F 9712   2.688   7.104   8.625 -0.3723 -0.7272  0.3258
   97OSM   H18F 9713   2.649   7.038   8.545 -0.0922 -0.9532  0.3732
   97OSM   H18G 9714   2.739   7.040   8.700 -1.5138 -0.0791  1.6935
   97OSM   H18H 9715   2.763   7.174   8.580  1.2325 -2.4803  0.1434
   98OSM      N 9716   2.210   0.667  11.188  0.1525  0.8272  0.4117
   98OSM    C15 9717   2.152   0.609  11.313 -0.0550 -0.1999 -1.0138
   98OSM   H15A 9718   2.216   0.625  11.398  0.2969 -0.3991 -1.2342
   98OSM   H15B 9719   2.148   0.501  11.307  0.2201 -0.2309 -0.6555
   98OSM   H15C 9720   2.057   0.653  11.337 -0.5597 -1.5668 -0.4164
   98OSM    C14 9721   2.192   0.812  11.197  0.9018 -0.1642  0.4725
   98OSM   H14A 9722   2.202   0.851  11.097 -2.3948 -4.2036 -1.7102
   98OSM   H14B 9723   2.267   0.860  11.258  0.6702  0.6079  0.1514
   98OSM   H14C 9724   2.096   0.849  11.227  2.0743  3.1349  0.5380
   98OSM    C13 9725   2.355   0.633  11.177  0.0043 -0.4294  0.3308
   98OSM   H13A 9726   2.356   0.526  11.162 -4.2265 -0.4146 -1.5382
   98OSM   H13B 9727   2.416   0.657  11.263  0.5070  2.4818 -0.7181
   98OSM   H13C 9728   2.391   0.678  11.086 -0.0766  1.2712  1.1010
   98OSM    C12 9729   2.129   0.606  11.070  0.3408  0.1813 -0.1178
   98OSM   H12A 9730   2.024   0.627  11.086 -0.2397 -0.9891 -2.0608
   98OSM   H12B 9731   2.142   0.499  11.064  2.9271  0.5449 -2.9321
   98OSM    C11 9732   2.171   0.657  10.931 -0.1585 -0.4045  0.0397
   98OSM   H11A 9733   2.111   0.605  10.853  0.3352  1.4454 -1.6460
   98OSM   H11B 9734   2.273   0.620  10.911 -0.4333 -0.8744 -0.5079
   98OSM      P 9735   2.020   0.862  10.867  0.6309 -0.3076 -0.3036
   98OSM    O13 9736   1.911   0.825  10.960 -0.1520  0.5066 -0.2093
   98OSM    O14 9737   2.044   1.009  10.853 -0.3955  0.9230 -0.0139
   98OSM    O11 9738   1.989   0.796  10.730  0.1199  0.6684  0.0008
   98OSM    O12 9739   2.158   0.790  10.911  0.1724 -0.7556 -0.6324
   98OSM    C1S 9740   2.078   0.814  10.618 -0.7109  0.1083  0.2254
   98OSM    H1S 9741   2.148   0.731  10.600  0.0017  1.1129 -1.9724
   98OSM    H1T 9742   2.144   0.903  10.629  0.1397 -0.7137  2.2678
   98OSM     NF 9743   2.119   0.815  10.374 -0.8167  0.5319 -0.2457
   98OSM    HNF 9744   2.153   0.902  10.341 -2.0189  1.9511  1.9651
   98OSM    C2S 9745   2.014   0.817  10.478 -0.4677 -0.1293 -0.1657
   98OSM    H2S 9746   1.951   0.728  10.460 -2.0634  1.2992 -2.0216
   98OSM    C3S 9747   1.921   0.945  10.465 -0.5743 -0.4854  0.0461
   98OSM    H3S 9748   1.997   1.025  10.478 -1.3923  0.6697 -1.8468
   98OSM     O3 9749   1.834   0.975  10.575 -0.1789  0.2962  0.3934
   98OSM    HO3 9750   1.875   0.944  10.656 -1.1708 -1.1904  0.3566
   98OSM    C4S 9751   1.856   0.958  10.336 -0.2138  0.6266 -0.1268
   98OSM    H4S 9752   1.907   1.025  10.266  0.1054 -0.0416 -0.5464
   98OSM    C5S 9753   1.736   0.906  10.309 -0.3703  0.2562  0.4863
   98OSM    H5S 9754   1.682   0.855  10.391 -0.5308 -1.0161 -0.3852
   98OSM    C6S 9755   1.671   0.923  10.176  0.1924 -0.1047  0.3087
   98OSM    H6S 9756   1.652   1.024  10.136 -2.8151 -1.1837 -1.3399
   98OSM    H6T 9757   1.570   0.876  10.184  0.2254 -0.1695  0.3447
   98OSM    C7S 9758   1.748   0.853  10.060 -0.2754  0.5550 -0.0261
   98OSM    H7S 9759   1.747   0.744  10.076  2.1093  0.3563 -0.7977
   98OSM    H7T 9760   1.856   0.877  10.054 -0.0499 -0.5184 -0.4948
   98OSM    C8S 9761   1.694   0.884   9.926  0.8079 -0.0738  0.0221
   98OSM    H8S 9762   1.719   0.987   9.893 -1.2575  1.4545  2.8211
   98OSM    H8T 9763   1.585   0.865   9.929  1.0625 -1.9678 -1.2495
   98OSM    C9S 9764   1.736   0.790   9.815 -0.3756 -0.0697  0.2676
   98OSM    H9S 9765   1.704   0.688   9.846 -2.8365  0.1713 -1.2227
   98OSM    H9T 9766   1.845   0.784   9.795  0.1019  3.7039  0.9521
   98OSM   C10S 9767   1.663   0.813   9.684 -0.2836 -0.1420  0.2300
   98OSM   H10S 9768   1.561   0.843   9.718  0.1462  0.0477  1.4057
   98OSM   H10T 9769   1.655   0.715   9.634  5.0203 -1.2255  0.9395
   98OSM   C11S 9770   1.720   0.915   9.581  0.2567  0.9002  0.0226
   98OSM   H11S 9771   1.814   0.864   9.550  0.6323  0.8692  1.1499
   98OSM   H11T 9772   1.729   1.016   9.627 -0.7776  1.1082 -0.2018
   98OSM   C12S 9773   1.632   0.926   9.460 -0.4586  0.2221  0.2732
   98OSM   H12S 9774   1.532   0.966   9.488 -0.4024 -0.0106  0.8078
   98OSM   H12T 9775   1.627   0.834   9.399 -2.8075  1.5597 -1.7604
   98OSM   C13S 9776   1.702   1.021   9.354 -0.6315 -0.0126  0.2467
   98OSM   H13S 9777   1.806   0.990   9.335 -0.9663  0.1170 -2.1676
   98OSM   H13T 9778   1.700   1.122   9.400  0.9156  0.8505 -1.4664
   98OSM   C14S 9779   1.644   1.027   9.210  0.4819 -0.0101  0.5950
   98OSM   H14S 9780   1.654   1.128   9.165 -2.1002  1.0610  2.2266
   98OSM   H14T 9781   1.535   1.010   9.222  0.8491 -1.6803  1.9256
   98OSM   C15S 9782   1.710   0.923   9.113  0.0838  0.2398  0.2718
   98OSM   H15S 9783   1.667   0.822   9.130  1.6944 -0.3131  1.1669
   98OSM   H15T 9784   1.820   0.927   9.125  0.3636  3.3179 -1.9087
   98OSM   C16S 9785   1.676   0.934   8.959  0.2815 -0.0719 -0.2456
   98OSM   H16S 9786   1.719   0.845   8.908 -0.2065  0.0035 -0.7995
   98OSM   H16T 9787   1.737   1.021   8.926  0.8114 -0.8052 -1.2878
   98OSM   C17S 9788   1.525   0.956   8.926  0.2278 -0.2565  0.2101
   98OSM   H17S 9789   1.517   1.051   8.983 -0.7925  1.0675 -2.0402
   98OSM   H17T 9790   1.461   0.869   8.951  0.2742 -0.9851 -1.9705
   98OSM   C18S 9791   1.503   0.998   8.782  0.8778 -0.0160  0.5493
   98OSM   H18S 9792   1.566   1.087   8.762 -0.9389  1.8872  2.7052
   98OSM   H18T 9793   1.396   1.024   8.771  0.7330  0.3996  2.5077
   98OSM   H18U 9794   1.532   0.918   8.711  2.0097  0.1388  0.8158
   98OSM    C1F 9795   2.186   0.706  10.340 -0.1363  0.2081 -0.1632
   98OSM     OF 9796   2.147   0.599  10.384 -0.2181  0.5475 -0.2060
   98OSM    C2F 9797   2.307   0.719  10.251  0.1978  0.1205  0.2277
   98OSM    H2F 9798   2.393   0.680  10.309  0.0313 -0.3737  0.1429
   98OSM    H2G 9799   2.312   0.829  10.234 -3.1811  0.5467  1.1929
   98OSM    C3F 9800   2.290   0.644  10.116  0.0708 -0.2085 -0.4199
   98OSM    H3F 9801   2.197   0.678  10.065  0.8211  1.5877 -0.6612
   98OSM    H3G 9802   2.271   0.537  10.141 -0.8181 -0.7345 -3.0469
   98OSM    C4F 9803   2.421   0.649  10.030 -0.3826  0.1300 -0.5946
   98OSM    H4F 9804   2.495   0.592  10.091 -1.8766 -0.5494  0.6371
   98OSM    H4G 9805   2.463   0.752  10.022  0.2382 -0.0699 -0.0117
   98OSM    C5F 9806   2.397   0.584   9.892 -0.4510 -0.1436 -0.4587
   98OSM    H5F 9807   2.318   0.635   9.833 -0.3042  2.6050  1.5121
   98OSM    H5G 9808   2.374   0.475   9.899  0.3534 -0.2835  0.1499
   98OSM    C6F 9809   2.532   0.597   9.812  0.3642  1.1721  0.4582
   98OSM    H6F 9810   2.608   0.541   9.872 -0.1260  2.2251  2.1384
   98OSM    H6G 9811   2.560   0.704   9.804 -1.2624  1.5506 -0.5480
   98OSM    C7F 9812   2.540   0.537   9.672 -0.4351  0.5244  0.8189
   98OSM    H7F 9813   2.524   0.427   9.681  0.2340  0.1818 -1.3846
   98OSM    H7G 9814   2.645   0.544   9.637 -0.3467 -1.3537  0.5966
   98OSM    C8F 9815   2.439   0.590   9.567 -0.1499  0.5200 -0.0313
   98OSM    H8F 9816   2.335   0.569   9.601 -1.5716  2.2954 -2.9192
   98OSM    H8G 9817   2.455   0.529   9.475 -3.2811  0.6630 -0.7779
   98OSM    C9F 9818   2.463   0.732   9.536 -0.8488  0.2321 -0.1645
   98OSM    H9F 9819   2.498   0.786   9.625 -2.6814  2.1109 -0.4900
   98OSM   C10F 9820   2.438   0.801   9.423 -0.7445 -0.1509  0.0387
   98OSM   H10F 9821   2.447   0.910   9.410  0.6064 -0.2984 -0.5063
   98OSM   C11F 9822   2.396   0.738   9.289  0.5553 -0.0987 -0.7836
   98OSM   H11F 9823   2.289   0.758   9.270  0.1368 -1.9114 -0.4973
   98OSM   H11G 9824   2.411   0.628   9.291  0.1066 -0.1538 -0.0318
   98OSM   C12F 9825   2.485   0.788   9.181 -0.3697 -0.4192 -0.6935
   98OSM   H12F 9826   2.468   0.898   9.172 -1.1900 -0.5783 -1.1778
   98OSM   H12G 9827   2.448   0.750   9.083  0.2742  0.2565 -1.2188
   98OSM   C13F 9828   2.636   0.756   9.183  0.8460  0.0717 -0.1548
   98OSM   H13F 9829   2.648   0.654   9.225 -2.1416  0.6917  2.5713
   98OSM   H13G 9830   2.679   0.826   9.258  1.3452 -0.5671  0.1683
   98OSM   C14F 9831   2.693   0.788   9.042 -0.1621  0.0747 -0.1088
   98OSM   H14F 9832   2.795   0.744   9.041 -0.2535 -0.1739  0.8783
   98OSM   H14G 9833   2.694   0.898   9.030  2.0932 -0.0330 -1.6150
   98OSM   C15F 9834   2.628   0.723   8.915  0.1451 -0.7060 -0.2535
   98OSM   H15F 9835   2.523   0.759   8.907 -1.4567 -4.2475  2.1368
   98OSM   H15G 9836   2.620   0.617   8.947  1.0584 -0.9012 -0.6340
   98OSM   C16F 9837   2.703   0.734   8.785  0.7873  0.1961 -0.5669
   98OSM   H16F 9838   2.632   0.707   8.704  0.6110 -1.5050  0.1278
   98OSM   H16G 9839   2.782   0.656   8.787 -1.0570 -1.7513 -0.4361
   98OSM   C17F 9840   2.761   0.873   8.745  0.4951  0.4060  0.7388
   98OSM   H17F 9841   2.847   0.903   8.809  1.6203  0.6541 -0.8344
   98OSM   H17G 9842   2.679   0.947   8.744 -1.4499 -1.6616  0.3770
   98OSM   C18F 9843   2.809   0.884   8.603  0.0557 -0.0742 -0.1646
   98OSM   H18F 9844   2.887   0.811   8.573 -0.9750 -1.5491  0.6569
   98OSM   H18G 9845   2.830   0.990   8.574  2.0663  0.9722  4.2608
   98OSM   H18H 9846   2.729   0.844   8.537  1.3980 -1.4468 -1.0260
   99OSM      N 9847   0.853   5.743  10.982 -0.5648 -0.2304  0.3171
   99OSM    C15 9848   0.852   5.621  11.076 -0.3441 -0.4085 -0.2450
   99OSM   H15A 9849   0.920   5.632  11.160  0.2152 -0.9034 -0.6209
   99OSM   H15B 9850   0.891   5.532  11.029  1.5816  0.2319  0.0430
   99OSM   H15C 9851   0.751   5.601  11.107 -0.5571  2.1172  0.9446
   99OSM    C14 9852   0.785   5.851  11.059 -0.1495  0.2596  0.6810
   99OSM   H14A 9853   0.684   5.820  11.079 -0.0556 -0.1803  0.4846
   99OSM   H14B 9854   0.751   5.940  11.007 -0.2355 -1.3873 -2.3163
   99OSM   H14C 9855   0.841   5.877  11.148  0.4435  0.8243  0.1530
   99OSM    C13 9856   0.997   5.771  10.973  0.5367  0.6609 -0.4299
   99OSM   H13A 9857   1.042   5.787  11.070 -0.0252 -0.8565  0.1046
   99OSM   H13B 9858   1.001   5.869  10.926 -3.7187  1.5770  0.7386
   99OSM   H13C 9859   1.049   5.695  10.916  0.3712 -1.1333  1.6895
   99OSM    C12 9860   0.783   5.714  10.849 -0.3551  0.8662  0.2041
   99OSM   H12A 9861   0.679   5.693  10.871  0.2774 -0.0152  2.6972
   99OSM   H12B 9862   0.821   5.621  10.808 -0.3186  1.8321 -2.0944
   99OSM    C11 9863   0.800   5.816  10.733 -0.3356 -0.2911 -0.0844
   99OSM   H11A 9864   0.783   5.756  10.641 -0.8075  1.6663 -1.3377
   99OSM   H11B 9865   0.906   5.850  10.725  0.3292 -2.0900  0.6568
   99OSM      P 9866   0.561   5.912  10.738 -0.4723  0.0470  0.0464
   99OSM    O13 9867   0.523   5.770  10.752 -0.3512 -0.0421  0.1598
   99OSM    O14 9868   0.511   5.998  10.843  0.8178  0.9809  0.4495
   99OSM    O11 9869   0.521   5.982  10.598 -0.1234 -0.1211  0.1086
   99OSM    O12 9870   0.717   5.934  10.751  0.2925 -0.4200  0.5196
   99OSM    C1S 9871   0.622   5.972  10.487  0.2710  0.2130 -0.6725
   99OSM    H1S 9872   0.645   5.865  10.469 -1.1329 -0.1535 -0.3817
   99OSM    H1T 9873   0.722   6.011  10.517 -0.8761  0.7607  2.8730
   99OSM     NF 9874   0.630   5.939  10.251 -1.0169  0.6017  0.7125
   99OSM    HNF 9875   0.719   5.973  10.223  0.8979 -1.7051  3.4421
   99OSM    C2S 9876   0.564   6.013  10.357  0.3175  0.5137 -0.6217
   99OSM    H2S 9877   0.456   5.984  10.355  0.3271  0.5062 -1.2656
   99OSM    C3S 9878   0.572   6.166  10.344 -0.1399 -0.6799  0.2555
   99OSM    H3S 9879   0.681   6.183  10.359  0.0536 -1.2848 -0.4257
   99OSM     O3 9880   0.513   6.235  10.453  0.0533  0.3993  0.2764
   99OSM    HO3 9881   0.461   6.165  10.493 -0.5646  0.3641 -0.5681
   99OSM    C4S 9882   0.521   6.200  10.204  0.2781 -0.2959  0.7338
   99OSM    H4S 9883   0.601   6.195  10.129  0.0469  0.3820  0.4353
   99OSM    C5S 9884   0.398   6.246  10.167 -0.7573 -0.4541  0.3798
   99OSM    H5S 9885   0.326   6.266  10.248  0.0006  2.4272  0.4491
   99OSM    C6S 9886   0.353   6.271  10.026 -0.0550 -0.0118  1.2642
   99OSM    H6S 9887   0.316   6.372   9.997  1.3107  0.0551 -0.3967
   99OSM    H6T 9888   0.270   6.200  10.006 -2.4323  2.0497  3.1176
   99OSM    C7S 9889   0.456   6.230   9.916 -0.2216 -0.5682 -0.2961
   99OSM    H7S 9890   0.503   6.130   9.924  1.6632  0.1562 -1.5773
   99OSM    H7T 9891   0.548   6.290   9.930 -0.8109  0.7751 -1.8028
   99OSM    C8S 9892   0.416   6.239   9.772 -0.6368  0.9132  0.1281
   99OSM    H8S 9893   0.394   6.343   9.741 -1.2486  0.6233 -0.4602
   99OSM    H8T 9894   0.336   6.170   9.737 -0.8624  1.1907  0.0899
   99OSM    C9S 9895   0.536   6.219   9.678 -0.6331 -0.0583  0.0952
   99OSM    H9S 9896   0.579   6.121   9.709  0.0036 -0.0922 -0.8531
   99OSM    H9T 9897   0.618   6.291   9.698 -0.0744 -0.9005  0.9406
   99OSM   C10S 9898   0.502   6.226   9.523 -0.2987  0.2361  0.4348
   99OSM   H10S 9899   0.469   6.331   9.507  0.4218  0.2921 -0.7921
   99OSM   H10T 9900   0.429   6.146   9.501  1.3953 -1.9989  2.4460
   99OSM   C11S 9901   0.623   6.184   9.438 -0.1295  0.9138 -0.6651
   99OSM   H11S 9902   0.657   6.091   9.489  1.5618  2.0442  0.3637
   99OSM   H11T 9903   0.706   6.256   9.453  1.4104 -1.2826  2.4027
   99OSM   C12S 9904   0.596   6.200   9.288 -0.1412 -0.2301 -0.9475
   99OSM   H12S 9905   0.493   6.242   9.288  0.2104  0.6782 -0.1701
   99OSM   H12T 9906   0.663   6.271   9.236  0.0048 -0.7008 -1.4061
   99OSM   C13S 9907   0.605   6.075   9.200  0.1382 -0.3574 -0.0925
   99OSM   H13S 9908   0.522   6.005   9.225  0.7653 -1.6467 -1.4657
   99OSM   H13T 9909   0.703   6.028   9.225  0.8555  1.8059  1.5059
   99OSM   C14S 9910   0.587   6.102   9.046 -0.3740 -0.6491 -0.5498
   99OSM   H14S 9911   0.598   6.004   8.996  1.5945 -0.5067 -0.4425
   99OSM   H14T 9912   0.665   6.174   9.013  0.1691 -2.3305 -3.1988
   99OSM   C15S 9913   0.442   6.159   9.015 -0.2910  0.2731 -0.2179
   99OSM   H15S 9914   0.428   6.251   9.077  0.6634 -1.5947  3.0447
   99OSM   H15T 9915   0.352   6.100   9.043 -2.2104  2.8205 -0.6502
   99OSM   C16S 9916   0.422   6.194   8.864 -0.1064  0.2688  0.4484
   99OSM   H16S 9917   0.394   6.104   8.805 -0.0672  0.0611  0.7481
   99OSM   H16T 9918   0.513   6.229   8.812  0.6834 -1.3494  0.6783
   99OSM   C17S 9919   0.318   6.297   8.840  0.3277 -0.1884  0.5915
   99OSM   H17S 9920   0.337   6.392   8.896 -1.0705 -0.0598  0.8933
   99OSM   H17T 9921   0.215   6.262   8.865 -0.9389  1.5101 -1.8152
   99OSM   C18S 9922   0.309   6.341   8.694  0.0996 -0.0642  0.7038
   99OSM   H18S 9923   0.412   6.362   8.656 -1.8437  3.2591 -3.5073
   99OSM   H18T 9924   0.243   6.430   8.681  0.4107  0.1300  0.4108
   99OSM   H18U 9925   0.258   6.265   8.632  1.5443  0.7201 -1.5988
   99OSM    C1F 9926   0.606   5.813  10.219 -0.0629  0.1198 -0.8041
   99OSM     OF 9927   0.539   5.745  10.294 -0.1608 -0.8282  0.5151
   99OSM    C2F 9928   0.671   5.763  10.095 -0.7915  0.1822 -0.3652
   99OSM    H2F 9929   0.600   5.690  10.050 -0.4585  0.3886 -1.2419
   99OSM    H2G 9930   0.764   5.710  10.125 -0.7368  0.1729 -0.5523
   99OSM    C3F 9931   0.709   5.869   9.996 -0.1352 -0.0672  0.4779
   99OSM    H3F 9932   0.620   5.922   9.956 -0.1360 -0.1259  0.4019
   99OSM    H3G 9933   0.786   5.935  10.041  0.3770 -1.2499  1.3943
   99OSM    C4F 9934   0.784   5.796   9.879  0.0421  1.4443 -0.2630
   99OSM    H4F 9935   0.738   5.714   9.820  1.9279  1.9508 -2.5799
   99OSM    H4G 9936   0.863   5.737   9.931 -2.4939 -2.2494 -0.1960
   99OSM    C5F 9937   0.826   5.896   9.768 -0.0186 -0.4776 -0.3142
   99OSM    H5F 9938   0.904   5.961   9.812 -0.0863 -1.6629  1.6643
   99OSM    H5G 9939   0.744   5.967   9.741  1.4111  1.4806  0.2519
   99OSM    C6F 9940   0.873   5.834   9.638  0.2017  0.3675  0.0769
   99OSM    H6F 9941   0.800   5.762   9.595 -0.9900  1.2065  0.6794
   99OSM    H6G 9942   0.955   5.763   9.663 -0.0728  0.7328  2.1276
   99OSM    C7F 9943   0.921   5.928   9.530  0.0380  0.7931 -0.0004
   99OSM    H7F 9944   1.010   5.982   9.568  1.2101 -1.2328  0.2838
   99OSM    H7G 9945   0.847   6.000   9.489 -0.1589  0.8206  0.3981
   99OSM    C8F 9946   0.976   5.858   9.401  0.1939 -0.0204 -0.4607
   99OSM    H8F 9947   0.889   5.812   9.350 -0.3946 -1.0713  1.3839
   99OSM    H8G 9948   1.035   5.775   9.446 -0.7589 -1.5149 -1.8827
   99OSM    C9F 9949   1.069   5.938   9.313  0.3102 -0.1316 -1.0642
   99OSM    H9F 9950   1.012   6.019   9.266 -1.7815 -0.8950  0.0231
   99OSM   C10F 9951   1.197   5.921   9.276  0.3905  0.1673  0.1307
   99OSM   H10F 9952   1.238   5.983   9.194  2.1672 -1.3577 -0.2066
   99OSM   C11F 9953   1.293   5.810   9.308 -0.0544  0.2167 -0.6327
   99OSM   H11F 9954   1.298   5.730   9.231 -0.8597 -0.2850 -0.1843
   99OSM   H11G 9955   1.258   5.755   9.397  1.4632 -1.7536 -1.1865
   99OSM   C12F 9956   1.440   5.865   9.328  0.5575  0.2110 -0.5621
   99OSM   H12F 9957   1.500   5.773   9.341 -1.7787 -1.2287  0.8301
   99OSM   H12G 9958   1.449   5.935   9.413  1.9137 -0.3782 -0.2108
   99OSM   C13F 9959   1.497   5.942   9.205  0.1830  1.3561 -0.5520
   99OSM   H13F 9960   1.605   5.961   9.227  0.4499 -0.5050 -0.0304
   99OSM   H13G 9961   1.459   6.046   9.199 -0.0754  1.3204  0.2595
   99OSM   C14F 9962   1.500   5.862   9.076  0.5386  0.1908  0.7160
   99OSM   H14F 9963   1.392   5.838   9.065  0.6771 -0.6564  1.0747
   99OSM   H14G 9964   1.550   5.764   9.092 -1.8153 -1.0133  1.2071
   99OSM   C15F 9965   1.552   5.947   8.954  0.0652  0.0603  0.1856
   99OSM   H15F 9966   1.651   5.998   8.959  0.4488 -0.5379 -1.0139
   99OSM   H15G 9967   1.475   6.026   8.946 -0.8605 -0.9324 -0.8988
   99OSM   C16F 9968   1.537   5.860   8.825  0.1723  0.6606 -0.5788
   99OSM   H16F 9969   1.440   5.805   8.827  1.0888 -1.0359 -0.5067
   99OSM   H16G 9970   1.613   5.779   8.839  0.7922  1.4422  0.8468
   99OSM   C17F 9971   1.547   5.935   8.694  0.2707  0.0378 -0.3778
   99OSM   H17F 9972   1.563   5.860   8.613  4.1512 -0.3212  0.5146
   99OSM   H17G 9973   1.638   6.000   8.695  1.0888 -0.9711  2.6127
   99OSM   C18F 9974   1.426   6.016   8.660 -0.4874 -0.5770 -0.3598
   99OSM   H18F 9975   1.408   6.093   8.738  2.3398  1.7871 -1.8342
   99OSM   H18G 9976   1.335   5.953   8.651 -1.1095  0.4377 -1.6016
   99OSM   H18H 9977   1.435   6.071   8.563 -1.3811  2.4620  1.1313
  100OSM      N 9978   5.138   0.054  10.936 -0.3243  0.3281 -0.2598
  100OSM    C15 9979   5.126  -0.093  10.955 -0.3103 -0.0447  0.7146
  100OSM   H15A 9980   5.210  -0.141  10.907 -0.7987 -1.5117  1.2888
  100OSM   H15B 9981   5.035  -0.132  10.912  0.7006 -1.0182 -0.6319
  100OSM   H15C 9982   5.127  -0.128  11.057 -0.4324 -1.8988  0.1153
  100OSM    C14 9983   5.029   0.117  11.009  0.3222  0.2496 -0.5673
  100OSM   H14A 9984   5.032   0.080  11.110 -0.8749 -0.6359 -0.8327
  100OSM   H14B 9985   4.937   0.096  10.956  0.9885 -0.8840 -1.3173
  100OSM   H14C 9986   5.033   0.225  11.007  1.0943  0.2410  0.1888
  100OSM    C13 9987   5.271   0.114  10.987  0.4495  0.4106  0.4426
  100OSM   H13A 9988   5.270   0.222  10.977 -0.4104  0.3830  0.1447
  100OSM   H13B 9989   5.355   0.086  10.925 -0.6000  1.9175 -1.7752
  100OSM   H13C 9990   5.280   0.088  11.092 -0.0180 -0.2760  0.3212
  100OSM    C12 9991   5.121   0.090  10.796  0.5349 -0.3262  0.0044
  100OSM   H12A 9992   5.201   0.048  10.737  2.0043  0.2202  1.5337
  100OSM   H12B 9993   5.128   0.196  10.779 -0.8908 -0.2798 -0.3606
  100OSM    C11 9994   4.991   0.053  10.724  0.1030  0.0763  0.6013
  100OSM   H11A 9995   4.986   0.101  10.625  0.5312  0.6076  0.8311
  100OSM   H11B 9996   4.902   0.094  10.776  1.0153  2.1476  0.6215
  100OSM      P 9997   5.048  -0.176  10.615 -0.1030 -0.4167 -0.2493
  100OSM    O13 9998   5.087  -0.302  10.677 -0.4261 -0.2181  0.4522
  100OSM    O14 9999   4.976  -0.183  10.488  0.1997 -0.1572  1.0364
  100OSM    O1110000   5.177  -0.092  10.581 -0.3269  0.5171  0.8333
  100OSM    O1210001   4.972  -0.089  10.725 -0.4679 -0.2647  0.1589
  100OSM    C1S10002   5.281  -0.137  10.488 -0.0221 -0.5145 -1.1187
  100OSM    H1S10003   5.288  -0.248  10.480  1.2001 -0.4741 -0.8391
  100OSM    H1T10004   5.381  -0.116  10.532 -0.2919 -1.9213  0.2892
  100OSM     NF10005   5.391  -0.114  10.282 -0.3265  0.1404  0.0516
  100OSM    HNF10006   5.455  -0.050  10.241  1.4488 -1.3161  0.3897
  100OSM    C2S10007   5.268  -0.071  10.354 -0.7817  0.5538  0.5634
  100OSM    H2S10008   5.178  -0.120  10.310 -0.3498  0.0953  0.1682
  100OSM    C3S10009   5.252   0.080  10.367 -0.7082 -0.2690  0.5294
  100OSM    H3S10010   5.337   0.120  10.427 -1.6893  3.0089 -0.0356
  100OSM     O310011   5.148   0.130  10.441  0.0704 -0.0133 -0.0387
  100OSM    HO310012   5.108   0.062  10.495 -2.0582  0.6761 -0.6792
  100OSM    C4S10013   5.253   0.153  10.230  0.3088  0.2232 -0.1717
  100OSM    H4S10014   5.172   0.115  10.167 -0.4240  1.8284 -0.2536
  100OSM    C5S10015   5.311   0.276  10.198  0.6740  0.2294 -0.4356
  100OSM    H5S10016   5.355   0.342  10.274  1.3852 -0.5196 -0.1830
  100OSM    C6S10017   5.294   0.340  10.067 -0.5157  0.0073 -0.2128
  100OSM    H6S10018   5.400   0.365  10.041 -0.3773 -0.2384  0.1158
  100OSM    H6T10019   5.224   0.425  10.074 -1.1981 -0.4783 -0.9239
  100OSM    C7S10020   5.248   0.251   9.953 -1.0785  1.1793 -0.2544
  100OSM    H7S10021   5.146   0.219   9.984 -0.2612 -0.3164  1.0537
  100OSM    H7T10022   5.315   0.165   9.935 -1.7567  0.4474  0.6165
  100OSM    C8S10023   5.228   0.313   9.815  0.3670 -0.8639  0.0395
  100OSM    H8S10024   5.327   0.340   9.773  0.0722 -0.3237 -0.3353
  100OSM    H8T10025   5.165   0.404   9.825  1.7325  0.0710  0.3478
  100OSM    C9S10026   5.157   0.206   9.723  0.6584 -0.0151 -0.1552
  100OSM    H9S10027   5.063   0.178   9.774 -0.2995  0.7212 -1.4526
  100OSM    H9T10028   5.209   0.107   9.720 -0.3471 -0.6192  1.3463
  100OSM   C10S10029   5.114   0.262   9.587 -0.0968  0.1213 -0.8451
  100OSM   H10S10030   5.083   0.366   9.611 -3.3165 -0.8092 -0.6272
  100OSM   H10T10031   5.038   0.191   9.549  1.4776 -1.2014 -1.6676
  100OSM   C11S10032   5.240   0.254   9.494 -0.4449 -0.5271 -0.2450
  100OSM   H11S10033   5.276   0.149   9.503 -1.1120 -0.7277  0.1694
  100OSM   H11T10034   5.316   0.326   9.530 -0.7596 -0.3659  0.1011
  100OSM   C12S10035   5.202   0.287   9.346  0.4676  0.5711  0.3504
  100OSM   H12S10036   5.290   0.263   9.283  0.6811 -0.0758  0.8820
  100OSM   H12T10037   5.171   0.393   9.334 -1.3206  0.2399  1.5367
  100OSM   C13S10038   5.083   0.202   9.309 -0.4396 -0.3462 -0.0889
  100OSM   H13S10039   4.988   0.252   9.339 -0.0363 -0.0581  0.7432
  100OSM   H13T10040   5.089   0.101   9.354  0.2273 -1.4184 -2.4171
  100OSM   C14S10041   5.050   0.193   9.152 -0.5315 -0.5170  0.6534
  100OSM   H14S10042   5.056   0.297   9.114  0.3925 -0.9221 -0.3650
  100OSM   H14T10043   4.944   0.182   9.121 -0.4466  0.6563 -0.0798
  100OSM   C15S10044   5.153   0.117   9.071  0.8761 -0.3512 -0.4655
  100OSM   H15S10045   5.140   0.011   9.102  0.4516 -0.4945 -1.0946
  100OSM   H15T10046   5.258   0.145   9.092  0.6569 -0.0327  0.2243
  100OSM   C16S10047   5.120   0.108   8.919 -0.0534  0.0373 -0.3225
  100OSM   H16S10048   5.027   0.049   8.904  0.8659 -1.7402  0.6818
  100OSM   H16T10049   5.208   0.053   8.877  1.5914  2.4357 -0.1997
  100OSM   C17S10050   5.122   0.230   8.833 -0.4828  0.5090  0.7816
  100OSM   H17S10051   5.218   0.284   8.848  0.0481 -0.2205  0.1191
  100OSM   H17T10052   5.052   0.311   8.861  1.2845  1.3711  2.9214
  100OSM   C18S10053   5.106   0.195   8.686  0.3223  0.7340 -0.3901
  100OSM   H18S10054   5.150   0.095   8.667  2.1822  0.9756  2.1144
  100OSM   H18T10055   5.147   0.273   8.619  0.9868 -1.1329 -2.2948
  100OSM   H18U10056   4.997   0.179   8.668  0.8956 -1.6325 -2.3832
  100OSM    C1F10057   5.408  -0.246  10.249 -0.1300  0.0111  0.3917
  100OSM     OF10058   5.323  -0.332  10.261  0.1687 -0.9232 -0.3346
  100OSM    C2F10059   5.543  -0.278  10.185 -0.3434 -0.0923 -0.5641
  100OSM    H2F10060   5.568  -0.384  10.209 -0.1099  0.3767  1.4765
  100OSM    H2G10061   5.614  -0.199  10.217  2.0236 -2.2279 -0.2016
  100OSM    C3F10062   5.537  -0.254  10.036  0.3091 -0.1219 -0.3410
  100OSM    H3F10063   5.641  -0.259   9.999  0.4501  1.3609 -0.2184
  100OSM    H3G10064   5.498  -0.150  10.028 -2.4163 -0.9034  1.3046
  100OSM    C4F10065   5.452  -0.353   9.954  0.0171  0.5454  0.2716
  100OSM    H4F10066   5.343  -0.334   9.960  0.0830  0.6827  1.1750
  100OSM    H4G10067   5.462  -0.451  10.007 -0.0715  0.4259  0.0672
  100OSM    C5F10068   5.480  -0.358   9.802  0.7903  0.1422  0.0893
  100OSM    H5F10069   5.431  -0.444   9.752  0.3533  0.8531 -0.7290
  100OSM    H5G10070   5.585  -0.379   9.773  0.5919 -3.2177  1.4418
  100OSM    C6F10071   5.428  -0.236   9.724 -0.1574  0.0916  0.3125
  100OSM    H6F10072   5.458  -0.144   9.777 -2.9192  1.1166  0.2677
  100OSM    H6G10073   5.317  -0.235   9.733 -0.1873  1.6437 -0.0289
  100OSM    C7F10074   5.469  -0.247   9.567 -0.2034 -0.0317  0.0417
  100OSM    H7F10075   5.432  -0.340   9.518 -0.4226  1.7012 -3.3914
  100OSM    H7G10076   5.580  -0.239   9.564 -0.2957  1.6863  0.1030
  100OSM    C8F10077   5.415  -0.129   9.481  0.1301 -0.4299 -0.6475
  100OSM    H8F10078   5.450  -0.034   9.526 -0.8796 -0.2768 -0.1607
  100OSM    H8G10079   5.304  -0.133   9.469  0.1415 -2.1526 -0.4337
  100OSM    C9F10080   5.480  -0.133   9.348  0.1854  0.1726  0.4811
  100OSM    H9F10081   5.579  -0.086   9.340  0.5658 -0.9289 -2.7356
  100OSM   C10F10082   5.427  -0.192   9.235  0.9737 -0.1839  0.1315
  100OSM   H10F10083   5.476  -0.208   9.137 -0.0414 -1.5676 -0.1787
  100OSM   C11F10084   5.288  -0.243   9.230 -0.0636  0.3137 -0.5786
  100OSM   H11F10085   5.224  -0.168   9.281  1.6655  1.5315 -0.1230
  100OSM   H11G10086   5.276  -0.344   9.275  1.0492  0.0814 -0.7760
  100OSM   C12F10087   5.242  -0.273   9.090 -0.4426  0.4722 -0.2432
  100OSM   H12F10088   5.324  -0.338   9.051 -0.8217 -0.2719  0.1746
  100OSM   H12G10089   5.219  -0.182   9.030 -1.8604 -0.1018 -0.6114
  100OSM   C13F10090   5.116  -0.358   9.094 -0.4379 -0.5196  0.5770
  100OSM   H13F10091   5.039  -0.304   9.153 -2.0692 -2.2691  0.1644
  100OSM   H13G10092   5.127  -0.457   9.145 -1.5519 -1.1282 -0.3087
  100OSM   C14F10093   5.058  -0.375   8.955 -0.0992 -0.0899  0.0598
  100OSM   H14F10094   5.045  -0.276   8.905  1.8456 -0.1237 -0.6194
  100OSM   H14G10095   4.957  -0.404   8.988 -0.3668  0.8987  0.1526
  100OSM   C15F10096   5.117  -0.491   8.874 -0.0688  0.1329  0.3940
  100OSM   H15F10097   5.087  -0.585   8.926  1.6607  1.1955  3.5351
  100OSM   H15G10098   5.227  -0.486   8.889  0.2409 -1.1184 -1.0974
  100OSM   C16F10099   5.095  -0.495   8.723  0.2116 -0.3908 -0.0732
  100OSM   H16F10100   4.990  -0.469   8.696 -0.3476 -3.2550 -1.1278
  100OSM   H16G10101   5.116  -0.597   8.685  1.0573 -0.5848  0.8743
  100OSM   C17F10102   5.172  -0.391   8.638 -0.3563 -0.2955  0.5625
  100OSM   H17F10103   5.184  -0.426   8.534 -1.1737 -1.4203  0.8266
  100OSM   H17G10104   5.272  -0.368   8.681 -0.6051  1.0604  0.4895
  100OSM   C18F10105   5.093  -0.255   8.630  0.2120  0.1502 -0.0421
  100OSM   H18F10106   5.090  -0.199   8.726 -0.2210 -2.5457  1.6431
  100OSM   H18G10107   4.988  -0.276   8.599 -0.3957  2.6410  0.1329
  100OSM   H18H10108   5.144  -0.191   8.555  1.0864 -2.1380 -1.5219
  101OSM      N10109   6.570   5.959  10.672  0.8729 -0.1864 -0.0221
  101OSM    C1510110   6.435   5.973  10.740 -0.8836 -0.0049  0.0982
  101OSM   H15A10111   6.392   5.874  10.747 -0.9356 -0.0154 -0.3303
  101OSM   H15B10112   6.371   6.038  10.682  0.0841  3.0063  2.1649
  101OSM   H15C10113   6.444   6.020  10.836 -0.0495 -0.0241  0.0383
  101OSM    C1410114   6.537   5.937  10.522 -0.4023  0.1018 -0.5645
  101OSM   H14A10115   6.620   5.906  10.460  1.7698 -0.8558  2.5405
  101OSM   H14B10116   6.501   6.027  10.474 -0.2101  0.6781  0.3562
  101OSM   H14C10117   6.473   5.851  10.511  0.7182 -0.9438  0.6490
  101OSM    C1310118   6.644   6.086  10.683  0.4410  0.0268 -0.2044
  101OSM   H13A10119   6.587   6.169  10.644  0.6117 -0.0004 -0.5123
  101OSM   H13B10120   6.739   6.079  10.632 -0.6079 -1.7377 -2.1001
  101OSM   H13C10121   6.658   6.108  10.787 -2.4327  0.0783  0.2694
  101OSM    C1210122   6.645   5.844  10.734 -0.1987 -0.2162  0.5482
  101OSM   H12A10123   6.655   5.857  10.840 -3.1180  1.9309  0.6527
  101OSM   H12B10124   6.740   5.845  10.682 -1.7705  1.6043 -2.5453
  101OSM    C1110125   6.586   5.708  10.711  0.5079  1.4857 -0.6193
  101OSM   H11A10126   6.667   5.642  10.750  0.5243  1.0952 -1.2929
  101OSM   H11B10127   6.571   5.688  10.603 -0.1959 -0.9742 -0.1439
  101OSM      P10128   6.403   5.545  10.776 -0.2373 -0.0398 -0.0217
  101OSM    O1310129   6.499   5.437  10.808  0.4279  0.2783 -1.0051
  101OSM    O1410130   6.278   5.550  10.861  0.0050 -0.2011  0.9579
  101OSM    O1110131   6.363   5.519  10.633  0.4206  0.1643  0.3742
  101OSM    O1210132   6.469   5.681  10.790  0.2198 -0.1861  0.1177
  101OSM    C1S10133   6.285   5.615  10.561 -0.1883 -0.1428 -0.7656
  101OSM    H1S10134   6.332   5.716  10.551 -3.2999  1.3441 -1.5375
  101OSM    H1T10135   6.197   5.636  10.625  0.8658  0.4881  0.5285
  101OSM     NF10136   6.167   5.698  10.367 -0.3220  0.3606 -0.5252
  101OSM    HNF10137   6.069   5.715  10.365 -0.3637  0.0622 -2.3899
  101OSM    C2S10138   6.240   5.577  10.416  0.5893 -0.1323 -0.2698
  101OSM    H2S10139   6.332   5.567  10.354  1.5784  2.1448  0.6818
  101OSM    C3S10140   6.157   5.440  10.421 -0.0501 -1.0627 -0.0120
  101OSM    H3S10141   6.067   5.462  10.482 -0.7566 -1.7884 -0.7696
  101OSM     O310142   6.230   5.341  10.490 -0.6817  0.8061  0.0108
  101OSM    HO310143   6.294   5.390  10.541 -0.1255  0.4198 -0.3113
  101OSM    C4S10144   6.113   5.407  10.278 -0.3984  0.2083  0.7230
  101OSM    H4S10145   6.033   5.472  10.239 -2.0601 -2.3643 -0.4292
  101OSM    C5S10146   6.177   5.329  10.187 -0.4575 -0.2962  0.3097
  101OSM    H5S10147   6.270   5.284  10.223  0.2795  0.2148 -0.8874
  101OSM    C6S10148   6.132   5.312  10.041  0.7054  0.5987 -0.3805
  101OSM    H6S10149   6.059   5.229  10.031  0.6750  0.4070  1.2494
  101OSM    H6T10150   6.223   5.273   9.991  0.2089 -0.3370 -0.5645
  101OSM    C7S10151   6.079   5.433   9.962 -0.3821  0.0880 -0.1152
  101OSM    H7S10152   6.001   5.471  10.032 -0.2343 -0.9848  0.6628
  101OSM    H7T10153   6.035   5.397   9.867 -1.5963 -1.4458  0.9695
  101OSM    C8S10154   6.183   5.552   9.934 -0.5305 -0.2561  0.1049
  101OSM    H8S10155   6.228   5.580  10.032 -1.3364  1.9156 -0.0814
  101OSM    H8T10156   6.130   5.643   9.899 -1.6338 -1.0124 -0.2328
  101OSM    C9S10157   6.298   5.529   9.837 -1.0178  0.8500  0.2375
  101OSM    H9S10158   6.377   5.458   9.869 -0.8420  0.8669 -0.1449
  101OSM    H9T10159   6.362   5.620   9.833 -2.7590  2.1150 -2.4228
  101OSM   C10S10160   6.259   5.500   9.695 -0.3093  0.1082  0.9241
  101OSM   H10S10161   6.169   5.564   9.682 -1.0652 -0.5775  2.5210
  101OSM   H10T10162   6.230   5.396   9.671 -0.9158  0.6860 -1.1115
  101OSM   C11S10163   6.372   5.530   9.595 -0.0049 -0.4142  0.3659
  101OSM   H11S10164   6.467   5.486   9.632  0.1128 -1.4550 -1.1182
  101OSM   H11T10165   6.399   5.638   9.594  0.2330 -0.4683  0.6056
  101OSM   C12S10166   6.353   5.470   9.455 -0.0192  0.4863 -1.1261
  101OSM   H12S10167   6.256   5.517   9.431  0.7113  2.7503  0.1087
  101OSM   H12T10168   6.338   5.360   9.458 -1.1795  0.6568  0.8169
  101OSM   C13S10169   6.457   5.505   9.345 -0.5128  0.4125  0.3185
  101OSM   H13S10170   6.557   5.469   9.377 -1.3863 -1.8667  0.6359
  101OSM   H13T10171   6.460   5.616   9.335 -0.9691  0.2887 -1.4314
  101OSM   C14S10172   6.430   5.455   9.202 -0.2964  0.2190 -0.0931
  101OSM   H14S10173   6.338   5.495   9.153  0.8676  0.4195 -2.2870
  101OSM   H14T10174   6.405   5.347   9.197 -0.5269  0.2658  0.0217
  101OSM   C15S10175   6.552   5.494   9.116  0.1975  0.7570 -0.0912
  101OSM   H15S10176   6.647   5.449   9.152 -1.3320 -1.8775  1.0034
  101OSM   H15T10177   6.557   5.605   9.121 -1.0747  0.7775  2.2276
  101OSM   C16S10178   6.528   5.454   8.968  0.5943 -0.3991 -1.0166
  101OSM   H16S10179   6.418   5.442   8.953  0.5679 -2.4759  0.4265
  101OSM   H16T10180   6.579   5.356   8.962  1.9697  0.1413  1.0684
  101OSM   C17S10181   6.593   5.548   8.861  0.6094  0.6093 -0.1867
  101OSM   H17S10182   6.693   5.589   8.886  0.0587  3.4556 -2.2382
  101OSM   H17T10183   6.528   5.638   8.857 -0.1373  0.1863  1.4071
  101OSM   C18S10184   6.605   5.478   8.717  0.1760  0.1827 -0.7544
  101OSM   H18S10185   6.507   5.456   8.669 -0.8302  0.6250  0.9841
  101OSM   H18T10186   6.661   5.385   8.737 -0.8598  0.0105  1.8238
  101OSM   H18U10187   6.646   5.557   8.651  0.1540 -0.5736 -1.6954
  101OSM    C1F10188   6.240   5.806  10.335  0.6424 -0.8160  0.0435
  101OSM     OF10189   6.359   5.798  10.328 -0.0469 -0.0493  0.3028
  101OSM    C2F10190   6.177   5.941  10.311 -0.0867  0.3762  0.0209
  101OSM    H2F10191   6.219   6.010  10.387  1.3523  0.7401 -1.0462
  101OSM    H2G10192   6.066   5.938  10.315 -0.0545 -3.1165  1.7085
  101OSM    C3F10193   6.222   6.018  10.185 -0.4788 -0.2896  0.6119
  101OSM    H3F10194   6.330   6.033  10.206 -0.9577  2.6781  1.3242
  101OSM    H3G10195   6.165   6.113  10.183 -2.2711 -1.2553  2.5305
  101OSM    C4F10196   6.189   5.943  10.057 -0.2819  0.1888  0.0348
  101OSM    H4F10197   6.098   5.884  10.084  0.1787 -0.7874 -0.4886
  101OSM    H4G10198   6.264   5.861  10.055 -2.1585 -1.6437 -0.5128
  101OSM    C5F10199   6.176   6.030   9.931 -0.7915 -0.0933  0.4851
  101OSM    H5F10200   6.270   6.079   9.899  0.3663 -3.5226 -1.9718
  101OSM    H5G10201   6.096   6.103   9.954  0.6571  2.5846 -2.2668
  101OSM    C6F10202   6.127   5.938   9.820  0.0481  0.2459  0.6383
  101OSM    H6F10203   6.198   5.854   9.807  2.3272  2.1808 -0.2260
  101OSM    H6G10204   6.023   5.910   9.847 -0.5440  2.0216  0.3299
  101OSM    C7F10205   6.100   5.999   9.684  0.3007 -0.5311 -0.2163
  101OSM    H7F10206   6.021   6.077   9.682  0.4657 -0.3532  0.2118
  101OSM    H7G10207   6.043   5.932   9.616 -0.0183  1.4459 -2.0308
  101OSM    C8F10208   6.228   6.044   9.614  0.7107 -0.3713  0.1557
  101OSM    H8F10209   6.310   5.970   9.625  1.4835  0.4861  0.3208
  101OSM    H8G10210   6.272   6.128   9.672 -0.4346  0.7773 -0.5693
  101OSM    C9F10211   6.216   6.085   9.465  0.4967 -0.1319  0.1405
  101OSM    H9F10212   6.188   6.189   9.443  1.8168  0.0766 -0.6544
  101OSM   C10F10213   6.242   6.010   9.355  0.1842 -0.5275 -0.2753
  101OSM   H10F10214   6.223   6.054   9.256  1.3602 -1.6848 -1.0267
  101OSM   C11F10215   6.300   5.870   9.346 -0.7726  0.1343  0.0053
  101OSM   H11F10216   6.287   5.821   9.445 -0.4214 -0.4419 -0.2269
  101OSM   H11G10217   6.406   5.883   9.318 -1.0135  0.8854 -0.6069
  101OSM   C12F10218   6.233   5.783   9.243  0.0984 -0.0909  0.1816
  101OSM   H12F10219   6.128   5.760   9.272 -0.2295  0.8671 -0.2147
  101OSM   H12G10220   6.285   5.685   9.238  1.5394  0.7007 -1.7987
  101OSM   C13F10221   6.239   5.838   9.106 -0.2964 -0.4530 -0.3764
  101OSM   H13F10222   6.339   5.883   9.090  0.8663 -1.9515  2.0838
  101OSM   H13G10223   6.169   5.923   9.089 -0.4491 -0.8235 -1.6945
  101OSM   C14F10224   6.207   5.731   9.002  0.0358 -0.2628  0.2444
  101OSM   H14F10225   6.111   5.687   9.035 -0.2615  0.2761  0.1142
  101OSM   H14G10226   6.276   5.645   9.017 -0.7670 -0.8265  0.7658
  101OSM   C15F10227   6.222   5.786   8.861 -0.4132 -0.1302  0.5044
  101OSM   H15F10228   6.321   5.834   8.849  0.7640 -2.1685  1.3898
  101OSM   H15G10229   6.146   5.866   8.851  0.6964  0.8018 -0.7036
  101OSM   C16F10230   6.192   5.696   8.745  0.0953 -0.3353 -0.1708
  101OSM   H16F10231   6.085   5.665   8.750 -0.3557  1.2260  0.4899
  101OSM   H16G10232   6.257   5.606   8.743  3.0002  1.6682 -0.5298
  101OSM   C17F10233   6.205   5.768   8.616 -0.2084 -0.0681 -0.2630
  101OSM   H17F10234   6.312   5.794   8.602 -0.7047  2.0053 -0.6484
  101OSM   H17G10235   6.131   5.852   8.617  0.5713  0.6377 -0.2093
  101OSM   C18F10236   6.162   5.662   8.509 -0.1810  0.8216 -0.6368
  101OSM   H18F10237   6.062   5.619   8.535 -0.0553  1.4782  1.0586
  101OSM   H18G10238   6.243   5.590   8.486  0.6542  2.4055 -3.0720
  101OSM   H18H10239   6.152   5.713   8.410 -1.6136  0.6842 -0.5900
  102OSM      N10240   0.292   3.222  10.983  0.0557  0.2868 -0.9294
  102OSM    C1510241   0.202   3.336  11.017 -0.2522 -0.2449 -0.4161
  102OSM   H15A10242   0.168   3.347  11.118  1.0803 -0.1993  0.0439
  102OSM   H15B10243   0.117   3.355  10.952  0.1835  0.8458 -0.6822
  102OSM   H15C10244   0.257   3.426  10.995  0.8212 -0.6838  0.4261
  102OSM    C1410245   0.368   3.242  10.860 -0.5690 -0.8678 -0.1039
  102OSM   H14A10246   0.309   3.278  10.777  2.0962  0.6476 -1.4913
  102OSM   H14B10247   0.441   3.169  10.829  1.8450  1.9225 -1.4519
  102OSM   H14C10248   0.429   3.329  10.881  1.7548 -2.0209 -1.6605
  102OSM    C1310249   0.376   3.195  11.105 -0.3268  0.2692 -0.8594
  102OSM   H13A10250   0.451   3.269  11.129  0.1070 -0.4556  0.0684
  102OSM   H13B10251   0.418   3.096  11.108 -1.0395 -0.0281  2.0418
  102OSM   H13C10252   0.308   3.181  11.188  1.1252  0.4802  0.4009
  102OSM    C1210253   0.208   3.091  10.953  0.5963  0.1314  0.1101
  102OSM   H12A10254   0.165   3.054  11.044 -0.2161 -0.8546 -0.6599
  102OSM   H12B10255   0.276   3.012  10.926  1.1072 -0.1787  2.1696
  102OSM    C1110256   0.095   3.110  10.845  0.1099  0.4502 -0.2925
  102OSM   H11A10257   0.058   3.008  10.823  1.1498 -0.1658  0.6795
  102OSM   H11B10258   0.136   3.151  10.750  0.6802 -2.4980 -1.4120
  102OSM      P10259  -0.136   3.176  10.981 -0.2292 -0.3968 -0.1198
  102OSM    O1310260  -0.111   3.068  11.082  0.1971  0.7536  0.3137
  102OSM    O1410261  -0.174   3.305  11.048 -0.1670 -0.1887  0.4894
  102OSM    O1110262  -0.240   3.130  10.874 -0.6470 -0.3511 -0.1371
  102OSM    O1210263  -0.006   3.196  10.895  0.5129  0.1720  0.2871
  102OSM    C1S10264  -0.283   3.220  10.764 -0.0597 -0.0907  0.0110
  102OSM    H1S10265  -0.263   3.327  10.790 -1.8197 -0.1022  1.5417
  102OSM    H1T10266  -0.393   3.205  10.766  0.2848 -2.9862  1.1649
  102OSM     NF10267  -0.232   3.299  10.549 -0.3139 -0.3198  0.1062
  102OSM    HNF10268  -0.300   3.307  10.477 -0.1572  0.3303  0.0216
  102OSM    C2S10269  -0.227   3.188  10.628 -0.0038 -0.0198 -0.0189
  102OSM    H2S10270  -0.116   3.175  10.632 -0.1561 -1.4876 -0.0721
  102OSM    C3S10271  -0.285   3.064  10.569  0.0722 -0.1083 -0.1719
  102OSM    H3S10272  -0.391   3.085  10.547  0.2085  2.4984  1.3126
  102OSM     O310273  -0.304   2.963  10.667 -0.4359 -0.3388 -0.1722
  102OSM    HO310274  -0.272   3.003  10.748  0.5093 -2.0105  0.3478
  102OSM    C4S10275  -0.210   3.012  10.441  0.1710 -0.2324 -1.1059
  102OSM    H4S10276  -0.261   3.053  10.353 -1.6875  2.8545  1.2186
  102OSM    C5S10277  -0.099   2.938  10.430 -0.2169  0.0284  0.2580
  102OSM    H5S10278  -0.049   2.918  10.525  1.2738 -0.6851 -0.6319
  102OSM    C6S10279  -0.018   2.908  10.303 -0.2400 -0.4842  0.0521
  102OSM    H6S10280  -0.030   2.801  10.273 -0.8228 -0.7364  1.1435
  102OSM    H6T10281   0.089   2.932  10.318  0.1860 -0.6762 -2.2572
  102OSM    C7S10282  -0.050   2.996  10.189  0.2365  0.8147 -0.2377
  102OSM    H7S10283  -0.015   3.098  10.219  2.8697  0.2056 -1.0372
  102OSM    H7T10284  -0.155   3.003  10.155  0.1207 -0.3980 -0.1720
  102OSM    C8S10285   0.023   2.957  10.057 -0.1265  0.0094 -0.4908
  102OSM    H8S10286   0.039   2.848  10.044  0.2491 -0.2136  1.4552
  102OSM    H8T10287   0.128   2.993  10.063 -0.1654 -0.0852  2.6279
  102OSM    C9S10288  -0.036   3.024   9.941  0.7736  0.2826 -0.2561
  102OSM    H9S10289  -0.061   3.130   9.961  0.0344  0.3772 -1.6267
  102OSM    H9T10290  -0.126   2.964   9.919  1.2081 -0.2106 -0.7315
  102OSM   C10S10291   0.056   3.024   9.821  0.2094  0.1152  0.7972
  102OSM   H10S10292   0.067   2.924   9.774 -0.0645 -0.2582  1.5121
  102OSM   H10T10293   0.157   3.058   9.855 -0.1281  1.1849  0.7767
  102OSM   C11S10294   0.021   3.130   9.712 -1.3402 -0.7226  0.5364
  102OSM   H11S10295  -0.000   3.224   9.767 -2.0469 -0.9099  0.5979
  102OSM   H11T10296  -0.073   3.089   9.668 -1.2658 -2.6974  2.0667
  102OSM   C12S10297   0.128   3.128   9.606  0.3580  0.4289  0.0897
  102OSM   H12S10298   0.145   3.022   9.580 -0.2970  0.5458 -0.8659
  102OSM   H12T10299   0.217   3.168   9.659  0.7125  0.7128 -0.7058
  102OSM   C13S10300   0.085   3.200   9.480  0.2545  0.5486  0.2769
  102OSM   H13S10301   0.176   3.230   9.425  0.2657 -0.6965 -0.4325
  102OSM   H13T10302   0.034   3.294   9.511  0.9863  0.8624  0.5515
  102OSM   C14S10303   0.000   3.113   9.383  0.0381  0.5197  0.2418
  102OSM   H14S10304  -0.097   3.084   9.428  0.0183  0.5899  0.2451
  102OSM   H14T10305   0.061   3.025   9.353  0.9854  0.7802  1.3246
  102OSM   C15S10306  -0.041   3.186   9.247  0.2646 -0.0766 -0.0991
  102OSM   H15S10307  -0.096   3.279   9.270  3.6277  1.1671  4.3967
  102OSM   H15T10308  -0.116   3.118   9.200  0.1773  1.0327 -1.6489
  102OSM   C16S10309   0.072   3.200   9.148 -0.1572  0.5863 -0.4210
  102OSM   H16S10310   0.128   3.104   9.137 -0.7719  0.3125 -1.2712
  102OSM   H16T10311   0.140   3.283   9.180  1.0146 -0.3541 -0.3901
  102OSM   C17S10312   0.029   3.249   9.013 -0.1572  0.1644  1.2081
  102OSM   H17S10313  -0.039   3.171   8.972  0.5837  0.1910 -0.1238
  102OSM   H17T10314   0.117   3.258   8.947 -0.3641  0.3631  0.9566
  102OSM   C18S10315  -0.033   3.388   9.023 -0.0572 -1.0644 -0.5991
  102OSM   H18S10316   0.030   3.448   9.091 -2.5480  0.7649  0.2323
  102OSM   H18T10317  -0.132   3.391   9.073  0.3150 -0.2459  0.1085
  102OSM   H18U10318  -0.041   3.443   8.926 -0.5091 -0.9320 -0.4889
  102OSM    C1F10319  -0.174   3.419  10.574  0.3574  0.2087  0.0611
  102OSM     OF10320  -0.090   3.422  10.665  1.0867 -0.5509  0.6013
  102OSM    C2F10321  -0.233   3.538  10.494  0.0733  0.7087 -0.1643
  102OSM    H2F10322  -0.277   3.605  10.571 -0.7347  0.1104 -0.0985
  102OSM    H2G10323  -0.318   3.500  10.433 -2.4090  0.8612  2.9925
  102OSM    C3F10324  -0.113   3.604  10.427  0.0035 -0.1251 -0.3684
  102OSM    H3F10325  -0.053   3.532  10.367 -1.7420 -2.0997  0.1358
  102OSM    H3G10326  -0.035   3.638  10.498  0.9535  0.5728 -1.6882
  102OSM    C4F10327  -0.166   3.723  10.343  0.4302 -0.1523 -0.1064
  102OSM    H4F10328  -0.216   3.805  10.398  1.6992 -0.7197  1.9884
  102OSM    H4G10329  -0.238   3.684  10.268  1.9978 -0.1076 -1.6995
  102OSM    C5F10330  -0.045   3.782  10.266 -0.1079 -1.0685  0.3302
  102OSM    H5F10331   0.027   3.700  10.244 -1.6081 -2.6293  0.9634
  102OSM    H5G10332   0.000   3.847  10.345 -1.4314  2.0506 -1.3135
  102OSM    C6F10333  -0.081   3.867  10.147  0.2059 -0.1795 -0.0308
  102OSM    H6F10334   0.006   3.935  10.134  0.6821 -0.4316  1.5570
  102OSM    H6G10335  -0.167   3.933  10.174  1.0913  0.0115  2.6678
  102OSM    C7F10336  -0.110   3.778  10.021 -0.2989  0.6707  0.8512
  102OSM    H7F10337  -0.158   3.688  10.064 -1.3768  0.3257 -0.9562
  102OSM    H7G10338  -0.009   3.769   9.975 -2.0765  1.0129 -3.7076
  102OSM    C8F10339  -0.199   3.864   9.920 -0.4314 -0.2658 -0.1139
  102OSM    H8F10340  -0.171   3.970   9.937 -1.3515 -0.3198  2.1657
  102OSM    H8G10341  -0.307   3.856   9.947 -0.6992  1.7392 -0.4566
  102OSM    C9F10342  -0.160   3.808   9.791  0.3949  0.3893  0.9712
  102OSM    H9F10343  -0.190   3.703   9.778  2.4114 -0.1641  0.4257
  102OSM   C10F10344  -0.115   3.872   9.682 -0.2344 -0.5891  0.1875
  102OSM   H10F10345  -0.098   3.823   9.585  0.7162  0.2824 -0.1001
  102OSM   C11F10346  -0.086   4.020   9.679  0.5746  0.3027 -0.4033
  102OSM   H11F10347  -0.004   4.052   9.747  0.3905  1.6735 -0.8098
  102OSM   H11G10348  -0.182   4.073   9.694 -0.4468 -1.2318 -1.2171
  102OSM   C12F10349  -0.036   4.064   9.533  0.0037 -0.2373 -0.1357
  102OSM   H12F10350   0.061   4.018   9.509 -0.9696 -0.9487 -3.0754
  102OSM   H12G10351  -0.014   4.173   9.534 -0.4436 -0.1061 -1.7854
  102OSM   C13F10352  -0.126   4.035   9.410  0.6794 -0.1033 -0.9363
  102OSM   H13F10353  -0.227   4.081   9.422  0.2893 -0.8750 -1.1877
  102OSM   H13G10354  -0.142   3.926   9.405  0.3209 -0.1873  1.1879
  102OSM   C14F10355  -0.078   4.102   9.277 -0.3345  0.2892 -0.3670
  102OSM   H14F10356   0.033   4.111   9.283 -0.4348  4.0390 -1.4042
  102OSM   H14G10357  -0.119   4.205   9.270  0.9393  0.8374 -0.0610
  102OSM   C15F10358  -0.127   4.030   9.155 -0.4124 -0.3731  0.4101
  102OSM   H15F10359  -0.235   4.009   9.170  0.0199 -2.6638  0.5508
  102OSM   H15G10360  -0.066   3.939   9.135  1.4610  1.0393 -0.7211
  102OSM   C16F10361  -0.089   4.110   9.033  0.4511 -0.6384 -0.2448
  102OSM   H16F10362  -0.155   4.199   9.028 -0.5310 -1.3435 -0.1778
  102OSM   H16G10363  -0.114   4.045   8.946 -0.3433 -0.1952 -0.3586
  102OSM   C17F10364   0.056   4.151   9.023  0.5568  1.0549 -0.3105
  102OSM   H17F10365   0.120   4.061   9.016 -0.8558 -0.0347  0.3067
  102OSM   H17G10366   0.090   4.209   9.111  0.3449  2.1945 -0.9562
  102OSM   C18F10367   0.079   4.238   8.912 -0.1655 -0.1059  0.1669
  102OSM   H18F10368   0.188   4.234   8.891 -0.2508 -1.6838 -0.0340
  102OSM   H18G10369   0.052   4.343   8.939  0.0719  0.5936 -2.0943
  102OSM   H18H10370   0.015   4.208   8.826  0.1995 -1.3788  0.3331
  103OSM      N10371   1.546   4.669  10.972 -0.0972 -0.3272 -0.6463
  103OSM    C1510372   1.446   4.779  11.007  0.0472 -0.0280 -0.4487
  103OSM   H15A10373   1.415   4.824  10.914  3.0725 -1.0762 -2.1064
  103OSM   H15B10374   1.492   4.858  11.063  2.7977 -1.0459 -1.0815
  103OSM   H15C10375   1.359   4.743  11.059 -2.3151  2.4371 -2.4070
  103OSM    C1410376   1.665   4.716  10.894 -0.3204 -0.6770  0.1251
  103OSM   H14A10377   1.647   4.753  10.794 -0.1720  0.1616  0.3967
  103OSM   H14B10378   1.742   4.641  10.886 -1.0459 -1.4729  0.5665
  103OSM   H14C10379   1.711   4.799  10.946 -1.0231 -0.8307  1.0006
  103OSM    C1310380   1.602   4.613  11.098 -0.1669 -0.2037 -0.7477
  103OSM   H13A10381   1.685   4.545  11.085  1.7650  1.4950  1.6025
  103OSM   H13B10382   1.525   4.558  11.149  0.7778  1.4462  2.7823
  103OSM   H13C10383   1.639   4.693  11.162 -0.5298  0.7601 -1.7051
  103OSM    C1210384   1.465   4.566  10.889  0.0080  0.1755  0.6045
  103OSM   H12A10385   1.429   4.615  10.800  0.9914  1.6032  0.9532
  103OSM   H12B10386   1.370   4.539  10.933 -0.9747  1.4984 -0.6271
  103OSM    C1110387   1.541   4.438  10.832  0.6019 -1.0307 -0.1728
  103OSM   H11A10388   1.607   4.477  10.752 -0.2738  0.6664 -0.1244
  103OSM   H11B10389   1.458   4.389  10.776  0.2930  3.1020 -3.9154
  103OSM      P10390   1.737   4.301  10.911 -0.3914 -0.0648 -0.0207
  103OSM    O1310391   1.834   4.412  10.937  0.0942  0.0352  0.0190
  103OSM    O1410392   1.764   4.189  11.001  0.0356  0.5475 -0.1091
  103OSM    O1110393   1.744   4.257  10.758  0.5059  0.0006 -0.7053
  103OSM    O1210394   1.590   4.342  10.930 -0.1607 -0.3806  0.2593
  103OSM    C1S10395   1.874   4.242  10.693  0.8713  0.1627 -0.3571
  103OSM    H1S10396   1.935   4.177  10.759 -1.6884 -3.3730 -1.1995
  103OSM    H1T10397   1.912   4.344  10.669 -2.0557  1.4615 -0.0245
  103OSM     NF10398   1.998   4.170  10.492 -0.8476 -0.1311 -0.5453
  103OSM    HNF10399   2.029   4.233  10.422 -1.4669  1.2809  0.4214
  103OSM    C2S10400   1.864   4.181  10.548 -0.5947 -0.4964  0.0381
  103OSM    H2S10401   1.828   4.076  10.548  1.2255 -1.2445 -3.1662
  103OSM    C3S10402   1.772   4.274  10.464 -0.4111  0.7634  0.4112
  103OSM    H3S10403   1.808   4.379  10.461 -0.5706  0.8062 -0.1376
  103OSM     O310404   1.638   4.285  10.510  0.7145 -0.5449 -0.1159
  103OSM    HO310405   1.648   4.248  10.598  0.0627  1.8731  1.0355
  103OSM    C4S10406   1.782   4.232  10.314  0.1503  0.2418 -0.2160
  103OSM    H4S10407   1.869   4.283  10.270  0.3853  1.3156  1.4235
  103OSM    C5S10408   1.697   4.165  10.237  0.2841 -0.4396  0.1354
  103OSM    H5S10409   1.596   4.131  10.267  1.1044 -2.1530  1.1142
  103OSM    C6S10410   1.710   4.125  10.092  0.2451 -0.4712 -0.1456
  103OSM    H6S10411   1.659   4.192  10.019 -0.6552 -1.9925 -0.9760
  103OSM    H6T10412   1.682   4.018  10.080 -0.9266 -0.1640 -0.2634
  103OSM    C7S10413   1.851   4.140  10.037 -0.5613 -0.5729 -0.7015
  103OSM    H7S10414   1.931   4.100  10.103 -0.3948  0.5772 -0.1761
  103OSM    H7T10415   1.878   4.246  10.014  0.5825 -0.3996  1.1801
  103OSM    C8S10416   1.879   4.066   9.904 -0.1606 -0.3477  0.0032
  103OSM    H8S10417   1.840   3.962   9.916  2.5262 -1.3896  0.3896
  103OSM    H8T10418   1.988   4.052   9.890 -0.3233 -1.1288 -0.5670
  103OSM    C9S10419   1.815   4.146   9.790 -0.4662 -0.0249 -0.2088
  103OSM    H9S10420   1.861   4.246   9.772 -1.5693  0.6603  0.6008
  103OSM    H9T10421   1.706   4.165   9.801 -0.8085 -1.9708  0.0039
  103OSM   C10S10422   1.837   4.072   9.653  0.0908  0.5084  0.2462
  103OSM   H10S10423   1.814   3.964   9.664  2.9518 -0.2381 -0.1643
  103OSM   H10T10424   1.948   4.066   9.642  0.1320  1.3039  0.1607
  103OSM   C11S10425   1.773   4.131   9.530 -0.3406 -0.0375  0.2752
  103OSM   H11S10426   1.808   4.236   9.523  2.1646 -0.8502 -0.3193
  103OSM   H11T10427   1.662   4.124   9.539 -0.2376 -2.2121  0.5676
  103OSM   C12S10428   1.815   4.064   9.397  0.6161 -0.0234 -0.0305
  103OSM   H12S10429   1.745   3.978   9.401 -0.7953  1.1197  0.6189
  103OSM   H12T10430   1.925   4.048   9.404  0.8891  1.3820 -0.8280
  103OSM   C13S10431   1.769   4.139   9.272 -0.3418  0.1816  0.5096
  103OSM   H13S10432   1.820   4.238   9.266  1.4016 -0.6590  0.8278
  103OSM   H13T10433   1.660   4.158   9.268 -0.2219  0.7910 -0.0705
  103OSM   C14S10434   1.809   4.064   9.143 -0.1543  0.1237  0.8223
  103OSM   H14S10435   1.786   3.956   9.152 -2.5510  0.4580 -0.4363
  103OSM   H14T10436   1.919   4.059   9.129 -0.4780 -0.3306 -2.1293
  103OSM   C15S10437   1.738   4.127   9.023 -0.7029  0.1115 -0.4755
  103OSM   H15S10438   1.638   4.157   9.060 -1.1406 -1.0080 -0.7140
  103OSM   H15T10439   1.718   4.050   8.945  0.4118  0.0966 -0.7742
  103OSM   C16S10440   1.816   4.249   8.965 -0.1431  0.2632 -0.6136
  103OSM   H16S10441   1.910   4.202   8.929  2.0214  2.7538  1.3422
  103OSM   H16T10442   1.847   4.309   9.053 -1.3071  0.5475 -0.3887
  103OSM   C17S10443   1.756   4.347   8.868  0.1954 -0.3009  0.1475
  103OSM   H17S10444   1.684   4.416   8.916 -0.7173 -1.5146  0.5838
  103OSM   H17T10445   1.708   4.287   8.787  2.2645 -0.8701 -0.7218
  103OSM   C18S10446   1.857   4.441   8.790  0.6156 -0.0089 -0.0552
  103OSM   H18S10447   1.887   4.512   8.871 -0.0744 -0.0767  0.2667
  103OSM   H18T10448   1.790   4.499   8.723  1.4314  0.7964 -0.1991
  103OSM   H18U10449   1.942   4.377   8.761 -0.9565 -2.8555  1.1738
  103OSM    C1F10450   2.080   4.072  10.532 -0.4951 -0.4519 -0.5754
  103OSM     OF10451   2.048   3.999  10.629  0.2912 -0.0296 -0.6143
  103OSM    C2F10452   2.216   4.062  10.458  0.7937 -0.1683  0.0544
  103OSM    H2F10453   2.301   4.023  10.518 -0.1157 -2.8612 -0.2667
  103OSM    H2G10454   2.246   4.164  10.425 -2.1068  1.2246  1.3007
  103OSM    C3F10455   2.196   3.977  10.332 -0.2452  0.3003 -0.0519
  103OSM    H3F10456   2.091   3.990  10.299 -0.5309 -1.1812  0.2223
  103OSM    H3G10457   2.200   3.869  10.355 -0.2068  0.6643  1.8675
  103OSM    C4F10458   2.274   4.002  10.202 -0.0855 -0.2643 -0.0851
  103OSM    H4F10459   2.379   3.967  10.213  0.4665  1.2433 -0.3696
  103OSM    H4G10460   2.275   4.110  10.179  0.8609 -0.4859 -1.1690
  103OSM    C5F10461   2.209   3.936  10.072  0.4377  0.2279  0.6189
  103OSM    H5F10462   2.107   3.978  10.063 -0.7573 -2.5596  0.0652
  103OSM    H5G10463   2.191   3.828  10.092 -0.9157 -0.1462 -2.1600
  103OSM    C6F10464   2.277   3.941   9.938 -0.4569  0.0601  0.1013
  103OSM    H6F10465   2.381   3.975   9.950 -1.0597  1.5135  1.5798
  103OSM    H6G10466   2.212   4.005   9.874 -2.3847 -0.5235  1.3665
  103OSM    C7F10467   2.278   3.807   9.857  0.6288 -0.3674 -0.0457
  103OSM    H7F10468   2.177   3.761   9.863 -0.0432  1.0508 -0.0360
  103OSM    H7G10469   2.352   3.747   9.913 -0.4469 -2.1775 -0.4971
  103OSM    C8F10470   2.326   3.835   9.712 -0.0876  0.3038 -0.3707
  103OSM    H8F10471   2.422   3.891   9.716  0.0614 -0.0208  0.9856
  103OSM    H8G10472   2.249   3.899   9.663  0.9810  0.7966 -1.4769
  103OSM    C9F10473   2.351   3.709   9.628 -0.1310 -0.1870 -0.7932
  103OSM    H9F10474   2.394   3.621   9.679 -1.7322 -0.5601 -0.0155
  103OSM   C10F10475   2.317   3.697   9.498  0.2105 -0.1267 -0.0823
  103OSM   H10F10476   2.347   3.602   9.452 -1.9232 -1.1967  0.6162
  103OSM   C11F10477   2.250   3.805   9.410 -0.5028  0.4197 -0.2964
  103OSM   H11F10478   2.164   3.859   9.457 -1.7568 -0.0490 -1.9386
  103OSM   H11G10479   2.203   3.762   9.319  1.8982  0.9975 -1.9079
  103OSM   C12F10480   2.352   3.910   9.365  1.0793 -0.8916  0.0986
  103OSM   H12F10481   2.442   3.853   9.334  0.4169 -2.1054  0.3263
  103OSM   H12G10482   2.375   3.962   9.460  1.4522 -0.9395  0.0350
  103OSM   C13F10483   2.297   4.007   9.263 -0.1094  0.0171 -0.4703
  103OSM   H13F10484   2.194   4.037   9.291  0.7053  1.0782  1.6630
  103OSM   H13G10485   2.293   3.955   9.166 -1.3873 -0.7098 -0.0499
  103OSM   C14F10486   2.382   4.138   9.245  0.5485  0.3421 -0.2541
  103OSM   H14F10487   2.486   4.106   9.225  1.5523  2.0191  1.7744
  103OSM   H14G10488   2.377   4.188   9.344  2.1391 -0.2389  0.1561
  103OSM   C15F10489   2.333   4.228   9.133  0.3783 -0.1557  0.4242
  103OSM   H15F10490   2.223   4.216   9.134  0.3791 -0.1608  0.4586
  103OSM   H15G10491   2.371   4.198   9.033 -0.2547 -0.9628  0.4155
  103OSM   C16F10492   2.363   4.381   9.141 -0.1515  0.3428 -0.6151
  103OSM   H16F10493   2.470   4.400   9.162 -0.5122  0.4357  1.3322
  103OSM   H16G10494   2.310   4.417   9.232  2.0305  0.8088  0.5288
  103OSM   C17F10495   2.311   4.464   9.024 -0.0574  0.0434  0.2517
  103OSM   H17F10496   2.230   4.534   9.054 -1.3087 -0.1714 -2.3336
  103OSM   H17G10497   2.268   4.393   8.950 -0.0947  0.5631 -0.2239
  103OSM   C18F10498   2.412   4.548   8.953 -0.1823  0.6200 -1.6644
  103OSM   H18F10499   2.502   4.490   8.923  2.6836  2.1518  2.8864
  103OSM   H18G10500   2.438   4.637   9.014  1.5861 -0.9297 -0.0316
  103OSM   H18H10501   2.354   4.592   8.868 -2.2190  2.6412  0.6257
  104OSM      N10502   2.137   4.186  11.058 -0.1792  0.0900 -0.2202
  104OSM    C1510503   2.028   4.174  11.156  0.5222  0.6082 -0.6020
  104OSM   H15A10504   1.928   4.201  11.124  0.4414  1.0861  0.0229
  104OSM   H15B10505   2.055   4.251  11.227  0.6845  2.2536 -2.3522
  104OSM   H15C10506   2.029   4.077  11.202 -1.4538  1.0568  0.4802
  104OSM    C1410507   2.129   4.072  10.951  0.1133 -0.2157 -0.7662
  104OSM   H14A10508   2.154   3.978  10.997  2.8214  0.7422 -0.0544
  104OSM   H14B10509   2.200   4.086  10.870  1.6377 -0.2043  0.5310
  104OSM   H14C10510   2.030   4.069  10.909  0.0982  0.2925 -0.7796
  104OSM    C1310511   2.122   4.316  10.984 -0.5617 -0.6414  0.2109
  104OSM   H13A10512   2.028   4.314  10.931 -0.7292 -2.9916  0.4726
  104OSM   H13B10513   2.201   4.334  10.913 -1.3772 -1.0852 -0.8338
  104OSM   H13C10514   2.116   4.399  11.053  0.3788 -1.3668  1.2123
  104OSM    C1210515   2.273   4.174  11.131  0.2772 -0.9207 -0.8479
  104OSM   H12A10516   2.260   4.085  11.191 -1.0206  1.2504  2.3777
  104OSM   H12B10517   2.276   4.257  11.200  2.0174 -0.6187 -1.2401
  104OSM    C1110518   2.406   4.173  11.045  0.4311  0.8633 -0.3267
  104OSM   H11A10519   2.409   4.078  10.988 -0.3541  1.2251 -0.9894
  104OSM   H11B10520   2.492   4.168  11.115  0.8688  1.1183 -0.8409
  104OSM      P10521   2.520   4.403  11.011  0.2379 -0.1692  0.4608
  104OSM    O1310522   2.484   4.523  10.933  0.0077  0.3647  0.0030
  104OSM    O1410523   2.519   4.421  11.161  0.0089 -0.4886  0.7372
  104OSM    O1110524   2.650   4.336  10.962 -0.1857 -0.2543 -0.3301
  104OSM    O1210525   2.418   4.289  10.968  0.1789  0.4473 -0.0035
  104OSM    C1S10526   2.674   4.289  10.827 -0.3967  0.8340  0.1752
  104OSM    H1S10527   2.595   4.226  10.781 -2.4074  3.2028  0.1461
  104OSM    H1T10528   2.762   4.223  10.845 -0.7897 -0.3700 -1.9858
  104OSM     NF10529   2.726   4.329  10.590 -0.3727  0.3756  1.1033
  104OSM    HNF10530   2.816   4.295  10.566 -0.2356  0.8141  0.9990
  104OSM    C2S10531   2.713   4.393  10.717 -0.3904 -0.4138 -0.5291
  104OSM    H2S10532   2.639   4.476  10.715  1.9008  1.7877  0.0745
  104OSM    C3S10533   2.849   4.463  10.767  0.5009 -0.4115  0.4459
  104OSM    H3S10534   2.921   4.379  10.772 -0.5539 -1.2905  3.3088
  104OSM     O310535   2.848   4.510  10.902  0.3801 -0.7463  0.2467
  104OSM    HO310536   2.757   4.492  10.929  0.0658  1.4475  0.8462
  104OSM    C4S10537   2.890   4.576  10.672  0.1422  0.1786  0.7058
  104OSM    H4S10538   2.825   4.662  10.694  0.7179  0.8628 -0.1856
  104OSM    C5S10539   2.994   4.574  10.591 -0.1370  0.1752  0.8355
  104OSM    H5S10540   3.065   4.490  10.604  2.5501  2.2241  0.2442
  104OSM    C6S10541   3.042   4.677  10.495 -0.4139  0.2464 -0.8829
  104OSM    H6S10542   3.141   4.723  10.512  1.2626 -2.3142 -2.8409
  104OSM    H6T10543   2.963   4.755  10.493  0.8236  1.5800 -3.6644
  104OSM    C7S10544   3.063   4.619  10.349 -0.4047  0.3850 -1.1774
  104OSM    H7S10545   2.968   4.585  10.303 -0.6531 -0.3817 -0.1217
  104OSM    H7T10546   3.145   4.543  10.342  0.5466  1.3280 -0.4723
  104OSM    C8S10547   3.115   4.736  10.262  0.2499  0.4547 -0.1559
  104OSM    H8S10548   3.217   4.756  10.302  0.3910 -2.2304  0.9880
  104OSM    H8T10549   3.050   4.826  10.270 -2.2978 -1.1170 -1.8196
  104OSM    C9S10550   3.141   4.705  10.111 -0.3711  0.1186  0.2233
  104OSM    H9S10551   3.043   4.706  10.058 -0.8096  0.1158  1.0241
  104OSM    H9T10552   3.185   4.603  10.099 -0.6308  0.1535 -1.1687
  104OSM   C10S10553   3.248   4.811  10.061 -0.2317  0.2351  0.0165
  104OSM   H10S10554   3.333   4.818  10.133  1.9661 -2.2555 -2.0839
  104OSM   H10T10555   3.218   4.917  10.060  0.7622  0.5889 -2.7607
  104OSM   C11S10556   3.278   4.777   9.919 -0.1940 -0.2154  0.0788
  104OSM   H11S10557   3.192   4.810   9.856  0.4288  0.7049 -0.3160
  104OSM   H11T10558   3.301   4.671   9.897 -0.1686 -0.0794 -0.5725
  104OSM   C12S10559   3.396   4.859   9.852  0.3044  0.2076 -0.0257
  104OSM   H12S10560   3.492   4.836   9.902  1.7536 -0.1698 -2.8153
  104OSM   H12T10561   3.365   4.966   9.849 -0.7142 -0.0792 -0.0458
  104OSM   C13S10562   3.414   4.827   9.707  0.3564  0.2357 -0.4060
  104OSM   H13S10563   3.322   4.854   9.652 -1.7646 -1.7381  1.9439
  104OSM   H13T10564   3.435   4.718   9.699 -1.2429 -0.2704  1.4948
  104OSM   C14S10565   3.529   4.901   9.636 -0.6431  0.1910 -0.6270
  104OSM   H14S10566   3.622   4.868   9.687 -0.3769 -0.5356 -1.5494
  104OSM   H14T10567   3.519   5.011   9.641  0.2427  0.4517 -3.0391
  104OSM   C15S10568   3.533   4.857   9.491 -0.3459  0.2557  0.1234
  104OSM   H15S10569   3.434   4.877   9.445 -0.7733 -0.7018  0.6001
  104OSM   H15T10570   3.555   4.748   9.488  2.4338  0.6957  1.4636
  104OSM   C16S10571   3.642   4.930   9.415 -0.2916  0.7415  0.0197
  104OSM   H16S10572   3.738   4.907   9.467 -0.5631  0.9273  0.6118
  104OSM   H16T10573   3.623   5.039   9.425 -1.1040  0.6145 -0.0494
  104OSM   C17S10574   3.647   4.896   9.267  0.3670 -0.0326 -0.2955
  104OSM   H17S10575   3.551   4.921   9.217  1.1943 -0.6460 -2.2970
  104OSM   H17T10576   3.658   4.786   9.252 -0.5409  0.0153 -1.3489
  104OSM   C18S10577   3.763   4.963   9.206 -1.4422  0.8591  0.5313
  104OSM   H18S10578   3.775   4.940   9.097 -2.1248  2.1498  0.1647
  104OSM   H18T10579   3.861   4.936   9.251 -0.9579  3.9544  1.5275
  104OSM   H18U10580   3.750   5.073   9.214 -2.5907  0.9701 -1.8325
  104OSM    C1F10581   2.619   4.297  10.519 -0.5634  0.9855  0.0020
  104OSM     OF10582   2.505   4.308  10.568  0.2541  0.0876 -0.4667
  104OSM    C2F10583   2.645   4.210  10.400  0.1669  0.8669 -0.1571
  104OSM    H2F10584   2.559   4.139  10.403 -0.0669  1.1726  0.8705
  104OSM    H2G10585   2.734   4.146  10.419 -0.4241  0.2340  0.5545
  104OSM    C3F10586   2.642   4.286  10.270  0.0799  0.3959  0.0507
  104OSM    H3F10587   2.724   4.360  10.279 -0.8787  1.5377 -0.4324
  104OSM    H3G10588   2.539   4.324  10.256 -0.8379 -1.3086  1.6742
  104OSM    C4F10589   2.678   4.190  10.156  0.5598  0.3784  0.2097
  104OSM    H4F10590   2.598   4.115  10.135  0.2751  0.3704  1.2307
  104OSM    H4G10591   2.783   4.153  10.159  0.9437  0.0515 -5.9948
  104OSM    C5F10592   2.673   4.265  10.027  0.2177 -0.0635  0.2370
  104OSM    H5F10593   2.740   4.354  10.024  0.4858 -0.2513  0.5837
  104OSM    H5G10594   2.571   4.306  10.011 -0.9155 -2.3039  1.2862
  104OSM    C6F10595   2.693   4.179   9.906  0.2098 -0.6066 -0.2730
  104OSM    H6F10596   2.635   4.085   9.922  2.8872 -2.7051 -1.8875
  104OSM    H6G10597   2.792   4.132   9.884  0.3657  0.6994 -2.7607
  104OSM    C7F10598   2.634   4.239   9.778 -1.0617  0.0424 -0.4499
  104OSM    H7F10599   2.678   4.339   9.757 -1.3519 -0.0311 -1.4358
  104OSM    H7G10600   2.526   4.260   9.790 -0.9548  0.6260 -0.4683
  104OSM    C8F10601   2.646   4.144   9.654 -0.2802 -0.7175  0.5078
  104OSM    H8F10602   2.572   4.172   9.575 -2.2715 -0.1021  2.4828
  104OSM    H8G10603   2.616   4.041   9.683  0.8009 -0.2777  3.5072
  104OSM    C9F10604   2.785   4.142   9.594  0.4940 -0.0501  0.4722
  104OSM    H9F10605   2.817   4.242   9.561 -1.2259 -0.3957 -2.5706
  104OSM   C10F10606   2.871   4.036   9.576  0.1484  0.1968 -0.4391
  104OSM   H10F10607   2.972   4.056   9.536 -0.0540  0.2217 -0.9465
  104OSM   C11F10608   2.844   3.900   9.637 -0.0079 -0.1105 -0.0316
  104OSM   H11F10609   2.781   3.907   9.728  1.1818  2.3825  0.6751
  104OSM   H11G10610   2.939   3.855   9.675 -1.7893 -2.2765  2.1540
  104OSM   C12F10611   2.787   3.796   9.548 -0.4327  0.1395  0.2554
  104OSM   H12F10612   2.687   3.829   9.513  0.0820 -0.8914 -2.3645
  104OSM   H12G10613   2.752   3.706   9.604  1.6636 -0.1871  1.1174
  104OSM   C13F10614   2.864   3.755   9.422  0.3444 -0.0545 -0.1967
  104OSM   H13F10615   2.965   3.717   9.445 -0.6702 -2.2097  0.9665
  104OSM   H13G10616   2.871   3.843   9.354 -2.6491 -0.9590 -1.8707
  104OSM   C14F10617   2.795   3.640   9.339  0.3815  0.0326 -0.1584
  104OSM   H14F10618   2.696   3.673   9.302 -0.8047 -1.7276  1.2554
  104OSM   H14G10619   2.792   3.552   9.407  0.2331 -1.8847 -2.5034
  104OSM   C15F10620   2.880   3.584   9.220  0.8128 -0.5666 -0.1545
  104OSM   H15F10621   2.983   3.576   9.259  0.8077  0.4017  0.0789
  104OSM   H15G10622   2.897   3.661   9.141 -1.1753 -0.2345 -0.3208
  104OSM   C16F10623   2.828   3.454   9.159 -1.2564  0.1209 -0.0907
  104OSM   H16F10624   2.719   3.454   9.137 -1.4850 -3.4935  0.3710
  104OSM   H16G10625   2.843   3.365   9.224 -0.1609 -0.8386 -1.5963
  104OSM   C17F10626   2.900   3.418   9.031  0.2595 -0.0695  0.5507
  104OSM   H17F10627   3.003   3.387   9.060 -0.5576 -0.3028  3.5435
  104OSM   H17G10628   2.915   3.509   8.968 -1.0471  0.6661  1.2741
  104OSM   C18F10629   2.831   3.302   8.963 -0.3102 -0.4443  0.2999
  104OSM   H18F10630   2.840   3.209   9.024 -0.0228 -0.3757  0.3645
  104OSM   H18G10631   2.867   3.277   8.861 -0.7254  1.4901 -0.3687
  104OSM   H18H10632   2.723   3.314   8.944  0.0693  0.5131 -1.4693
  105OSM      N10633   6.004   6.096  11.086 -0.4610  0.5051  0.0628
  105OSM    C1510634   5.953   6.080  10.951  0.2116 -0.0138  0.8889
  105OSM   H15A10635   6.026   6.032  10.887  0.5161 -0.5466  1.6271
  105OSM   H15B10636   5.925   6.172  10.903 -1.1721 -0.8787 -0.0492
  105OSM   H15C10637   5.863   6.020  10.955  0.7524 -0.8397  0.9811
  105OSM    C1410638   5.900   6.157  11.172  0.1466 -0.4990  0.3019
  105OSM   H14A10639   5.943   6.166  11.271  2.4147 -0.8514 -0.5780
  105OSM   H14B10640   5.817   6.088  11.172  1.5195 -2.3246 -2.3845
  105OSM   H14C10641   5.865   6.254  11.142 -1.9023 -1.2250  0.1694
  105OSM    C1310642   6.033   5.959  11.139  0.5710 -0.5882 -0.2387
  105OSM   H13A10643   6.088   5.967  11.232 -0.4752 -1.3705  0.4673
  105OSM   H13B10644   6.100   5.908  11.072 -1.9300 -2.5926 -1.3585
  105OSM   H13C10645   5.943   5.900  11.151 -1.5295  2.3825 -0.0893
  105OSM    C1210646   6.131   6.183  11.089  0.1406  0.2763 -0.2951
  105OSM   H12A10647   6.154   6.187  11.195 -1.6061  0.4835  0.1049
  105OSM   H12B10648   6.110   6.285  11.060  0.9221  1.1691  2.0341
  105OSM    C1110649   6.246   6.131  10.995 -0.3446  0.5666  0.1499
  105OSM   H11A10650   6.206   6.099  10.897 -0.3052 -1.3648  0.7261
  105OSM   H11B10651   6.275   6.031  11.033 -0.2174  0.7414  0.5200
  105OSM      P10652   6.360   6.343  10.899  0.0305  0.2174 -0.9546
  105OSM    O1310653   6.259   6.446  10.936  0.0053 -0.2962 -0.1626
  105OSM    O1410654   6.502   6.381  10.895  0.1383 -0.0834 -0.1403
  105OSM    O1110655   6.321   6.264  10.773 -0.3565  0.1227 -0.2226
  105OSM    O1210656   6.347   6.226  11.007  0.0673  0.3877 -0.1385
  105OSM    C1S10657   6.342   6.319  10.643 -0.7054 -0.6287 -0.0961
  105OSM    H1S10658   6.447   6.296  10.612 -0.6661 -1.4003  0.5662
  105OSM    H1T10659   6.342   6.429  10.636 -0.2262 -0.4729  1.7711
  105OSM     NF10660   6.280   6.311  10.407  0.2842 -0.0752  1.2250
  105OSM    HNF10661   6.204   6.359  10.362  0.0736 -0.5999  1.0193
  105OSM    C2S10662   6.248   6.255  10.539 -0.2288 -0.4794  0.4748
  105OSM    H2S10663   6.268   6.147  10.531  2.0657 -0.0446 -0.1813
  105OSM    C3S10664   6.095   6.279  10.585  0.0276  0.0142  0.2611
  105OSM    H3S10665   6.068   6.386  10.598  0.1765 -0.1180  1.8254
  105OSM     O310666   6.066   6.211  10.701 -0.0483 -0.6784 -0.4802
  105OSM    HO310667   6.153   6.192  10.736 -0.3051 -0.9334  0.0391
  105OSM    C4S10668   6.014   6.214  10.480 -0.0681  0.4058  1.0088
  105OSM    H4S10669   6.019   6.104  10.479  1.9520  0.4432 -0.7595
  105OSM    C5S10670   5.929   6.267  10.390 -0.1757  1.0020  0.7361
  105OSM    H5S10671   5.918   6.376  10.383 -1.0472  0.8366 -1.1492
  105OSM    C6S10672   5.838   6.189  10.294  0.2435 -0.4238  0.6147
  105OSM    H6S10673   5.730   6.206  10.310 -0.5629 -0.5921 -3.4742
  105OSM    H6T10674   5.846   6.079  10.303 -0.3542 -0.3984  1.4770
  105OSM    C7S10675   5.857   6.227  10.143  0.5920  0.4176 -1.0665
  105OSM    H7S10676   5.965   6.228  10.119  1.1111 -0.6176  0.9744
  105OSM    H7T10677   5.812   6.328  10.127  2.5486  1.5167 -0.0206
  105OSM    C8S10678   5.797   6.116  10.057 -0.4749 -0.6507 -0.1917
  105OSM    H8S10679   5.719   6.078  10.126 -1.2126  1.7796  0.4222
  105OSM    H8T10680   5.873   6.036  10.047 -0.0586 -0.7781  2.9510
  105OSM    C9S10681   5.738   6.166   9.926  0.5487  0.4479 -0.8045
  105OSM    H9S10682   5.814   6.233   9.879 -1.9831  3.5175 -0.8916
  105OSM    H9T10683   5.657   6.239   9.948  0.8382  0.2227  1.1806
  105OSM   C10S10684   5.690   6.061   9.834 -0.6654  0.4044  0.3920
  105OSM   H10S10685   5.629   5.986   9.889 -0.9393 -0.2237 -0.7439
  105OSM   H10T10686   5.779   6.000   9.809 -1.4886 -0.7737  0.2303
  105OSM   C11S10687   5.623   6.110   9.709 -0.0044 -0.6355  0.2051
  105OSM   H11S10688   5.680   6.193   9.661 -0.9103 -0.3455 -0.4089
  105OSM   H11T10689   5.531   6.155   9.753  0.7778 -2.2303  3.7315
  105OSM   C12S10690   5.590   5.993   9.616 -0.2908  0.6673  0.4324
  105OSM   H12S10691   5.500   6.037   9.568 -1.9049 -1.0116  1.7417
  105OSM   H12T10692   5.546   5.903   9.664 -1.6688  0.8463 -0.4294
  105OSM   C13S10693   5.703   5.961   9.525  0.7197  0.2326 -0.3699
  105OSM   H13S10694   5.674   5.871   9.466  0.2618 -1.2357  1.9615
  105OSM   H13T10695   5.788   5.941   9.593  2.2530  2.0989 -1.6396
  105OSM   C14S10696   5.752   6.077   9.439 -0.8310 -0.3152  0.5751
  105OSM   H14S10697   5.805   6.149   9.504 -2.5345 -0.9037  2.7620
  105OSM   H14T10698   5.660   6.130   9.404  0.3809  0.5643 -1.4417
  105OSM   C15S10699   5.846   6.032   9.328 -0.2952 -0.0305  0.2685
  105OSM   H15S10700   5.946   6.007   9.370  0.7490  2.8850 -0.2578
  105OSM   H15T10701   5.851   6.127   9.271  1.1083  1.1154  2.1855
  105OSM   C16S10702   5.797   5.918   9.237 -0.2251 -0.9991 -0.2366
  105OSM   H16S10703   5.688   5.937   9.220  0.0422  1.2420  0.2369
  105OSM   H16T10704   5.807   5.822   9.292  1.1885 -0.2839  0.8220
  105OSM   C17S10705   5.881   5.911   9.118  0.2497 -0.5780 -0.0255
  105OSM   H17S10706   5.981   5.878   9.153  1.7198  4.2336  1.0172
  105OSM   H17T10707   5.889   6.008   9.064 -1.3886 -0.3487  0.0932
  105OSM   C18S10708   5.827   5.821   9.013 -0.8758  0.6160  0.0282
  105OSM   H18S10709   5.787   5.732   9.065 -2.6871  0.8871 -0.8438
  105OSM   H18T10710   5.907   5.778   8.948 -2.6618 -3.0134  0.0143
  105OSM   H18U10711   5.742   5.855   8.950  0.2810  1.9561 -0.9013
  105OSM    C1F10712   6.395   6.291  10.353 -0.7624  0.0648 -0.2033
  105OSM     OF10713   6.479   6.213  10.401  0.3679 -0.6067 -0.0024
  105OSM    C2F10714   6.419   6.376  10.230  0.2846  0.4013  0.0015
  105OSM    H2F10715   6.475   6.465  10.268  3.6647 -1.8998  0.8201
  105OSM    H2G10716   6.326   6.420  10.187 -1.6227 -1.8250  1.6294
  105OSM    C3F10717   6.492   6.310  10.116  0.3949 -0.3761  0.4675
  105OSM    H3F10718   6.435   6.229  10.066  1.8944 -1.1221 -0.1180
  105OSM    H3G10719   6.588   6.266  10.152  0.2109 -0.1358  1.2660
  105OSM    C4F10720   6.529   6.401   9.996  0.0006 -0.5547  0.2337
  105OSM    H4F10721   6.627   6.366   9.959  1.0649  0.1981  2.2203
  105OSM    H4G10722   6.541   6.508  10.025 -0.6409  0.7007 -3.5260
  105OSM    C5F10723   6.416   6.397   9.885 -0.7984 -0.1398  0.1629
  105OSM    H5F10724   6.316   6.438   9.914 -2.1988 -0.6134 -3.5136
  105OSM    H5G10725   6.412   6.291   9.853 -0.0978 -0.2404  0.4035
  105OSM    C6F10726   6.459   6.458   9.751  0.0005  0.5485 -0.0404
  105OSM    H6F10727   6.568   6.447   9.735 -0.0796 -0.4756  0.0289
  105OSM    H6G10728   6.443   6.568   9.754  2.4948  0.9307  1.1556
  105OSM    C7F10729   6.383   6.399   9.634 -0.2201 -0.0519  0.3504
  105OSM    H7F10730   6.276   6.402   9.666 -0.2316 -3.5135  1.0445
  105OSM    H7G10731   6.407   6.292   9.618 -1.4475 -0.2494 -0.3262
  105OSM    C8F10732   6.384   6.483   9.505 -0.1991 -0.4519 -0.2050
  105OSM    H8F10733   6.367   6.592   9.522 -0.8432  0.0486 -3.3933
  105OSM    H8G10734   6.292   6.452   9.450 -1.6891  2.2090  0.5794
  105OSM    C9F10735   6.511   6.466   9.415  0.0556 -0.1087  0.5292
  105OSM    H9F10736   6.597   6.515   9.463  0.4773 -2.0545  1.8896
  105OSM   C10F10737   6.514   6.415   9.285 -0.3538  1.3107  0.2044
  105OSM   H10F10738   6.611   6.415   9.232  0.2118 -0.1516  1.1929
  105OSM   C11F10739   6.402   6.374   9.199 -0.1814  0.7802  0.3757
  105OSM   H11F10740   6.306   6.409   9.243 -0.6020  1.4633 -1.0513
  105OSM   H11G10741   6.388   6.264   9.188 -2.0891  1.1432 -1.4835
  105OSM   C12F10742   6.416   6.428   9.053 -0.3098  0.5676  0.1136
  105OSM   H12F10743   6.483   6.368   8.988  0.1671  2.6096 -1.3908
  105OSM   H12G10744   6.461   6.529   9.061  1.1372 -0.1099  0.8515
  105OSM   C13F10745   6.282   6.437   8.970  0.0339  0.7141 -0.0557
  105OSM   H13F10746   6.295   6.511   8.889 -1.3694  0.0512 -0.9464
  105OSM   H13G10747   6.200   6.489   9.023 -2.9033 -1.6865 -1.8429
  105OSM   C14F10748   6.234   6.293   8.925 -0.1153 -0.1638  1.0452
  105OSM   H14F10749   6.242   6.215   9.003 -1.4136 -0.9864  0.3817
  105OSM   H14G10750   6.291   6.272   8.832  0.2356  2.6014  0.5228
  105OSM   C15F10751   6.080   6.311   8.898 -0.9898 -0.0577 -0.0703
  105OSM   H15F10752   6.063   6.409   8.848  0.4340 -0.4661 -1.4530
  105OSM   H15G10753   6.028   6.327   8.995  0.4155 -0.8875  0.8535
  105OSM   C16F10754   6.015   6.198   8.819  0.5457  0.4997  0.1426
  105OSM   H16F10755   5.906   6.207   8.838  0.6120 -0.3772  0.9684
  105OSM   H16G10756   6.033   6.098   8.862 -1.0085 -0.7390 -1.9196
  105OSM   C17F10757   6.053   6.216   8.668  0.3170  0.7154 -0.1907
  105OSM   H17F10758   6.017   6.121   8.623 -0.2967  1.2371 -0.8070
  105OSM   H17G10759   6.163   6.230   8.656  0.2595  1.2479 -0.0966
  105OSM   C18F10760   5.977   6.334   8.601  0.7444  0.7334  0.1385
  105OSM   H18F10761   5.992   6.326   8.491  1.0190 -0.7847  0.2653
  105OSM   H18G10762   6.020   6.432   8.631  2.3509  0.3032 -0.6681
  105OSM   H18H10763   5.872   6.340   8.637  1.2745 -0.5353  2.0630
  106OSM      N10764   4.303   6.397  10.725 -0.6395  0.0548 -0.5285
  106OSM    C1510765   4.166   6.365  10.681  0.2395  0.1334  0.0662
  106OSM   H15A10766   4.106   6.438  10.733 -0.0423  1.7543 -2.4002
  106OSM   H15B10767   4.134   6.265  10.708  0.1119  0.0692 -0.3281
  106OSM   H15C10768   4.164   6.370  10.574 -0.0149 -0.2342  0.0502
  106OSM    C1410769   4.399   6.319  10.637  1.6014 -0.0338 -0.0260
  106OSM   H14A10770   4.500   6.352  10.657  0.8519  1.1504  2.2123
  106OSM   H14B10771   4.377   6.340  10.534 -0.6309 -1.0287  0.2054
  106OSM   H14C10772   4.402   6.213  10.656  1.7076  0.2013  1.3719
  106OSM    C1310773   4.328   6.543  10.690  0.5784 -0.1158 -0.0147
  106OSM   H13A10774   4.242   6.607  10.703  1.5180  1.5836 -1.7006
  106OSM   H13B10775   4.368   6.559  10.591  0.8353  1.0211  0.2579
  106OSM   H13C10776   4.400   6.576  10.764  0.1051 -0.0779  0.4352
  106OSM    C1210777   4.337   6.366  10.871 -0.1973 -0.5489 -0.0251
  106OSM   H12A10778   4.254   6.403  10.930 -1.0430 -0.3357 -1.3292
  106OSM   H12B10779   4.426   6.421  10.902 -1.9071  0.9258  2.7375
  106OSM    C1110780   4.370   6.222  10.909 -0.1889  0.5492 -0.4706
  106OSM   H11A10781   4.399   6.230  11.016 -2.1218  1.0129  0.0569
  106OSM   H11B10782   4.452   6.179  10.847  0.8100 -1.2776  1.9417
  106OSM      P10783   4.261   5.983  10.896 -0.0709 -0.3662 -0.1014
  106OSM    O1310784   4.348   5.920  11.001 -0.2466  0.1431  0.0591
  106OSM    O1410785   4.128   5.915  10.882  0.4261 -0.4367 -0.1211
  106OSM    O1110786   4.332   5.967  10.765  0.1664  0.6183  0.2157
  106OSM    O1210787   4.251   6.141  10.908 -0.1612  0.2243 -0.3271
  106OSM    C1S10788   4.263   5.975  10.637 -0.1295 -0.2361  0.3064
  106OSM    H1S10789   4.216   6.075  10.631 -0.7015 -0.2933  2.7177
  106OSM    H1T10790   4.183   5.899  10.633  2.0757 -2.8601  2.1573
  106OSM     NF10791   4.302   5.960  10.393  0.3521  0.1084 -0.1275
  106OSM    HNF10792   4.279   5.878  10.342  0.1930 -1.1214  1.8211
  106OSM    C2S10793   4.362   5.940  10.523 -0.8093 -0.5628  0.0789
  106OSM    H2S10794   4.454   6.000  10.538 -0.4318 -1.1958  0.3630
  106OSM    C3S10795   4.419   5.800  10.536 -0.0768  0.7357 -0.0139
  106OSM    H3S10796   4.332   5.732  10.527 -0.6496  1.5277 -0.6319
  106OSM     O310797   4.483   5.779  10.661 -0.6810 -0.0987  0.1306
  106OSM    HO310798   4.438   5.847  10.712  0.6539 -0.2092  1.5181
  106OSM    C4S10799   4.516   5.767  10.421  0.4550 -0.2092  0.0369
  106OSM    H4S10800   4.480   5.722  10.328  2.7480 -2.3019  0.0780
  106OSM    C5S10801   4.647   5.791  10.425  0.1174  0.1278  0.0474
  106OSM    H5S10802   4.697   5.818  10.519 -0.8541  3.0960 -0.1835
  106OSM    C6S10803   4.742   5.763  10.311  0.4941 -0.9197 -0.0659
  106OSM    H6S10804   4.718   5.674  10.250 -0.5489  0.6438 -2.0667
  106OSM    H6T10805   4.849   5.752  10.337  1.6668  0.4497 -3.7585
  106OSM    C7S10806   4.732   5.879  10.211  1.2089 -0.0559 -0.6063
  106OSM    H7S10807   4.763   5.968  10.269 -0.3925  0.9380 -1.2149
  106OSM    H7T10808   4.626   5.886  10.178  0.7033 -1.3695  0.6597
  106OSM    C8S10809   4.813   5.849  10.079  0.1320 -0.0539 -0.0261
  106OSM    H8S10810   4.910   5.800  10.104  0.9133  0.6261 -1.5746
  106OSM    H8T10811   4.834   5.948  10.033  1.7193 -1.3224 -2.2427
  106OSM    C9S10812   4.737   5.766   9.973  0.7024 -0.1356 -0.0632
  106OSM    H9S10813   4.639   5.815   9.958 -0.3701 -1.8004  1.1168
  106OSM    H9T10814   4.715   5.665  10.015  3.4930 -0.7706  0.0793
  106OSM   C10S10815   4.811   5.743   9.837 -0.4160  0.2497 -0.1765
  106OSM   H10S10816   4.760   5.660   9.784 -1.8989  0.9219  0.1532
  106OSM   H10T10817   4.914   5.707   9.859 -1.2812 -1.3631  1.5174
  106OSM   C11S10818   4.801   5.870   9.757 -0.2942 -0.5398 -0.0589
  106OSM   H11S10819   4.839   5.951   9.822 -0.1887 -2.0935  1.8939
  106OSM   H11T10820   4.699   5.901   9.725 -0.0105 -3.1690 -4.3177
  106OSM   C12S10821   4.886   5.878   9.632 -0.0099  0.3087  0.0008
  106OSM   H12S10822   4.986   5.836   9.658 -0.0974 -1.2294 -1.9166
  106OSM   H12T10823   4.893   5.984   9.599  1.0684  0.5698  1.0021
  106OSM   C13S10824   4.812   5.790   9.530  0.3485  1.1855 -0.1320
  106OSM   H13S10825   4.702   5.782   9.547  0.0947 -1.2670 -2.2873
  106OSM   H13T10826   4.850   5.686   9.527 -0.8831  0.7347 -0.7534
  106OSM   C14S10827   4.837   5.829   9.385  0.3661 -0.5424 -0.3787
  106OSM   H14S10828   4.816   5.939   9.387  3.6132  0.2098  2.0834
  106OSM   H14T10829   4.764   5.772   9.325 -0.6919 -0.1980  0.5402
  106OSM   C15S10830   4.978   5.823   9.332 -0.2343 -0.3740 -0.8571
  106OSM   H15S10831   5.038   5.895   9.392  0.0198 -0.0454 -1.4965
  106OSM   H15T10832   4.978   5.868   9.230  1.7258  0.8097 -0.3944
  106OSM   C16S10833   5.035   5.680   9.331  0.0816  0.0132 -0.2711
  106OSM   H16S10834   5.021   5.645   9.435 -2.5806  2.1157  0.1741
  106OSM   H16T10835   5.141   5.688   9.298  0.1573 -3.6535 -1.4823
  106OSM   C17S10836   4.959   5.582   9.232  0.3066 -0.0180 -0.0448
  106OSM   H17S10837   4.939   5.619   9.129 -0.7882  2.0144  0.8284
  106OSM   H17T10838   4.853   5.566   9.262  0.1231 -0.4042 -0.8662
  106OSM   C18S10839   5.011   5.447   9.224  0.2010 -0.5469  0.4005
  106OSM   H18S10840   4.934   5.370   9.199  1.4033 -1.3865 -0.9164
  106OSM   H18T10841   5.058   5.417   9.320 -0.9995  0.7697  1.4352
  106OSM   H18U10842   5.091   5.431   9.148 -0.1527 -0.7271  0.0624
  106OSM    C1F10843   4.251   6.068  10.358  0.3481 -0.9087  0.0454
  106OSM     OF10844   4.282   6.166  10.418  0.1865  0.2277  0.4725
  106OSM    C2F10845   4.164   6.071  10.241 -0.1536  0.2594 -0.2072
  106OSM    H2F10846   4.069   6.016  10.255  0.4978 -1.2470 -1.3783
  106OSM    H2G10847   4.215   6.021  10.155 -0.6870 -1.5459  0.4797
  106OSM    C3F10848   4.139   6.215  10.196 -0.6886 -0.2059  0.0223
  106OSM    H3F10849   4.236   6.271  10.192 -0.7551 -0.1291 -0.5744
  106OSM    H3G10850   4.085   6.253  10.285  0.7449 -1.8282  1.6779
  106OSM    C4F10851   4.055   6.230  10.069  0.0280 -0.5335 -0.0078
  106OSM    H4F10852   4.041   6.339  10.057 -0.8224 -0.8301 -1.9914
  106OSM    H4G10853   3.953   6.185  10.076 -0.5413  0.9416  2.1156
  106OSM    C5F10854   4.124   6.191   9.943 -0.4590  0.1319  0.1744
  106OSM    H5F10855   4.115   6.081   9.933  0.4853 -0.0471  1.0714
  106OSM    H5G10856   4.234   6.207   9.943 -0.5789  0.9913  0.2830
  106OSM    C6F10857   4.066   6.259   9.815 -0.2536 -0.0846 -0.8859
  106OSM    H6F10858   4.064   6.370   9.814 -1.3344 -0.0830 -0.6904
  106OSM    H6G10859   3.961   6.230   9.793 -1.0063  0.5408  1.5609
  106OSM    C7F10860   4.147   6.225   9.685  0.3322  0.3896 -0.7926
  106OSM    H7F10861   4.158   6.116   9.668  2.0247  0.5060 -0.5662
  106OSM    H7G10862   4.252   6.245   9.714  0.9527 -1.7561 -1.3591
  106OSM    C8F10863   4.098   6.298   9.562 -0.3323 -0.1603  0.0358
  106OSM    H8F10864   4.171   6.280   9.481 -1.9047 -1.5044 -1.1597
  106OSM    H8G10865   4.112   6.406   9.582 -0.7937 -0.2975  1.2233
  106OSM    C9F10866   3.963   6.251   9.518 -0.2863  0.4969 -0.6219
  106OSM    H9F10867   3.902   6.187   9.585  0.1406  0.0909 -0.6170
  106OSM   C10F10868   3.908   6.302   9.407 -0.0010  0.6827 -0.6778
  106OSM   H10F10869   3.811   6.262   9.374  0.0196 -1.3579  1.4869
  106OSM   C11F10870   3.995   6.385   9.313 -0.1941 -0.3719 -0.4383
  106OSM   H11F10871   4.102   6.355   9.307 -0.0712  0.1500 -0.9106
  106OSM   H11G10872   3.989   6.493   9.339 -0.8437 -0.7804  1.2072
  106OSM   C12F10873   3.947   6.367   9.170 -0.5697  0.0947 -0.4214
  106OSM   H12F10874   3.840   6.397   9.172 -0.5753  0.1931  2.7150
  106OSM   H12G10875   3.939   6.258   9.147  1.1320  0.1504 -1.4651
  106OSM   C13F10876   4.047   6.438   9.071 -0.2324  0.6648  0.0369
  106OSM   H13F10877   4.147   6.390   9.073  1.1240  3.0007 -2.6237
  106OSM   H13G10878   4.047   6.548   9.091 -1.1676  1.1855 -2.3949
  106OSM   C14F10879   3.984   6.417   8.932 -0.1730  0.2131 -0.4039
  106OSM   H14F10880   3.890   6.476   8.921  0.2317  0.8749 -0.3810
  106OSM   H14G10881   3.954   6.311   8.919 -0.7176  0.4580 -1.2202
  106OSM   C15F10882   4.091   6.452   8.828  0.5990 -0.0436  0.0385
  106OSM   H15F10883   4.188   6.407   8.857  0.3644 -1.0638 -0.6902
  106OSM   H15G10884   4.104   6.562   8.838 -0.1325  0.0371  0.1608
  106OSM   C16F10885   4.051   6.417   8.680 -0.1792  0.6378 -0.3624
  106OSM   H16F10886   4.110   6.465   8.599 -1.5204  1.9857 -0.5893
  106OSM   H16G10887   3.944   6.447   8.669  0.0156  2.1814  1.3415
  106OSM   C17F10888   4.060   6.264   8.662 -0.1632 -0.2918  0.6476
  106OSM   H17F10889   4.049   6.207   8.756  0.2529 -0.9577  0.3011
  106OSM   H17G10890   4.158   6.238   8.616 -0.2327 -0.3412  0.5277
  106OSM   C18F10891   3.951   6.217   8.565  0.4838 -0.2725 -0.6962
  106OSM   H18F10892   3.852   6.255   8.600  1.5004  1.3412  0.5962
  106OSM   H18G10893   3.947   6.106   8.570  1.0844 -0.2424  1.0847
  106OSM   H18H10894   3.961   6.264   8.465 -0.1508  3.4966  0.8221
  107OSM      N10895   4.031   3.004  11.167 -0.3905  0.2318 -0.5446
  107OSM    C1510896   4.047   3.152  11.148 -0.1413  0.1182  0.2233
  107OSM   H15A10897   3.999   3.188  11.059  1.7184  0.5411 -0.6499
  107OSM   H15B10898   4.153   3.163  11.132 -0.1244  1.2238  0.9820
  107OSM   H15C10899   4.011   3.210  11.232 -0.7138 -1.5486  1.1750
  107OSM    C1410900   4.116   2.964  11.278 -0.2217  0.1200 -0.5072
  107OSM   H14A10901   4.218   2.994  11.260  0.4972 -0.7931  1.7010
  107OSM   H14B10902   4.110   2.858  11.293 -0.4133  0.3756  1.5381
  107OSM   H14C10903   4.089   3.006  11.374 -1.1907  1.6818 -1.4190
  107OSM    C1310904   3.893   2.972  11.211 -0.6017 -0.0085 -0.3954
  107OSM   H13A10905   3.885   2.895  11.286 -1.7744 -0.6354 -1.1452
  107OSM   H13B10906   3.828   2.960  11.126 -0.3243  1.0846 -0.7754
  107OSM   H13C10907   3.845   3.056  11.260  0.7134 -0.2672  1.4514
  107OSM    C1210908   4.058   2.924  11.043 -0.4293  0.2013  0.6478
  107OSM   H12A10909   4.040   2.820  11.064 -1.6713  0.4126  0.6552
  107OSM   H12B10910   4.163   2.935  11.020  0.0260 -1.3802  1.8105
  107OSM    C1110911   3.978   2.952  10.911 -0.0477  0.4903 -0.6075
  107OSM   H11A10912   4.015   2.897  10.822 -0.5195  0.6186 -0.8865
  107OSM   H11B10913   3.999   3.057  10.881  0.3193  1.1670  1.7984
  107OSM      P10914   3.758   2.813  10.884 -0.0060  0.1664  0.4603
  107OSM    O1310915   3.850   2.707  10.850 -0.3005  0.6346  0.1862
  107OSM    O1410916   3.646   2.783  10.976 -0.5852  0.2923 -0.4100
  107OSM    O1110917   3.702   2.845  10.741  0.4783  0.9386 -0.3997
  107OSM    O1210918   3.839   2.943  10.936  0.1505 -0.0987  0.6756
  107OSM    C1S10919   3.746   2.964  10.673  0.1911 -0.5938 -0.2752
  107OSM    H1S10920   3.857   2.971  10.680  0.2389 -1.4991  0.0668
  107OSM    H1T10921   3.705   3.053  10.725  3.1696  0.9033 -0.2657
  107OSM     NF10922   3.802   3.035  10.435  0.3926 -0.4430  0.1797
  107OSM    HNF10923   3.762   3.116  10.393 -0.4439 -0.7174  0.4402
  107OSM    C2S10924   3.715   2.958  10.522  0.9132  0.3264 -0.0228
  107OSM    H2S10925   3.726   2.851  10.491  2.2642  0.6316 -0.6828
  107OSM    C3S10926   3.564   3.003  10.510 -0.2041  0.1853  0.7347
  107OSM    H3S10927   3.563   3.113  10.523 -0.0368  0.7002 -2.7174
  107OSM     O310928   3.477   2.949  10.608  0.5541 -0.0092 -0.5643
  107OSM    HO310929   3.531   2.895  10.665  0.7125  1.4216  0.7197
  107OSM    C4S10930   3.509   2.975  10.370  0.9213  0.3019  0.6140
  107OSM    H4S10931   3.505   3.061  10.302 -1.5992 -0.7533 -0.7014
  107OSM    C5S10932   3.463   2.857  10.328 -0.1362 -0.3580  0.3374
  107OSM    H5S10933   3.447   2.775  10.399  0.3208 -0.6259  0.1362
  107OSM    C6S10934   3.418   2.812  10.195 -0.0511  0.5619  0.9601
  107OSM    H6S10935   3.311   2.840  10.194 -0.6958 -1.6509  1.9427
  107OSM    H6T10936   3.428   2.703  10.175  0.3439  0.8009 -0.2455
  107OSM    C7S10937   3.482   2.891  10.077 -0.2915 -0.0456 -0.3548
  107OSM    H7S10938   3.593   2.887  10.071 -0.3564 -1.1590 -1.0783
  107OSM    H7T10939   3.466   3.001  10.088  2.6327  0.5211 -0.9761
  107OSM    C8S10940   3.426   2.855   9.944 -0.1051  0.9194 -0.2758
  107OSM    H8S10941   3.316   2.870   9.942 -0.2088  0.1315 -1.2235
  107OSM    H8T10942   3.433   2.747   9.920 -4.6102  0.6635 -1.3587
  107OSM    C9S10943   3.493   2.918   9.822 -0.0369  0.0531  0.2140
  107OSM    H9S10944   3.601   2.893   9.819 -0.1140 -0.2185 -1.3745
  107OSM    H9T10945   3.488   3.028   9.807  1.3006 -0.0025 -0.8038
  107OSM   C10S10946   3.438   2.851   9.695 -0.6179  0.0183  0.5031
  107OSM   H10S10947   3.338   2.890   9.666 -0.0195  1.5490  0.4397
  107OSM   H10T10948   3.434   2.741   9.712  0.5508 -0.2710 -0.8934
  107OSM   C11S10949   3.541   2.882   9.586 -0.4692  0.2302 -0.2719
  107OSM   H11S10950   3.640   2.838   9.613  0.2010  0.5769 -2.0312
  107OSM   H11T10951   3.555   2.992   9.587 -0.1522  0.2169  1.8245
  107OSM   C12S10952   3.499   2.833   9.451  0.7788  0.0981  0.1993
  107OSM   H12S10953   3.401   2.876   9.421  1.0418  0.7262  0.2205
  107OSM   H12T10954   3.493   2.723   9.466  2.3373  0.0797  0.8627
  107OSM   C13S10955   3.606   2.862   9.350 -0.4682 -0.4822 -0.5169
  107OSM   H13S10956   3.698   2.805   9.378  0.2972  0.2616 -1.4630
  107OSM   H13T10957   3.624   2.972   9.343 -1.4653 -0.1644  1.1355
  107OSM   C14S10958   3.562   2.821   9.207  0.2344 -0.1688 -0.0304
  107OSM   H14S10959   3.460   2.866   9.201  1.1202  1.8584 -1.0713
  107OSM   H14T10960   3.561   2.711   9.190 -0.1607  0.0491 -1.5143
  107OSM   C15S10961   3.643   2.869   9.087 -0.8843  0.0581  0.8041
  107OSM   H15S10962   3.601   2.825   8.993  0.5274  2.4074 -1.0543
  107OSM   H15T10963   3.748   2.835   9.099 -1.0579 -0.3658  1.1248
  107OSM   C16S10964   3.640   3.023   9.080 -0.6462  0.7637  0.2256
  107OSM   H16S10965   3.694   3.076   9.162  0.3198  2.0026 -1.1519
  107OSM   H16T10966   3.534   3.059   9.082 -0.9956  0.1251 -2.7677
  107OSM   C17S10967   3.703   3.075   8.951  0.1068  0.5325  0.2177
  107OSM   H17S10968   3.686   3.185   8.954 -2.4037  0.2907 -1.7751
  107OSM   H17T10969   3.659   3.039   8.855  1.3708 -0.2199 -0.1011
  107OSM   C18S10970   3.855   3.055   8.940 -0.2681 -0.3080 -0.6166
  107OSM   H18S10971   3.895   3.088   8.842  3.4773  0.3009  0.9168
  107OSM   H18T10972   3.887   2.952   8.969 -0.0241  0.0101  0.2898
  107OSM   H18U10973   3.898   3.125   9.015 -0.0320  0.1291 -1.1555
  107OSM    C1F10974   3.932   3.009  10.420  0.3339  0.2916  0.7220
  107OSM     OF10975   3.976   2.909  10.470 -0.1605 -0.1560  0.1820
  107OSM    C2F10976   4.019   3.098  10.338  0.1573  0.2609 -0.0354
  107OSM    H2F10977   4.124   3.077  10.368 -0.2572 -0.5874  0.8572
  107OSM    H2G10978   3.981   3.201  10.354 -2.0413 -0.3662 -0.7379
  107OSM    C3F10979   4.012   3.061  10.185 -0.1404 -0.1614  0.0973
  107OSM    H3F10980   4.057   3.148  10.133 -3.3186  1.1514 -0.6415
  107OSM    H3G10981   3.908   3.069  10.147  0.8329  2.0767 -2.3677
  107OSM    C4F10982   4.063   2.922  10.145  0.1464 -0.9760 -0.1205
  107OSM    H4F10983   4.029   2.844  10.216  0.7724 -1.4303 -0.3100
  107OSM    H4G10984   4.173   2.907  10.143  0.3321  0.0431  1.1673
  107OSM    C5F10985   4.014   2.860  10.016  1.0505  0.4295  0.4443
  107OSM    H5F10986   3.904   2.842  10.015  0.8759  1.4420 -0.0650
  107OSM    H5G10987   4.057   2.759  10.000  0.6793  0.7695 -3.7888
  107OSM    C6F10988   4.037   2.950   9.893  0.2756  0.0589  0.5037
  107OSM    H6F10989   4.145   2.974   9.880  0.8992 -2.8134 -0.2835
  107OSM    H6G10990   3.972   3.038   9.912  0.1874  0.9490 -3.1276
  107OSM    C7F10991   3.989   2.881   9.768  0.4033  0.7114  1.2977
  107OSM    H7F10992   3.882   2.852   9.773  1.0281 -1.5636  3.1734
  107OSM    H7G10993   4.054   2.792   9.754  0.0091  0.5373  0.5747
  107OSM    C8F10994   4.001   2.963   9.640  0.1461  0.7964  0.4590
  107OSM    H8F10995   4.106   2.999   9.633  0.0859  0.6605 -2.5111
  107OSM    H8G10996   3.931   3.049   9.641  2.4245  2.9635 -3.1033
  107OSM    C9F10997   3.983   2.879   9.507 -0.2992 -0.0214 -0.5482
  107OSM    H9F10998   3.907   2.800   9.508  2.8296 -3.3152 -0.8985
  107OSM   C10F10999   4.057   2.897   9.396  0.0984  0.3779  0.6239
  107OSM   H10F11000   4.039   2.835   9.307 -2.0436 -0.9823  1.9203
  107OSM   C11F11001   4.157   3.005   9.377  0.1773 -0.2500  0.2728
  107OSM   H11F11002   4.240   2.950   9.328  0.8712  1.6375 -0.7975
  107OSM   H11G11003   4.204   3.053   9.465  2.6846 -1.1446 -0.5090
  107OSM   C12F11004   4.112   3.108   9.275  0.3222  0.5604 -0.2486
  107OSM   H12F11005   4.044   3.183   9.319  0.7521  0.6718  0.2304
  107OSM   H12G11006   4.049   3.053   9.201  0.4559 -0.1249  0.1352
  107OSM   C13F11007   4.237   3.168   9.212 -0.3192 -0.8782  0.0087
  107OSM   H13F11008   4.319   3.098   9.185 -0.4364 -2.0046  2.3637
  107OSM   H13G11009   4.272   3.240   9.289 -0.0301 -0.4114 -0.5523
  107OSM   C14F11010   4.222   3.245   9.077 -0.3287  0.0517  0.4264
  107OSM   H14F11011   4.303   3.321   9.068 -0.3727  0.1151  0.5561
  107OSM   H14G11012   4.122   3.295   9.070 -0.7092 -0.6704  0.6262
  107OSM   C15F11013   4.231   3.153   8.953 -0.1206 -0.5051  1.1302
  107OSM   H15F11014   4.148   3.080   8.965  1.9671 -3.4077 -0.9908
  107OSM   H15G11015   4.331   3.104   8.952  0.0602 -0.1363  1.0615
  107OSM   C16F11016   4.204   3.228   8.829  0.1203 -0.5832  0.4491
  107OSM   H16F11017   4.276   3.311   8.812  1.0774 -1.6260 -0.7782
  107OSM   H16G11018   4.101   3.270   8.828 -1.5169 -4.1792  1.5137
  107OSM   C17F11019   4.214   3.131   8.708  0.3503 -0.4209 -1.2489
  107OSM   H17F11020   4.140   3.051   8.731 -0.4374  1.0809  1.9474
  107OSM   H17G11021   4.318   3.091   8.707  0.5341 -0.0123 -0.0345
  107OSM   C18F11022   4.172   3.190   8.573 -0.3794  0.0268  0.8242
  107OSM   H18F11023   4.224   3.278   8.530 -0.2281 -0.8529 -0.8750
  107OSM   H18G11024   4.062   3.199   8.579 -0.4797 -0.4722 -0.1129
  107OSM   H18H11025   4.200   3.113   8.498 -2.6188 -1.4427  1.3995
  108OSM      N11026   4.462   0.526  10.817 -0.0328  0.2956 -0.8494
  108OSM    C1511027   4.340   0.611  10.794 -0.3904  0.0933 -0.2442
  108OSM   H15A11028   4.384   0.698  10.749  1.6155 -1.2231 -0.9910
  108OSM   H15B11029   4.288   0.652  10.879 -1.7775  0.2491 -1.1366
  108OSM   H15C11030   4.271   0.556  10.732 -1.5312  1.8952 -0.6401
  108OSM    C1411031   4.423   0.409  10.901  0.2311  0.0524 -0.6839
  108OSM   H14A11032   4.382   0.444  10.994 -0.5729 -0.6319 -0.7709
  108OSM   H14B11033   4.512   0.347  10.908 -0.5280 -1.2451 -1.9169
  108OSM   H14C11034   4.345   0.350  10.855 -1.4912  0.7249  1.2659
  108OSM    C1311035   4.519   0.486  10.683  0.4978 -0.6328 -0.5321
  108OSM   H13A11036   4.438   0.437  10.632  0.0367  0.3606 -0.7761
  108OSM   H13B11037   4.598   0.415  10.701  0.9259 -0.3523 -1.2655
  108OSM   H13C11038   4.542   0.575  10.626 -1.7798 -0.4142 -1.2015
  108OSM    C1211039   4.562   0.605  10.896  0.0097 -0.1492 -0.4499
  108OSM   H12A11040   4.642   0.537  10.920  1.8832  1.4989 -1.6754
  108OSM   H12B11041   4.515   0.653  10.981  1.4467  0.0760  0.2450
  108OSM    C1111042   4.635   0.722  10.822 -0.5478  0.3141  0.2780
  108OSM   H11A11043   4.698   0.785  10.888 -0.9744 -0.0955  1.0894
  108OSM   H11B11044   4.561   0.784  10.767 -1.5318 -1.1925 -0.1511
  108OSM      P11045   4.858   0.578  10.751  0.4269  0.0161  0.2975
  108OSM    O1311046   4.970   0.670  10.737 -0.1412 -0.6847  0.7321
  108OSM    O1411047   4.843   0.510  10.879  0.5175 -0.2963 -0.2790
  108OSM    O1111048   4.851   0.469  10.629 -0.0007  0.1991 -0.5419
  108OSM    O1211049   4.726   0.660  10.721 -0.1491  0.0624  0.3635
  108OSM    C1S11050   4.838   0.517  10.497  0.5673  0.2486  0.0889
  108OSM    H1S11051   4.891   0.612  10.476 -0.6432  0.8570 -0.2555
  108OSM    H1T11052   4.733   0.536  10.468  1.2872  1.1430 -2.1786
  108OSM     NF11053   4.935   0.472  10.272 -0.0852 -0.5145  0.8143
  108OSM    HNF11054   4.897   0.430  10.190 -0.8444  2.6123 -0.5868
  108OSM    C2S11055   4.893   0.410  10.397  0.1556  0.4189  0.3441
  108OSM    H2S11056   4.981   0.356  10.437 -2.1055 -2.8403  1.3655
  108OSM    C3S11057   4.787   0.292  10.383  0.0302 -0.1558 -0.3420
  108OSM    H3S11058   4.697   0.348  10.348 -0.9237 -0.6525  1.2073
  108OSM     O311059   4.743   0.254  10.513 -0.2165 -0.0717  0.1538
  108OSM    HO311060   4.771   0.329  10.566 -1.2985  0.5069 -0.0734
  108OSM    C4S11061   4.824   0.176  10.304 -0.0232  0.0171  0.1325
  108OSM    H4S11062   4.914   0.124  10.337 -0.8171  0.1395  2.7110
  108OSM    C5S11063   4.747   0.122  10.209  0.0702  0.1919  0.4856
  108OSM    H5S11064   4.648   0.164  10.185  0.2115  0.4184  0.2899
  108OSM    C6S11065   4.788  -0.002  10.136  0.1743  0.0049 -0.8846
  108OSM    H6S11066   4.742  -0.011  10.035 -0.0823  1.5444 -0.9282
  108OSM    H6T11067   4.757  -0.088  10.199  0.4725  0.5526  0.0225
  108OSM    C7S11068   4.931  -0.028  10.099 -0.0088 -0.8063 -0.3912
  108OSM    H7S11069   4.999  -0.023  10.187 -0.3738  0.7675 -0.1774
  108OSM    H7T11070   4.964   0.051  10.028 -0.6659  1.5612  1.7937
  108OSM    C8S11071   4.954  -0.162  10.037  0.1164  0.5530 -0.1180
  108OSM    H8S11072   4.937  -0.244  10.110  1.7979  0.5328  0.2857
  108OSM    H8T11073   5.056  -0.178   9.995  0.4242  1.2029  0.3618
  108OSM    C9S11074   4.857  -0.201   9.916 -0.0733 -0.2423 -0.2412
  108OSM    H9S11075   4.759  -0.219   9.963  0.4791  0.9964  1.4918
  108OSM    H9T11076   4.892  -0.301   9.881  0.7088  0.4955 -1.6833
  108OSM   C10S11077   4.859  -0.108   9.800  0.2301  0.1798  0.1827
  108OSM   H10S11078   4.962  -0.080   9.770  0.1866  1.9468  1.4874
  108OSM   H10T11079   4.818  -0.009   9.831  0.4327  0.4300 -0.3421
  108OSM   C11S11080   4.787  -0.163   9.670 -1.0827 -0.6791 -0.0848
  108OSM   H11S11081   4.679  -0.163   9.697 -0.8438 -1.3443  0.9441
  108OSM   H11T11082   4.822  -0.266   9.647  2.8035  0.8013 -1.7537
  108OSM   C12S11083   4.824  -0.078   9.543 -0.1931  0.4330 -0.2999
  108OSM   H12S11084   4.935  -0.078   9.539 -0.0100  1.3408  2.7105
  108OSM   H12T11085   4.782   0.023   9.562 -0.6221  0.1837  0.1036
  108OSM   C13S11086   4.761  -0.150   9.424 -0.6655 -0.3805  0.1974
  108OSM   H13S11087   4.656  -0.167   9.453 -1.1706  0.4265 -1.0826
  108OSM   H13T11088   4.805  -0.251   9.413 -1.5804 -0.9029  1.1939
  108OSM   C14S11089   4.776  -0.077   9.289 -0.0451 -0.1371  0.5203
  108OSM   H14S11090   4.882  -0.070   9.259 -0.6051 -1.1524 -1.9231
  108OSM   H14T11091   4.744   0.030   9.286  0.2558 -0.0765 -1.3442
  108OSM   C15S11092   4.698  -0.136   9.165 -0.0012  0.1342 -0.4279
  108OSM   H15S11093   4.588  -0.128   9.178  0.0838  1.1478 -0.2447
  108OSM   H15T11094   4.728  -0.242   9.158 -1.5415 -0.3196 -0.5955
  108OSM   C16S11095   4.736  -0.064   9.035 -0.3097  0.2655  0.4566
  108OSM   H16S11096   4.842  -0.088   9.015 -1.0388 -1.5474 -1.6645
  108OSM   H16T11097   4.739   0.046   9.053  0.6859  0.8914 -2.8788
  108OSM   C17S11098   4.647  -0.093   8.914 -0.8462 -0.1425  0.1595
  108OSM   H17S11099   4.545  -0.057   8.938 -0.9305  0.4208 -1.0161
  108OSM   H17T11100   4.640  -0.203   8.901  0.3463 -0.1000 -1.1194
  108OSM   C18S11101   4.698  -0.043   8.783 -0.0258  1.0250 -0.4456
  108OSM   H18S11102   4.774  -0.109   8.738 -1.6196  0.3963 -2.3680
  108OSM   H18T11103   4.749   0.053   8.809 -0.5596  1.1425  0.2225
  108OSM   H18U11104   4.624  -0.032   8.700 -0.0092 -0.5905 -0.7037
  108OSM    C1F11105   5.028   0.569  10.270  0.3048  0.7030  0.0490
  108OSM     OF11106   5.100   0.594  10.367 -0.0489  0.4598  0.6898
  108OSM    C2F11107   5.018   0.654  10.145  0.1984  0.0357  0.3403
  108OSM    H2F11108   4.928   0.716  10.164 -1.0371 -0.6053 -2.7512
  108OSM    H2G11109   4.996   0.593  10.055 -1.5873  2.1947 -0.7629
  108OSM    C3F11110   5.139   0.743  10.110  0.3864  0.6274  0.0260
  108OSM    H3F11111   5.227   0.697  10.059 -1.3062 -1.4825 -1.1562
  108OSM    H3G11112   5.173   0.789  10.206 -2.9196 -1.4081  2.4027
  108OSM    C4F11113   5.107   0.851  10.014  0.2183  0.2271 -0.4650
  108OSM    H4F11114   5.028   0.908  10.068  1.3923 -0.1349  1.7863
  108OSM    H4G11115   5.066   0.809   9.920 -1.7278  1.2069 -0.0919
  108OSM    C5F11116   5.224   0.944   9.969  0.5532 -0.6678 -0.1812
  108OSM    H5F11117   5.299   0.885   9.913  0.1769 -0.6569 -0.7082
  108OSM    H5G11118   5.262   0.973  10.069 -0.8356  0.8304 -0.0215
  108OSM    C6F11119   5.181   1.059   9.885 -0.0502 -0.1968 -0.1345
  108OSM    H6F11120   5.100   1.112   9.939  0.8491 -0.3173  1.3788
  108OSM    H6G11121   5.121   1.008   9.807  0.7406 -0.6796 -0.4473
  108OSM    C7F11122   5.300   1.145   9.833  0.5692  0.7128  0.6378
  108OSM    H7F11123   5.367   1.184   9.913  1.2921  0.8838 -0.0470
  108OSM    H7G11124   5.252   1.232   9.784 -1.8132  0.2826  2.0370
  108OSM    C8F11125   5.390   1.068   9.730 -0.1439 -0.0213 -0.6985
  108OSM    H8F11126   5.326   1.004   9.666  2.9387 -2.9413 -1.1330
  108OSM    H8G11127   5.455   0.996   9.783  1.5485  1.3886 -0.7513
  108OSM    C9F11128   5.478   1.153   9.639 -0.8381  0.4323  0.2211
  108OSM    H9F11129   5.558   1.208   9.691 -0.3814  0.5573 -0.5893
  108OSM   C10F11130   5.467   1.174   9.503 -0.2538 -0.9259 -0.6012
  108OSM   H10F11131   5.533   1.250   9.459 -1.7643 -0.2916 -1.8952
  108OSM   C11F11132   5.365   1.110   9.414 -0.2401  0.0331 -0.6946
  108OSM   H11F11133   5.364   1.000   9.432 -1.6600 -0.0197 -0.9398
  108OSM   H11G11134   5.392   1.130   9.308  1.5329  2.0182  0.0641
  108OSM   C12F11135   5.221   1.155   9.421 -0.2410  0.0124  0.1912
  108OSM   H12F11136   5.210   1.254   9.374 -1.4004 -0.7783 -1.2647
  108OSM   H12G11137   5.190   1.146   9.528 -0.3502 -0.2983  0.1359
  108OSM   C13F11138   5.127   1.072   9.333 -0.0268  0.3073  0.5458
  108OSM   H13F11139   5.129   0.970   9.376  1.8272 -0.2644 -0.7168
  108OSM   H13G11140   5.179   1.077   9.235  0.8996  1.2631  1.0674
  108OSM   C14F11141   4.976   1.112   9.328  0.0326 -0.3431 -0.2344
  108OSM   H14F11142   4.981   1.215   9.289  3.4328 -0.6208 -0.8360
  108OSM   H14G11143   4.921   1.106   9.425 -1.5329 -1.0462 -1.1281
  108OSM   C15F11144   4.893   1.018   9.243 -0.1010 -0.4265  0.0215
  108OSM   H15F11145   4.784   1.032   9.262 -0.0932  0.3052 -0.4430
  108OSM   H15G11146   4.905   0.913   9.276 -0.4158 -0.1580  1.0301
  108OSM   C16F11147   4.929   1.036   9.098  0.0118 -0.3185  0.3169
  108OSM   H16F11148   5.035   1.004   9.089  0.0666  0.0273 -0.3405
  108OSM   H16G11149   4.917   1.144   9.074 -1.1533 -0.1653  1.4805
  108OSM   C17F11150   4.843   0.958   9.001 -0.6171  0.1020  0.4979
  108OSM   H17F11151   4.739   0.996   9.011 -1.0466  1.1988 -5.2081
  108OSM   H17G11152   4.858   0.854   9.037  1.1473 -0.7549 -2.4478
  108OSM   C18F11153   4.898   0.983   8.858  0.2218 -0.1502 -0.8584
  108OSM   H18F11154   4.839   1.067   8.815 -1.1374 -0.5343  0.1606
  108OSM   H18G11155   4.900   0.887   8.802  2.3401 -1.0526  0.6611
  108OSM   H18H11156   5.005   1.010   8.870 -0.2339  1.5209 -0.2568
  109OSM      N11157   5.142   2.829  11.213  0.2522  0.1351  0.1719
  109OSM    C1511158   5.231   2.915  11.289 -0.0789  0.1002 -0.2199
  109OSM   H15A11159   5.179   2.947  11.379 -0.9000 -0.7923 -0.3636
  109OSM   H15B11160   5.259   2.984  11.211  1.7179 -2.3213 -1.8641
  109OSM   H15C11161   5.319   2.865  11.326 -0.3985  0.2268  0.7573
  109OSM    C1411162   5.096   2.709  11.291  0.7248 -0.7403  0.4394
  109OSM   H14A11163   5.014   2.741  11.355  0.1377  1.4292 -1.2829
  109OSM   H14B11164   5.180   2.671  11.348  1.5702 -1.0711 -0.9947
  109OSM   H14C11165   5.059   2.627  11.232 -0.5408 -0.9346  1.4441
  109OSM    C1311166   5.017   2.905  11.183  0.2606 -0.3119  0.0218
  109OSM   H13A11167   4.963   2.931  11.273 -0.1902  0.4801 -0.4632
  109OSM   H13B11168   4.948   2.846  11.125  1.1771 -1.0529 -0.3323
  109OSM   H13C11169   5.034   2.999  11.131  2.0583 -1.5627 -1.8020
  109OSM    C1211170   5.214   2.783  11.085  0.9864  0.6353  0.4546
  109OSM   H12A11171   5.161   2.702  11.036  2.3627 -0.0710  0.0824
  109OSM   H12B11172   5.307   2.739  11.117 -0.3323 -2.0895  0.8908
  109OSM    C1111173   5.238   2.892  10.974  0.3814 -0.2467  0.0796
  109OSM   H11A11174   5.135   2.917  10.940  0.0447  1.4436  2.1023
  109OSM   H11B11175   5.292   2.843  10.891  0.7038  2.1968 -1.2318
  109OSM      P11176   5.234   3.156  11.006  0.1922  0.0103 -0.4422
  109OSM    O1311177   5.086   3.142  11.005 -0.1298 -0.0327 -0.2909
  109OSM    O1411178   5.294   3.248  11.105  0.2769 -0.1845 -0.2543
  109OSM    O1111179   5.286   3.223  10.873  0.1402  0.6588 -0.1947
  109OSM    O1211180   5.307   3.011  11.018 -0.0030  0.7805 -0.3761
  109OSM    C1S11181   5.295   3.151  10.747  0.7415 -0.8105 -0.0161
  109OSM    H1S11182   5.224   3.065  10.742 -0.3609  0.1256 -1.3239
  109OSM    H1T11183   5.395   3.104  10.745  2.4040  2.4077  0.7350
  109OSM     NF11184   5.233   3.153  10.513 -0.0060  0.4799 -0.4222
  109OSM    HNF11185   5.300   3.143  10.440 -1.1506 -0.2763 -1.4111
  109OSM    C2S11186   5.261   3.237  10.626 -0.5158 -0.8149  0.2791
  109OSM    H2S11187   5.165   3.288  10.651 -1.6454 -1.7879 -1.7407
  109OSM    C3S11188   5.376   3.340  10.602 -0.6587 -0.3987  0.6658
  109OSM    H3S11189   5.467   3.287  10.567 -0.5285  0.3990 -0.2586
  109OSM     O311190   5.417   3.421  10.715  0.1104  0.3112 -0.2959
  109OSM    HO311191   5.364   3.388  10.788 -1.1790  3.6316  0.4263
  109OSM    C4S11192   5.332   3.438  10.497 -0.2537 -0.0294  1.0865
  109OSM    H4S11193   5.258   3.513  10.527 -2.9897 -2.2370  0.2844
  109OSM    C5S11194   5.382   3.435  10.370  0.1905 -0.2312 -0.2896
  109OSM    H5S11195   5.447   3.348  10.351 -0.7260 -0.7817 -1.0080
  109OSM    C6S11196   5.338   3.526  10.257 -0.0891  0.7364  0.3694
  109OSM    H6S11197   5.427   3.556  10.199 -0.6619 -1.8634 -2.0372
  109OSM    H6T11198   5.278   3.612  10.295 -0.8080 -0.3368  1.7855
  109OSM    C7S11199   5.238   3.452  10.157  0.2928 -0.1030  0.2484
  109OSM    H7S11200   5.143   3.438  10.212 -0.0984 -0.5263 -0.5078
  109OSM    H7T11201   5.270   3.349  10.129 -0.7860 -0.1180 -1.0620
  109OSM    C8S11202   5.204   3.534  10.031 -0.3424 -0.3161 -0.3616
  109OSM    H8S11203   5.183   3.638  10.065 -0.6658 -0.0900 -1.2288
  109OSM    H8T11204   5.111   3.494   9.987 -0.6714  1.3012 -1.2168
  109OSM    C9S11205   5.310   3.534   9.925 -0.1643  0.5105 -0.0877
  109OSM    H9S11206   5.342   3.428   9.913  1.0555  0.8573 -0.0477
  109OSM    H9T11207   5.398   3.597   9.951  0.5211  0.0553 -1.2429
  109OSM   C10S11208   5.254   3.573   9.780 -0.7499  0.2892 -0.6021
  109OSM   H10S11209   5.245   3.684   9.778  0.5611  0.4469  0.9023
  109OSM   H10T11210   5.153   3.528   9.763 -0.0490 -0.8954 -1.8934
  109OSM   C11S11211   5.345   3.535   9.667 -0.3177  0.0930  0.2006
  109OSM   H11S11212   5.356   3.425   9.664  1.2232  0.0950  2.6443
  109OSM   H11T11213   5.447   3.570   9.696  0.8855 -2.3231 -0.8635
  109OSM   C12S11214   5.291   3.588   9.531 -0.6397  0.6206 -0.0997
  109OSM   H12S11215   5.269   3.696   9.543  1.1575  0.7965  2.5258
  109OSM   H12T11216   5.187   3.549   9.523 -0.7119  0.7104  0.3504
  109OSM   C13S11217   5.358   3.557   9.401 -0.2294  0.2373 -0.2702
  109OSM   H13S11218   5.387   3.451   9.384  0.0235  0.5728 -2.1694
  109OSM   H13T11219   5.453   3.613   9.389  0.6108 -0.8849  0.8237
  109OSM   C14S11220   5.259   3.579   9.286 -0.8306  0.2054  0.1807
  109OSM   H14S11221   5.232   3.686   9.292  1.4027  0.8127  0.4679
  109OSM   H14T11222   5.171   3.514   9.303 -0.1884 -0.4070  1.3293
  109OSM   C15S11223   5.326   3.545   9.151  0.1373  0.3759 -0.9586
  109OSM   H15S11224   5.388   3.453   9.148 -0.5738 -0.2733  1.6183
  109OSM   H15T11225   5.400   3.626   9.137  2.8657 -1.7544  0.1985
  109OSM   C16S11226   5.222   3.541   9.042  0.4120 -0.1844 -0.6301
  109OSM   H16S11227   5.158   3.452   9.058  1.8764 -1.0234  1.0036
  109OSM   H16T11228   5.267   3.527   8.942  3.1251  3.4431 -0.1479
  109OSM   C17S11229   5.137   3.670   9.039  0.1883  0.2068  0.3025
  109OSM   H17S11230   5.212   3.750   9.055 -1.1781  1.5579  0.1300
  109OSM   H17T11231   5.073   3.666   9.129  1.5019  0.6488  1.2973
  109OSM   C18S11232   5.053   3.697   8.912 -0.0971 -0.1782 -0.6254
  109OSM   H18S11233   5.119   3.734   8.831  0.4182 -0.3601 -0.2914
  109OSM   H18T11234   4.973   3.773   8.921  1.9062  2.0733 -0.8625
  109OSM   H18U11235   5.014   3.599   8.879 -0.5956 -0.7013  1.4055
  109OSM    C1F11236   5.122   3.082  10.510  0.0028 -0.3469 -0.0577
  109OSM     OF11237   5.051   3.067  10.605  0.5821  0.0170  0.0188
  109OSM    C2F11238   5.079   3.016  10.384  0.2094  0.4772  0.0604
  109OSM    H2F11239   4.970   2.997  10.384  0.3446 -0.3785 -0.3953
  109OSM    H2G11240   5.133   2.922  10.358  2.4870  0.7599  3.1346
  109OSM    C3F11241   5.109   3.112  10.263  0.3340 -0.6897 -0.3103
  109OSM    H3F11242   5.220   3.112  10.258  0.5924  1.2631  2.7357
  109OSM    H3G11243   5.071   3.214  10.282 -1.7536 -1.5158  0.2277
  109OSM    C4F11244   5.061   3.050  10.134  0.6548  0.2866  0.1216
  109OSM    H4F11245   4.953   3.025  10.128  1.1289 -1.5993 -1.0259
  109OSM    H4G11246   5.122   2.961  10.109  0.1576  0.3029 -1.2161
  109OSM    C5F11247   5.071   3.152  10.012 -0.5960  0.0279 -0.4806
  109OSM    H5F11248   5.175   3.191  10.008 -0.6864  0.2569 -0.6139
  109OSM    H5G11249   5.006   3.232  10.054 -1.2762 -1.2396  0.9286
  109OSM    C6F11250   5.002   3.122   9.873 -0.9115  0.1807 -0.4577
  109OSM    H6F11251   5.002   3.222   9.825 -1.3466  0.2395 -0.3351
  109OSM    H6G11252   4.895   3.095   9.885 -0.6886 -1.0532 -1.1310
  109OSM    C7F11253   5.072   3.018   9.787 -0.1593 -0.4837 -0.0863
  109OSM    H7F11254   5.054   2.915   9.824  0.7650 -0.1546  1.3689
  109OSM    H7G11255   5.183   3.029   9.793 -0.2946  0.2468  1.2889
  109OSM    C8F11256   5.017   3.028   9.640 -0.3458  0.3229 -0.0419
  109OSM    H8F11257   4.906   3.037   9.639 -0.2015  3.1349 -0.7031
  109OSM    H8G11258   5.032   2.927   9.597 -6.4967 -1.1736  0.3458
  109OSM    C9F11259   5.078   3.145   9.567  0.4432  1.0136 -0.8348
  109OSM    H9F11260   5.082   3.236   9.628  1.3885  1.0598 -0.9580
  109OSM   C10F11261   5.139   3.136   9.446 -0.3068 -0.6991 -0.0065
  109OSM   H10F11262   5.188   3.228   9.409 -0.1694  0.3432  2.5451
  109OSM   C11F11263   5.161   3.011   9.362 -0.0708  0.4743 -0.0503
  109OSM   H11F11264   5.205   2.928   9.422  0.6426 -1.1189 -2.6143
  109OSM   H11G11265   5.239   3.031   9.285  1.6631  0.2271  1.5516
  109OSM   C12F11266   5.028   2.986   9.293  0.6069  0.7400  0.1630
  109OSM   H12F11267   4.938   2.993   9.358 -0.6441  2.5412 -1.6449
  109OSM   H12G11268   5.038   2.888   9.241 -3.2100  0.5360 -0.4579
  109OSM   C13F11269   4.992   3.076   9.168 -0.0695 -0.1777 -1.0771
  109OSM   H13F11270   4.972   3.176   9.214 -0.5860 -1.1088  0.8394
  109OSM   H13G11271   4.894   3.047   9.125 -0.7629 -1.6585  1.3209
  109OSM   C14F11272   5.103   3.083   9.060 -0.4774 -0.1576  0.5807
  109OSM   H14F11273   5.117   2.989   9.003 -3.1257  0.1975 -0.8094
  109OSM   H14G11274   5.204   3.108   9.101  0.4199  0.5728 -1.9027
  109OSM   C15F11275   5.069   3.184   8.944 -0.1851  0.1049 -0.4619
  109OSM   H15F11276   5.031   3.284   8.973  1.2449  0.4332  0.3226
  109OSM   H15G11277   4.976   3.138   8.904 -0.4553  0.1710  0.0819
  109OSM   C16F11278   5.171   3.200   8.837  0.3580  0.6291  1.0380
  109OSM   H16F11279   5.202   3.112   8.777  1.9337  1.0393  1.2092
  109OSM   H16G11280   5.260   3.254   8.875 -0.1937  2.3718 -0.0381
  109OSM   C17F11281   5.121   3.282   8.718  0.2320 -0.1991 -0.4627
  109OSM   H17F11282   5.104   3.389   8.744 -1.8399  0.1458 -2.8072
  109OSM   H17G11283   5.028   3.247   8.669  0.6246 -0.4533 -1.0412
  109OSM   C18F11284   5.228   3.294   8.609 -0.2109 -0.3920 -0.0767
  109OSM   H18F11285   5.198   3.374   8.539 -0.1262  0.2508  0.6058
  109OSM   H18G11286   5.228   3.197   8.555  1.6399 -0.4282 -0.0649
  109OSM   H18H11287   5.324   3.324   8.655  0.3202 -0.2529 -1.2382
  110OSM      N11288   6.545   4.259  10.948  0.0080  0.7250  0.3259
  110OSM    C1511289   6.540   4.142  11.035  0.2795 -0.6322  0.3491
  110OSM   H15A11290   6.546   4.164  11.141 -0.6944  0.3023  0.2271
  110OSM   H15B11291   6.614   4.068  11.009  0.5948 -0.7656  1.5505
  110OSM   H15C11292   6.442   4.099  11.025 -1.0024  2.3527 -1.3888
  110OSM    C1411293   6.502   4.210  10.809 -0.0757  0.5687  0.2623
  110OSM   H14A11294   6.400   4.176  10.815  0.2034 -0.8350 -1.9282
  110OSM   H14B11295   6.561   4.126  10.775 -0.8910  0.9300 -2.1986
  110OSM   H14C11296   6.532   4.289  10.742  1.8195 -1.0774 -0.9395
  110OSM    C1311297   6.452   4.365  10.997  0.3036 -0.2216  0.2271
  110OSM   H13A11298   6.465   4.460  10.947 -1.3333 -0.2643 -0.3564
  110OSM   H13B11299   6.457   4.379  11.104  0.7848  1.8934 -0.0382
  110OSM   H13C11300   6.350   4.335  10.974  0.4989  0.4962 -1.8181
  110OSM    C1211301   6.690   4.298  10.967 -1.1539  0.3992 -0.2841
  110OSM   H12A11302   6.751   4.212  10.942 -2.1190 -0.6659  0.9567
  110OSM   H12B11303   6.708   4.315  11.072 -0.2890 -1.1256 -0.1624
  110OSM    C1111304   6.742   4.424  10.890 -0.2176 -0.1641  0.0398
  110OSM   H11A11305   6.716   4.426  10.782 -0.0439 -0.1105 -0.0011
  110OSM   H11B11306   6.853   4.427  10.888 -0.1373 -2.1383 -0.8461
  110OSM      P11307   6.761   4.671  10.942 -0.1789 -0.2165  0.0522
  110OSM    O1311308   6.665   4.781  10.971 -0.6070  0.1440 -0.7025
  110OSM    O1411309   6.880   4.665  11.026  0.3088 -0.3242  0.1613
  110OSM    O1111310   6.797   4.677  10.781  0.0381  0.2792 -0.6150
  110OSM    O1211311   6.687   4.534  10.956 -1.0350  0.0676 -0.2404
  110OSM    C1S11312   6.927   4.671  10.734  0.3502  0.2102  0.0377
  110OSM    H1S11313   6.976   4.575  10.760 -0.2569  0.4728  2.3710
  110OSM    H1T11314   6.995   4.751  10.770  0.2844 -0.6336  2.1797
  110OSM     NF11315   7.063   4.655  10.537  0.2845 -0.2002  0.5747
  110OSM    HNF11316   7.123   4.731  10.513 -0.7474 -0.0605 -1.8579
  110OSM    C2S11317   6.923   4.682  10.585 -0.4055  0.7160 -0.2694
  110OSM    H2S11318   6.851   4.610  10.542 -1.0251  2.7097 -2.7939
  110OSM    C3S11319   6.863   4.820  10.531  0.3539 -0.0220  0.1715
  110OSM    H3S11320   6.932   4.890  10.584  0.5567 -1.8179  2.4571
  110OSM     O311321   6.731   4.839  10.581 -0.8306 -0.1178 -0.1807
  110OSM    HO311322   6.745   4.789  10.662 -0.3973 -0.6260 -0.5579
  110OSM    C4S11323   6.863   4.818  10.379  0.6503 -0.4053  0.0944
  110OSM    H4S11324   6.798   4.737  10.342 -0.1745 -0.3035  1.2586
  110OSM    C5S11325   6.944   4.879  10.293  0.2099  0.1468  0.3935
  110OSM    H5S11326   7.017   4.953  10.329  1.1524 -0.5588 -0.0123
  110OSM    C6S11327   6.950   4.869  10.144 -0.3262  0.0164 -0.5631
  110OSM    H6S11328   6.920   4.764  10.122 -0.0151  0.0390 -1.1063
  110OSM    H6T11329   7.058   4.867  10.118 -0.2902  0.2490 -0.4295
  110OSM    C7S11330   6.890   4.980  10.069  1.5465  0.3526  0.0849
  110OSM    H7S11331   6.936   5.077  10.096 -0.3949  1.3339  0.0258
  110OSM    H7T11332   6.788   4.966  10.111  1.1610  1.5746 -0.3989
  110OSM    C8S11333   6.869   4.966   9.913 -0.0856  0.0300 -0.4316
  110OSM    H8S11334   6.781   5.022   9.877  0.0845 -0.6429 -2.0170
  110OSM    H8T11335   6.865   4.857   9.891  3.1228  0.2619 -3.0672
  110OSM    C9S11336   6.986   5.034   9.846  0.0787  0.0658 -0.1160
  110OSM    H9S11337   7.076   4.990   9.895 -1.7771 -0.8370  2.7636
  110OSM    H9T11338   6.970   5.141   9.871 -3.0554 -0.8388  2.3916
  110OSM   C10S11339   6.980   5.021   9.695  0.1499 -0.3320  0.9119
  110OSM   H10S11340   6.884   5.050   9.648  0.6160 -2.3997 -1.5262
  110OSM   H10T11341   6.976   4.918   9.653 -1.8429  0.5632 -1.3013
  110OSM   C11S11342   7.083   5.106   9.616  0.5667  0.2116 -0.1622
  110OSM   H11S11343   7.177   5.061   9.653  1.3275  1.2468 -0.7627
  110OSM   H11T11344   7.060   5.209   9.653  1.2839 -0.0393  1.0488
  110OSM   C12S11345   7.066   5.114   9.458 -1.0576  0.7776 -0.0516
  110OSM   H12S11346   6.975   5.162   9.416  0.0121  1.3930 -1.7674
  110OSM   H12T11347   7.066   5.007   9.429 -0.9674  1.0228 -0.9881
  110OSM   C13S11348   7.197   5.170   9.405  0.2578 -0.5466 -0.5637
  110OSM   H13S11349   7.293   5.117   9.416 -0.0822 -1.4005 -1.5269
  110OSM   H13T11350   7.214   5.275   9.438 -0.7232 -0.6984  0.4693
  110OSM   C14S11351   7.196   5.175   9.248 -0.1283  0.0842 -0.8472
  110OSM   H14S11352   7.113   5.243   9.218 -0.8159 -0.3811 -0.0445
  110OSM   H14T11353   7.182   5.076   9.200  2.2498 -0.4664 -0.5362
  110OSM   C15S11354   7.331   5.228   9.193 -0.4591  0.1549  0.9079
  110OSM   H15S11355   7.417   5.186   9.249 -1.2948 -3.4466 -0.2395
  110OSM   H15T11356   7.326   5.338   9.206  0.8036  0.4413 -0.5994
  110OSM   C16S11357   7.358   5.195   9.047  0.5593  0.6593  0.4730
  110OSM   H16S11358   7.446   5.256   9.018  0.3661 -0.0333 -1.7961
  110OSM   H16T11359   7.280   5.228   8.974 -0.2823 -1.0257  0.5450
  110OSM   C17S11360   7.387   5.044   9.021 -0.1037 -1.1680  0.4330
  110OSM   H17S11361   7.292   4.991   9.043  0.7089 -2.5866  0.6717
  110OSM   H17T11362   7.464   5.002   9.089 -0.0136 -1.2520  0.2811
  110OSM   C18S11363   7.432   5.022   8.874  0.4873  0.1728 -0.2194
  110OSM   H18S11364   7.491   5.110   8.840  0.1613  0.9092  1.0710
  110OSM   H18T11365   7.345   5.005   8.808  0.2011 -1.1563  0.4684
  110OSM   H18U11366   7.491   4.928   8.863 -0.9775 -1.3309  3.3646
  110OSM    C1F11367   7.122   4.539  10.551 -0.2799 -0.3259  0.1638
  110OSM     OF11368   7.055   4.437  10.554 -0.3626  0.1680 -0.0238
  110OSM    C2F11369   7.272   4.538  10.566  0.8932 -0.2326 -0.1187
  110OSM    H2F11370   7.303   4.436  10.596 -1.0009 -0.2537  2.0851
  110OSM    H2G11371   7.313   4.614  10.636 -0.2655  1.0957 -0.8135
  110OSM    C3F11372   7.334   4.568  10.429  0.8233 -0.7135  0.4677
  110OSM    H3F11373   7.321   4.675  10.401  3.1741 -0.1904  1.0986
  110OSM    H3G11374   7.289   4.502  10.353 -0.4719 -1.1851  1.6078
  110OSM    C4F11375   7.483   4.550  10.429  0.0299 -0.0481 -0.6587
  110OSM    H4F11376   7.531   4.593  10.520 -1.1333 -1.4835  0.6869
  110OSM    H4G11377   7.526   4.610  10.347 -0.7902  1.9180  0.2793
  110OSM    C5F11378   7.517   4.401  10.423 -0.8324 -0.0650 -0.0152
  110OSM    H5F11379   7.442   4.358  10.492 -2.6274 -0.6411 -2.1911
  110OSM    H5G11380   7.623   4.399  10.457 -1.5435  1.7361  2.6087
  110OSM    C6F11381   7.506   4.338  10.283 -0.7374 -0.2398 -0.1354
  110OSM    H6F11382   7.569   4.401  10.217 -1.0214  0.8761  0.6262
  110OSM    H6G11383   7.402   4.344  10.242  0.0252  0.2201 -2.1417
  110OSM    C7F11384   7.564   4.200  10.276 -0.7226 -0.5463  0.2648
  110OSM    H7F11385   7.508   4.135  10.347  1.0759 -0.7852  1.5351
  110OSM    H7G11386   7.668   4.200  10.316 -1.2064  1.4570  1.6925
  110OSM    C8F11387   7.571   4.151  10.130 -0.2905 -0.6837 -0.2085
  110OSM    H8F11388   7.664   4.193  10.086 -0.6186 -0.8029 -1.0312
  110OSM    H8G11389   7.487   4.183  10.065  0.4436 -0.5825 -1.1184
  110OSM    C9F11390   7.574   4.006  10.136 -0.1095 -0.0171 -0.1657
  110OSM    H9F11391   7.486   3.966  10.188  0.4373  2.2449  2.7599
  110OSM   C10F11392   7.664   3.924  10.082 -0.4201  0.5663 -0.1742
  110OSM   H10F11393   7.664   3.821  10.122 -1.0797  0.2419 -0.9733
  110OSM   C11F11394   7.784   3.962   9.995  0.3337  0.5175  0.1126
  110OSM   H11F11395   7.873   3.984  10.058  1.1083 -1.2327 -0.3101
  110OSM   H11G11396   7.742   4.048   9.939 -3.7188 -2.6647 -2.3694
  110OSM   C12F11397   7.813   3.869   9.878 -0.2301 -0.5104 -0.3633
  110OSM   H12F11398   7.826   3.763   9.909 -0.2486 -1.1797 -2.4301
  110OSM   H12G11399   7.913   3.894   9.837  0.7889 -2.9218  0.4871
  110OSM   C13F11400   7.714   3.868   9.763  0.7011 -0.4702 -0.3724
  110OSM   H13F11401   7.687   3.976   9.758  4.3159  0.5584 -0.6309
  110OSM   H13G11402   7.621   3.809   9.779  1.7752 -1.7844  1.3190
  110OSM   C14F11403   7.776   3.832   9.627  0.3427  0.4315 -0.0487
  110OSM   H14F11404   7.821   3.731   9.636 -0.9157 -0.0638  1.0916
  110OSM   H14G11405   7.856   3.906   9.607  1.3908 -0.5625  0.3629
  110OSM   C15F11406   7.674   3.852   9.513  0.4983  0.4328 -0.0588
  110OSM   H15F11407   7.632   3.954   9.501 -1.3756 -0.4448 -1.4125
  110OSM   H15G11408   7.579   3.796   9.528  1.1301 -0.7800 -0.4607
  110OSM   C16F11409   7.730   3.811   9.374  0.1166 -0.5024  0.3682
  110OSM   H16F11410   7.786   3.717   9.391  0.6644 -0.5671 -1.5596
  110OSM   H16G11411   7.806   3.890   9.355  0.0673 -0.9092 -1.8184
  110OSM   C17F11412   7.640   3.794   9.250  0.1398  0.6596  0.7438
  110OSM   H17F11413   7.707   3.735   9.184 -0.0263 -0.2891  1.4095
  110OSM   H17G11414   7.620   3.895   9.208  0.1857  0.5614  0.4835
  110OSM   C18F11415   7.509   3.722   9.271 -0.7048 -0.9279 -0.2542
  110OSM   H18F11416   7.447   3.725   9.179  1.2664  0.0322 -1.6210
  110OSM   H18G11417   7.443   3.767   9.347 -1.1800  0.0149 -1.2023
  110OSM   H18H11418   7.529   3.614   9.287 -0.1364 -0.8098 -0.1485
  111OSM      N11419   4.665   5.750  11.010 -0.1613  0.7261 -0.0388
  111OSM    C1511420   4.803   5.729  11.065  0.5038  0.0670 -1.3090
  111OSM   H15A11421   4.818   5.799  11.146 -2.7522 -1.0255  0.3980
  111OSM   H15B11422   4.879   5.755  10.992  0.0063 -2.8049 -2.9769
  111OSM   H15C11423   4.811   5.629  11.105 -1.5750  1.2343  2.5405
  111OSM    C1411424   4.664   5.665  10.890  0.4349  0.4965  0.8039
  111OSM   H14A11425   4.580   5.688  10.826  0.1025 -1.4594  0.4673
  111OSM   H14B11426   4.638   5.562  10.912  0.4659  0.4930  0.8216
  111OSM   H14C11427   4.751   5.679  10.828 -1.2764  1.5673 -1.5187
  111OSM    C1311428   4.564   5.695  11.103  0.1362  0.2768  0.8737
  111OSM   H13A11429   4.587   5.593  11.130  0.8929  0.6129  1.5194
  111OSM   H13B11430   4.467   5.697  11.054  0.6712 -0.5117 -0.2614
  111OSM   H13C11431   4.566   5.747  11.198  2.2118  1.2936  0.3066
  111OSM    C1211432   4.640   5.900  10.980  0.4128  0.2916  0.6547
  111OSM   H12A11433   4.669   5.952  11.071  1.0598 -2.3096  2.0306
  111OSM   H12B11434   4.533   5.916  10.977  0.3898  0.0080 -0.4797
  111OSM    C1111435   4.720   5.980  10.879 -0.5569 -0.2987 -0.5205
  111OSM   H11A11436   4.665   6.072  10.848  0.2664  0.2139 -0.5064
  111OSM   H11B11437   4.731   5.913  10.791  2.4515 -2.1915  1.1306
  111OSM      P11438   4.983   6.027  10.836  0.1483  0.1893 -0.0831
  111OSM    O1311439   5.059   6.149  10.886  0.0931  0.2188  0.1775
  111OSM    O1411440   5.050   5.892  10.849  0.0728 -0.0923 -0.2393
  111OSM    O1111441   4.922   6.042  10.685  0.3909 -0.4362  0.6302
  111OSM    O1211442   4.853   6.026  10.936 -0.3137  0.4183 -0.6226
  111OSM    C1S11443   5.006   6.115  10.593 -0.3484  0.2299  0.9761
  111OSM    H1S11444   5.108   6.070  10.590  0.0211  1.0688  0.3421
  111OSM    H1T11445   5.007   6.223  10.617  0.0206 -0.1125  2.6193
  111OSM     NF11446   5.046   6.162  10.359  0.1114  0.2924 -0.1803
  111OSM    HNF11447   5.050   6.257  10.330 -0.9589 -0.2362 -2.2976
  111OSM    C2S11448   4.942   6.127  10.455 -0.0540 -0.0139 -0.2575
  111OSM    H2S11449   4.895   6.029  10.435 -0.2556  0.0401 -0.0575
  111OSM    C3S11450   4.823   6.230  10.470  1.3558 -0.3463 -0.1056
  111OSM    H3S11451   4.866   6.328  10.498 -0.3646  0.8538 -1.4454
  111OSM     O311452   4.737   6.209  10.584  0.2194 -0.5906  0.0477
  111OSM    HO311453   4.780   6.141  10.635 -1.7935 -0.8260  1.5757
  111OSM    C4S11454   4.744   6.237  10.342  0.0840  0.0812  0.8198
  111OSM    H4S11455   4.809   6.274  10.261 -1.0696 -0.5325 -0.4172
  111OSM    C5S11456   4.619   6.194  10.317 -0.2121 -0.0765  0.4036
  111OSM    H5S11457   4.564   6.153  10.403 -1.5923  0.4272 -0.2044
  111OSM    C6S11458   4.538   6.193  10.185 -0.8775  0.2314 -0.4741
  111OSM    H6S11459   4.444   6.252  10.192 -1.8849 -1.4206  0.4177
  111OSM    H6T11460   4.517   6.086  10.168  1.0954 -0.3307  0.3979
  111OSM    C7S11461   4.619   6.239  10.069 -0.4060 -0.1967  0.3026
  111OSM    H7S11462   4.717   6.186  10.070  0.7382  1.7748 -0.6316
  111OSM    H7T11463   4.646   6.346  10.080 -0.4794 -0.3186  1.8272
  111OSM    C8S11464   4.554   6.206   9.937  0.4881 -0.0673 -0.0057
  111OSM    H8S11465   4.452   6.243   9.958  0.2980 -0.8079  0.4184
  111OSM    H8T11466   4.556   6.094   9.937 -0.3905 -0.1456  2.9306
  111OSM    C9S11467   4.616   6.270   9.813  0.2840 -0.1182  0.4333
  111OSM    H9S11468   4.726   6.263   9.824  0.3069 -0.4567  0.0460
  111OSM    H9T11469   4.587   6.374   9.789 -0.8230 -0.9702 -2.4046
  111OSM   C10S11470   4.568   6.204   9.680 -0.4734  0.0451 -0.1573
  111OSM   H10S11471   4.458   6.217   9.668 -0.4792 -0.5738 -0.8947
  111OSM   H10T11472   4.585   6.094   9.682  0.2297  0.1644  0.6228
  111OSM   C11S11473   4.643   6.260   9.558  0.1948  0.0579  0.6533
  111OSM   H11S11474   4.753   6.242   9.558  0.8996  3.1740 -2.9258
  111OSM   H11T11475   4.628   6.370   9.557 -1.7948 -0.1516  1.8647
  111OSM   C12S11476   4.598   6.204   9.421  0.4154  0.7394 -0.2332
  111OSM   H12S11477   4.488   6.215   9.407  0.3170  0.6333  0.4256
  111OSM   H12T11478   4.630   6.098   9.410  0.8271  0.9030 -0.6358
  111OSM   C13S11479   4.665   6.272   9.306  0.9785 -0.9269  0.0407
  111OSM   H13S11480   4.775   6.263   9.308  1.0440 -0.1784  0.2875
  111OSM   H13T11481   4.633   6.379   9.299  1.0357 -0.9536 -0.7574
  111OSM   C14S11482   4.630   6.210   9.175 -0.6158 -0.1581 -0.0177
  111OSM   H14S11483   4.519   6.214   9.164 -0.4412  1.3012 -1.7040
  111OSM   H14T11484   4.674   6.108   9.182  0.6041  0.3887  0.5669
  111OSM   C15S11485   4.683   6.285   9.051 -0.2105  0.2755 -0.3848
  111OSM   H15S11486   4.778   6.337   9.078  1.4526 -3.5670  2.0531
  111OSM   H15T11487   4.610   6.365   9.026 -0.0053 -0.0353 -2.0813
  111OSM   C16S11488   4.713   6.199   8.920  0.6195 -0.7354 -1.0031
  111OSM   H16S11489   4.630   6.127   8.903 -1.0937  0.4755  1.5448
  111OSM   H16T11490   4.807   6.141   8.917 -0.1064 -1.9394 -3.0712
  111OSM   C17S11491   4.705   6.276   8.789  0.2707 -0.4062 -0.3759
  111OSM   H17S11492   4.786   6.352   8.798 -0.8610  0.8472 -0.5111
  111OSM   H17T11493   4.611   6.332   8.766  0.7577  0.1936 -0.9629
  111OSM   C18S11494   4.725   6.188   8.664 -0.0504 -0.5023 -0.6573
  111OSM   H18S11495   4.831   6.155   8.655  0.4950  1.2458 -0.9398
  111OSM   H18T11496   4.702   6.254   8.577  2.8322 -0.2273 -1.3198
  111OSM   H18U11497   4.663   6.097   8.677 -0.9665 -0.0227 -1.5682
  111OSM    C1F11498   5.139   6.083  10.316 -0.6569  0.4723 -0.0826
  111OSM     OF11499   5.151   5.966  10.355 -0.3131 -0.0903  0.0637
  111OSM    C2F11500   5.245   6.146  10.222  0.0472  0.1024 -0.1383
  111OSM    H2F11501   5.346   6.131  10.266  1.3402  3.1962 -1.7149
  111OSM    H2G11502   5.221   6.254  10.208  0.0883  0.5012  2.4142
  111OSM    C3F11503   5.229   6.085  10.074  0.6043  0.2910 -0.7278
  111OSM    H3F11504   5.268   5.981  10.078 -2.0658 -0.9026 -2.5668
  111OSM    H3G11505   5.294   6.154  10.017  1.7541 -1.0023 -1.0325
  111OSM    C4F11506   5.093   6.079  10.009  0.3249 -0.0824 -0.5510
  111OSM    H4F11507   5.018   6.037  10.080  0.3781 -3.0436 -2.0661
  111OSM    H4G11508   5.085   5.996   9.935 -0.5807  2.3743 -3.4523
  111OSM    C5F11509   5.035   6.211   9.948  0.4308  0.0608  0.0665
  111OSM    H5F11510   5.037   6.286  10.031 -1.1936  2.3955 -1.8543
  111OSM    H5G11511   4.929   6.199   9.916  1.2403  0.8581 -3.2247
  111OSM    C6F11512   5.116   6.266   9.828 -0.4913  0.3734  1.4649
  111OSM    H6F11513   5.222   6.233   9.829 -0.9005 -1.1120  0.1948
  111OSM    H6G11514   5.099   6.376   9.831  1.5380  0.7429  0.7174
  111OSM    C7F11515   5.053   6.216   9.688  0.2774  0.1766 -0.7656
  111OSM    H7F11516   4.944   6.231   9.704 -0.2710 -3.0692 -0.7985
  111OSM    H7G11517   5.065   6.106   9.685 -1.2373 -0.0457  0.2374
  111OSM    C8F11518   5.117   6.295   9.569  0.7824  0.2309 -0.2560
  111OSM    H8F11519   5.228   6.292   9.574  0.8573  1.2870 -0.9733
  111OSM    H8G11520   5.073   6.394   9.591 -0.2528 -0.0159 -1.1388
  111OSM    C9F11521   5.056   6.230   9.442  0.1656  0.7576  0.4367
  111OSM    H9F11522   4.951   6.256   9.419 -0.4815 -1.7268  0.2782
  111OSM   C10F11523   5.122   6.149   9.357  0.4846  0.1792  0.0925
  111OSM   H10F11524   5.069   6.113   9.268  0.4008  0.0395  0.1989
  111OSM   C11F11525   5.266   6.109   9.362  0.3925  0.5925  0.3899
  111OSM   H11F11526   5.284   5.999   9.368 -1.7485  0.2912  3.3244
  111OSM   H11G11527   5.320   6.152   9.449  1.8956  1.4434 -0.8978
  111OSM   C12F11528   5.345   6.156   9.242  1.0944 -0.2951 -0.1022
  111OSM   H12F11529   5.406   6.246   9.263  2.7080 -1.5446  0.7522
  111OSM   H12G11530   5.281   6.190   9.158 -0.0781 -2.3466 -0.1161
  111OSM   C13F11531   5.432   6.051   9.170  0.2179 -0.8996 -0.3515
  111OSM   H13F11532   5.373   5.995   9.094  1.1349  1.4164 -2.9416
  111OSM   H13G11533   5.481   5.988   9.248  0.0882  0.6542  1.0517
  111OSM   C14F11534   5.547   6.109   9.085  0.4300  0.1831 -0.5661
  111OSM   H14F11535   5.631   6.039   9.063 -0.9475 -0.9460 -2.6135
  111OSM   H14G11536   5.578   6.185   9.159 -2.7429 -1.1383  2.3588
  111OSM   C15F11537   5.509   6.178   8.958  0.3886 -0.3714 -0.1220
  111OSM   H15F11538   5.577   6.263   8.935  0.3860 -0.3986 -0.2310
  111OSM   H15G11539   5.402   6.207   8.966  0.0619 -1.6751  0.5799
  111OSM   C16F11540   5.506   6.078   8.840  0.7930 -0.6679  0.0018
  111OSM   H16F11541   5.432   5.998   8.861 -0.5274  0.4115 -0.3361
  111OSM   H16G11542   5.603   6.026   8.826  0.9993 -0.6094  1.1450
  111OSM   C17F11543   5.460   6.133   8.704 -0.2304 -0.6735 -1.0293
  111OSM   H17F11544   5.542   6.185   8.650 -0.0355  1.1725  0.8985
  111OSM   H17G11545   5.384   6.212   8.722  2.2361  1.8318 -1.0054
  111OSM   C18F11546   5.392   6.032   8.608 -0.6088 -0.4765 -0.3488
  111OSM   H18F11547   5.321   5.967   8.664 -0.6289  0.0011  0.2001
  111OSM   H18G11548   5.470   5.981   8.547 -1.0820  0.7282 -2.0221
  111OSM   H18H11549   5.328   6.089   8.539 -1.8348 -0.2439  0.9335
  112OSM      N11550   2.596   6.702  11.070  0.5150  0.3750  0.3544
  112OSM    C1511551   2.471   6.645  11.143 -1.1249  1.0656  0.1913
  112OSM   H15A11552   2.408   6.602  11.067  1.9013  1.7032 -2.9382
  112OSM   H15B11553   2.415   6.715  11.203 -1.7998  0.2131  0.5720
  112OSM   H15C11554   2.501   6.571  11.216 -3.1899 -0.5413 -0.5043
  112OSM    C1411555   2.533   6.775  10.956  0.0300 -0.4907 -0.1322
  112OSM   H14A11556   2.471   6.709  10.898 -0.4355 -0.2442  0.0853
  112OSM   H14B11557   2.609   6.818  10.893 -0.7853  1.4239  0.1514
  112OSM   H14C11558   2.472   6.855  10.994  0.4154  0.2224 -0.9896
  112OSM    C1311559   2.669   6.787  11.170  0.4931 -0.7286 -0.1397
  112OSM   H13A11560   2.607   6.866  11.209 -0.0460 -0.9720 -0.4998
  112OSM   H13B11561   2.754   6.829  11.116  0.5554  0.2635  0.6890
  112OSM   H13C11562   2.715   6.744  11.258  0.8521 -0.0667  0.0076
  112OSM    C1211563   2.687   6.594  11.022 -0.1258 -0.0898  0.1551
  112OSM   H12A11564   2.623   6.512  10.994  0.2832 -0.0952 -0.8306
  112OSM   H12B11565   2.737   6.545  11.104 -1.0984 -2.3988 -0.5491
  112OSM    C1111566   2.787   6.623  10.907  0.3627 -0.0649 -0.4338
  112OSM   H11A11567   2.735   6.629  10.809  1.1487  1.3142 -0.7985
  112OSM   H11B11568   2.845   6.530  10.894 -0.0120 -0.4793  0.6950
  112OSM      P11569   3.013   6.735  10.999 -0.3887  0.4230 -0.1014
  112OSM    O1311570   3.056   6.871  11.038 -0.0754  0.0261 -0.3374
  112OSM    O1411571   3.015   6.635  11.106  0.8670  0.0826 -0.5849
  112OSM    O1111572   3.105   6.675  10.890  0.5280  0.1799  0.3556
  112OSM    O1211573   2.867   6.746  10.939 -0.4055 -0.3268 -0.1317
  112OSM    C1S11574   3.086   6.698  10.750 -0.7284 -0.1283 -0.1695
  112OSM    H1S11575   3.122   6.802  10.735  4.2508 -1.4066  1.0265
  112OSM    H1T11576   2.980   6.700  10.717 -0.4995 -0.0345 -0.9303
  112OSM     NF11577   3.186   6.657  10.529  0.0602  0.3507 -0.1504
  112OSM    HNF11578   3.108   6.661  10.467  0.2805  0.6607 -0.4063
  112OSM    C2S11579   3.161   6.599  10.666 -0.2124 -0.0854  0.0069
  112OSM    H2S11580   3.254   6.581  10.725  0.2659 -2.0104 -1.2613
  112OSM    C3S11581   3.089   6.462  10.666  0.3347  0.8543 -0.7691
  112OSM    H3S11582   2.981   6.477  10.646  0.1754  1.9812  0.7893
  112OSM     O311583   3.099   6.393  10.786  0.6318  0.4844  0.2307
  112OSM    HO311584   3.146   6.458  10.839  0.8193  0.5572 -0.0177
  112OSM    C4S11585   3.153   6.373  10.573  0.5600 -0.2055  0.8550
  112OSM    H4S11586   3.257   6.345  10.592  1.0302  0.6165 -0.4250
  112OSM    C5S11587   3.092   6.313  10.470 -0.0991  0.1129 -0.3068
  112OSM    H5S11588   2.990   6.349  10.452 -0.6405 -0.4401  1.4206
  112OSM    C6S11589   3.144   6.219  10.370 -0.3249  0.0182  0.0765
  112OSM    H6S11590   3.085   6.125  10.366 -1.1070  0.4483  1.1907
  112OSM    H6T11591   3.251   6.199  10.394  0.2411  1.1958 -1.2363
  112OSM    C7S11592   3.148   6.273  10.224  0.9311 -0.3239 -0.4898
  112OSM    H7S11593   3.200   6.371  10.218  1.8074 -0.7692 -0.2736
  112OSM    H7T11594   3.045   6.304  10.196  0.1693 -3.7079 -1.9370
  112OSM    C8S11595   3.204   6.183  10.115 -0.0928  0.2580 -0.5672
  112OSM    H8S11596   3.144   6.089  10.115  1.3492 -0.6919  0.5044
  112OSM    H8T11597   3.307   6.147  10.134  0.3550  1.8659  0.1883
  112OSM    C9S11598   3.210   6.246   9.975 -1.2236  0.2394 -0.2989
  112OSM    H9S11599   3.253   6.347   9.987 -1.3167  0.3660 -1.0336
  112OSM    H9T11600   3.109   6.280   9.941 -0.5973  1.4101 -1.0586
  112OSM   C10S11601   3.285   6.157   9.875 -0.5666 -0.5230  0.3964
  112OSM   H10S11602   3.232   6.062   9.853 -2.7702  0.6581  0.3907
  112OSM   H10T11603   3.389   6.134   9.909 -0.7847 -1.8546  0.2399
  112OSM   C11S11604   3.308   6.230   9.740  0.0165 -0.0056 -0.8496
  112OSM   H11S11605   3.367   6.321   9.765 -0.0856 -0.5829  1.6904
  112OSM   H11T11606   3.214   6.266   9.693 -0.7930 -1.7019 -0.6030
  112OSM   C12S11607   3.372   6.151   9.629  0.2335 -0.7398 -0.4270
  112OSM   H12S11608   3.305   6.064   9.608 -1.3084 -0.0796  1.4902
  112OSM   H12T11609   3.464   6.112   9.678 -1.2096 -1.2014  2.0996
  112OSM   C13S11610   3.395   6.242   9.503 -0.3873  0.3245  0.0383
  112OSM   H13S11611   3.461   6.327   9.534 -0.0880  0.4437 -0.8932
  112OSM   H13T11612   3.298   6.288   9.476 -0.1871 -0.3206 -1.9222
  112OSM   C14S11613   3.452   6.164   9.385  0.4503  0.3923 -0.9393
  112OSM   H14S11614   3.369   6.107   9.338 -1.3716  2.0685  0.0589
  112OSM   H14T11615   3.540   6.104   9.415  0.1752 -0.1554 -1.2179
  112OSM   C15S11616   3.506   6.249   9.263 -0.4987  0.6569  0.3611
  112OSM   H15S11617   3.587   6.312   9.305 -0.3889 -0.8108  2.5784
  112OSM   H15T11618   3.419   6.294   9.211 -1.3564 -2.6615 -1.3719
  112OSM   C16S11619   3.578   6.165   9.158 -0.1928 -0.3412 -0.4186
  112OSM   H16S11620   3.504   6.088   9.130 -1.5724  0.7458  0.1239
  112OSM   H16T11621   3.677   6.130   9.194  1.1375  1.3907 -2.1513
  112OSM   C17S11622   3.595   6.250   9.027  0.0892  0.3045  0.0924
  112OSM   H17S11623   3.658   6.338   9.049 -0.1991  0.0758  2.0525
  112OSM   H17T11624   3.500   6.284   8.981  0.9033  1.1817 -0.9799
  112OSM   C18S11625   3.664   6.158   8.919 -0.1940  0.5699  0.4270
  112OSM   H18S11626   3.601   6.068   8.901  1.0259  0.0153 -1.3063
  112OSM   H18T11627   3.762   6.122   8.959 -0.0097 -0.9686 -1.2907
  112OSM   H18U11628   3.697   6.216   8.830  0.4314 -0.6047 -0.1212
  112OSM    C1F11629   3.291   6.727  10.495  0.2361  1.1070 -1.8823
  112OSM     OF11630   3.382   6.742  10.577 -0.3737 -0.0973 -0.5471
  112OSM    C2F11631   3.291   6.790  10.362  0.1935  0.8003  0.2818
  112OSM    H2F11632   3.395   6.808  10.326 -0.0255  0.6538 -0.4369
  112OSM    H2G11633   3.239   6.888  10.360 -0.6200  0.3875  0.7356
  112OSM    C3F11634   3.221   6.697  10.252 -0.1478  0.1276 -0.2043
  112OSM    H3F11635   3.113   6.687  10.276 -0.1869 -0.7142 -0.6661
  112OSM    H3G11636   3.274   6.599  10.251  2.3379  1.3732  0.7169
  112OSM    C4F11637   3.222   6.766  10.120 -0.7049 -0.3978 -0.1558
  112OSM    H4F11638   3.325   6.776  10.081 -0.5544 -1.3618 -0.0364
  112OSM    H4G11639   3.187   6.872  10.124 -0.3795 -0.3060  2.8017
  112OSM    C5F11640   3.148   6.692  10.004  0.6832  0.4002  0.1262
  112OSM    H5F11641   3.046   6.678  10.048  0.9703  0.8181  0.9509
  112OSM    H5G11642   3.195   6.593   9.987 -2.0500 -0.8303 -0.9225
  112OSM    C6F11643   3.142   6.770   9.868  0.6143  0.3142  0.0922
  112OSM    H6F11644   3.115   6.877   9.879  1.1887  0.3967  0.7425
  112OSM    H6G11645   3.072   6.716   9.800  2.9819 -1.3110 -1.2312
  112OSM    C7F11646   3.276   6.774   9.787 -0.2173 -0.2583 -0.4778
  112OSM    H7F11647   3.317   6.672   9.779  0.8849  0.1060  0.4219
  112OSM    H7G11648   3.360   6.828   9.835 -0.0379  1.1841 -2.2561
  112OSM    C8F11649   3.238   6.849   9.650  0.2159  0.1724  0.3415
  112OSM    H8F11650   3.218   6.955   9.673 -0.1867  0.7064 -2.1349
  112OSM    H8G11651   3.138   6.815   9.615 -0.0670  2.4074 -1.2489
  112OSM    C9F11652   3.338   6.848   9.533  0.5090  0.0696 -0.1292
  112OSM    H9F11653   3.445   6.846   9.557  0.8172  0.8247 -1.3619
  112OSM   C10F11654   3.317   6.851   9.399 -0.2248 -0.7939 -0.2019
  112OSM   H10F11655   3.402   6.861   9.330 -1.1125  0.6621 -1.1566
  112OSM   C11F11656   3.181   6.862   9.335 -0.8931  0.8136 -0.6874
  112OSM   H11F11657   3.098   6.882   9.405 -0.3291  2.3998 -0.4287
  112OSM   H11G11658   3.151   6.771   9.280 -0.7383  0.1020  0.3913
  112OSM   C12F11659   3.176   6.974   9.227  0.4361 -0.4861 -0.5477
  112OSM   H12F11660   3.208   7.069   9.275 -1.4505 -0.2269  0.3000
  112OSM   H12G11661   3.071   6.981   9.191 -0.0077 -3.4281 -0.0778
  112OSM   C13F11662   3.270   6.943   9.108  0.4007 -0.0014 -0.4220
  112OSM   H13F11663   3.368   6.920   9.156 -0.5147 -0.1800  1.4534
  112OSM   H13G11664   3.267   7.032   9.041 -1.5931 -0.7377 -1.3552
  112OSM   C14F11665   3.235   6.825   9.015  0.2368  1.0049  0.0890
  112OSM   H14F11666   3.242   6.728   9.069  2.0731  0.7959 -0.4567
  112OSM   H14G11667   3.306   6.813   8.930 -0.3762  1.8977 -0.5672
  112OSM   C15F11668   3.101   6.836   8.949 -0.2690 -0.1118  0.2337
  112OSM   H15F11669   3.099   6.924   8.882 -2.2628 -0.1132  0.2460
  112OSM   H15G11670   3.022   6.856   9.025 -0.2214 -1.0216  0.5408
  112OSM   C16F11671   3.077   6.721   8.847 -0.5269 -0.6776  0.3145
  112OSM   H16F11672   3.076   6.621   8.895  1.2573 -1.0771 -0.4023
  112OSM   H16G11673   3.163   6.722   8.776  0.9531  1.4756  1.9655
  112OSM   C17F11674   2.941   6.728   8.777 -0.0363 -0.2463  0.1061
  112OSM   H17F11675   2.950   6.783   8.681 -2.0395  0.6355  0.3901
  112OSM   H17G11676   2.865   6.789   8.828 -0.5068  0.5559 -1.4772
  112OSM   C18F11677   2.875   6.589   8.761  0.0278  0.3253 -0.6219
  112OSM   H18F11678   2.836   6.551   8.858  0.6831  0.0112 -0.4737
  112OSM   H18G11679   2.949   6.514   8.724 -0.2483  1.3205 -3.4077
  112OSM   H18H11680   2.795   6.595   8.684 -0.3433  1.9904 -0.1362
  113OSM      N11681   0.157   4.993  11.222  0.9084 -0.4264 -0.3222
  113OSM    C1511682   0.124   5.139  11.263 -0.0276 -0.1266  0.1761
  113OSM   H15A11683   0.018   5.159  11.262 -0.3031 -1.4290 -1.0385
  113OSM   H15B11684   0.174   5.212  11.201 -2.4221  0.3637 -1.3275
  113OSM   H15C11685   0.171   5.151  11.359  1.9076 -1.0070 -0.5996
  113OSM    C1411686   0.308   4.977  11.225  0.2194  0.2040  0.8744
  113OSM   H14A11687   0.357   5.000  11.319  4.1768 -1.0662 -0.6400
  113OSM   H14B11688   0.348   5.045  11.151 -2.1702  0.9188  0.1485
  113OSM   H14C11689   0.331   4.873  11.208 -1.6911 -0.4405  1.9415
  113OSM    C1311690   0.096   4.915  11.332  0.3684 -0.3550  0.8011
  113OSM   H13A11691  -0.012   4.920  11.334  0.3910  0.1041  1.1811
  113OSM   H13B11692   0.125   4.967  11.422  0.3572  2.9305 -0.9511
  113OSM   H13C11693   0.125   4.812  11.346 -2.6466 -1.0773  2.8343
  113OSM    C1211694   0.098   4.945  11.087 -0.6965  0.0989 -0.1343
  113OSM   H12A11695  -0.008   4.960  11.100 -0.4029  1.6397  0.8363
  113OSM   H12B11696   0.115   4.841  11.065  1.7387 -0.0016  1.7903
  113OSM    C1111697   0.149   5.019  10.961  0.0677  0.4674  0.2961
  113OSM   H11A11698   0.092   5.114  10.952 -0.2228  0.3779  1.1015
  113OSM   H11B11699   0.108   4.953  10.882  2.4054 -2.3669  1.2639
  113OSM      P11700   0.377   5.138  10.880 -0.3671 -0.3204  0.6601
  113OSM    O1311701   0.436   5.229  10.981  0.3788  0.0424 -0.3700
  113OSM    O1411702   0.468   5.078  10.780 -0.7282 -0.3963  0.1719
  113OSM    O1111703   0.261   5.220  10.805 -0.3854  0.4961  0.2346
  113OSM    O1211704   0.289   5.020  10.936 -0.0702  0.0183 -0.2228
  113OSM    C1S11705   0.287   5.290  10.680  0.5827  0.0869 -0.2691
  113OSM    H1S11706   0.379   5.260  10.625  0.6918 -0.7025  0.3285
  113OSM    H1T11707   0.292   5.401  10.690 -2.7722  0.5054 -1.9453
  113OSM     NF11708   0.199   5.337  10.464 -0.2911  0.5351  0.0588
  113OSM    HNF11709   0.165   5.428  10.440  1.7593  0.8196 -2.1135
  113OSM    C2S11710   0.163   5.275  10.589 -0.0759 -0.0265 -0.1500
  113OSM    H2S11711   0.145   5.166  10.584  1.8087 -0.5661  2.2874
  113OSM    C3S11712   0.035   5.339  10.654  0.5096  0.6168 -0.6979
  113OSM    H3S11713   0.060   5.441  10.691 -2.6948  1.3579 -0.2778
  113OSM     O311714   0.010   5.285  10.786  0.2100 -0.1365 -0.0744
  113OSM    HO311715   0.096   5.248  10.808 -0.1239 -0.7375  0.2568
  113OSM    C4S11716  -0.079   5.338  10.561  0.2450  0.3578 -0.2086
  113OSM    H4S11717  -0.109   5.441  10.536 -0.9504  0.3718  1.1355
  113OSM    C5S11718  -0.150   5.240  10.512  0.1716  0.2795 -0.1428
  113OSM    H5S11719  -0.130   5.135  10.540  0.6737  0.9868  2.3556
  113OSM    C6S11720  -0.270   5.247  10.421  0.0833 -0.6761  0.3362
  113OSM    H6S11721  -0.300   5.354  10.422  1.2640 -0.3323 -0.2963
  113OSM    H6T11722  -0.353   5.186  10.463 -1.3969  0.5440 -0.6561
  113OSM    C7S11723  -0.244   5.197  10.281  0.1818 -0.3803  0.3652
  113OSM    H7S11724  -0.338   5.200  10.222 -0.6218 -0.5655  1.5906
  113OSM    H7T11725  -0.210   5.091  10.270  2.1603  0.3252 -0.8246
  113OSM    C8S11726  -0.138   5.285  10.205  0.0249  0.4090 -0.9468
  113OSM    H8S11727  -0.035   5.251  10.230  0.1884  0.8418 -1.0351
  113OSM    H8T11728  -0.146   5.392  10.234 -1.3423  0.7778 -2.5375
  113OSM    C9S11729  -0.149   5.264  10.055  0.1906  0.1038 -0.0521
  113OSM    H9S11730  -0.253   5.294  10.029 -0.2892 -0.2822  1.3167
  113OSM    H9T11731  -0.159   5.156  10.028  0.1704  0.2597 -0.6846
  113OSM   C10S11732  -0.042   5.329   9.968  0.1719 -0.0959 -0.1797
  113OSM   H10S11733   0.061   5.289   9.985  0.3991  0.7251  0.4227
  113OSM   H10T11734  -0.042   5.437   9.994 -1.1441 -0.2209  0.4233
  113OSM   C11S11735  -0.090   5.315   9.820  0.2025  0.2427 -0.5443
  113OSM   H11S11736  -0.189   5.364   9.809 -0.3798 -1.2831 -2.8200
  113OSM   H11T11737  -0.105   5.207   9.798 -2.1592  0.4037 -0.0776
  113OSM   C12S11738   0.004   5.384   9.725 -0.1361 -0.5257  0.0809
  113OSM   H12S11739   0.091   5.315   9.719  1.2591  1.2084 -0.4113
  113OSM   H12T11740   0.031   5.486   9.760  0.4004  0.0317 -1.8360
  113OSM   C13S11741  -0.041   5.391   9.576  0.2462  0.8921  0.0896
  113OSM   H13S11742  -0.139   5.443   9.570 -0.0922  0.2065 -0.5094
  113OSM   H13T11743  -0.052   5.287   9.539 -0.0013  0.3227  1.6558
  113OSM   C14S11744   0.074   5.460   9.499  0.6926 -0.1388 -0.2013
  113OSM   H14S11745   0.167   5.399   9.509 -1.3809 -3.6136 -0.5042
  113OSM   H14T11746   0.092   5.559   9.546 -3.8403 -0.0760  1.9054
  113OSM   C15S11747   0.045   5.473   9.350 -0.1257  0.3051  0.2317
  113OSM   H15S11748  -0.044   5.538   9.335 -0.3619 -0.2733 -0.9942
  113OSM   H15T11749   0.008   5.376   9.310  0.8720  0.1877 -0.4460
  113OSM   C16S11750   0.172   5.526   9.274  0.5223  0.2679 -0.4734
  113OSM   H16S11751   0.258   5.469   9.316 -1.0594 -0.8837  1.3897
  113OSM   H16T11752   0.196   5.630   9.305 -0.3257  0.3123  0.0546
  113OSM   C17S11753   0.150   5.515   9.124  0.2798 -0.3502  0.4598
  113OSM   H17S11754   0.074   5.436   9.108 -0.5665  0.4605  0.3646
  113OSM   H17T11755   0.246   5.484   9.079  2.3722  4.5640  0.8497
  113OSM   C18S11756   0.110   5.654   9.064  0.9280 -0.3323  1.0749
  113OSM   H18S11757   0.197   5.722   9.071  1.8351 -1.0088 -2.2449
  113OSM   H18T11758   0.024   5.698   9.121  0.8296  0.3684  0.3961
  113OSM   H18U11759   0.090   5.647   8.955  0.5289  1.9603  0.9445
  113OSM    C1F11760   0.269   5.275  10.369  0.7591 -0.0555  0.3251
  113OSM     OF11761   0.297   5.157  10.384  0.2098  0.2861  0.2039
  113OSM    C2F11762   0.311   5.358  10.248 -0.2857  0.6201  1.0329
  113OSM    H2F11763   0.378   5.442  10.275 -0.0807  0.5884  0.6185
  113OSM    H2G11764   0.216   5.393  10.201 -0.9241 -1.8703  0.3219
  113OSM    C3F11765   0.384   5.266  10.141  0.7098 -0.3684  0.6254
  113OSM    H3F11766   0.299   5.208  10.098  0.8298 -0.3069  0.2977
  113OSM    H3G11767   0.464   5.204  10.188  0.6125 -1.3850 -0.4845
  113OSM    C4F11768   0.445   5.348  10.024  0.1200  0.0032 -0.4148
  113OSM    H4F11769   0.496   5.434  10.071 -1.5123  0.6553  0.2279
  113OSM    H4G11770   0.370   5.390   9.954  1.9250  0.7685 -1.9804
  113OSM    C5F11771   0.549   5.273   9.945 -0.9252  0.3375  0.4571
  113OSM    H5F11772   0.499   5.177   9.921 -1.8139  0.5187  1.4976
  113OSM    H5G11773   0.644   5.260  10.000 -0.5988 -1.1284 -0.3921
  113OSM    C6F11774   0.594   5.353   9.817 -0.2527  0.1888  0.2088
  113OSM    H6F11775   0.613   5.461   9.840  0.1709 -0.0463  0.9987
  113OSM    H6G11776   0.502   5.343   9.755 -0.4343 -0.7303  0.6129
  113OSM    C7F11777   0.711   5.298   9.742 -0.2254  0.1972  0.3765
  113OSM    H7F11778   0.800   5.287   9.808  0.5018 -0.2476 -0.6347
  113OSM    H7G11779   0.739   5.383   9.676  0.8090 -0.1737  0.3113
  113OSM    C8F11780   0.677   5.163   9.654 -0.3923  0.1321 -0.0655
  113OSM    H8F11781   0.752   5.151   9.573  0.2840  0.7013  0.4653
  113OSM    H8G11782   0.580   5.185   9.604 -0.3326 -1.3630 -0.8863
  113OSM    C9F11783   0.675   5.029   9.736 -0.1986 -0.1357 -0.8010
  113OSM    H9F11784   0.669   5.047   9.845  0.5548  1.2595 -0.9672
  113OSM   C10F11785   0.689   4.909   9.684 -0.2332  0.2298  0.2958
  113OSM   H10F11786   0.700   4.825   9.755 -0.3060  1.2848  1.5763
  113OSM   C11F11787   0.701   4.866   9.536 -0.1696 -0.3423  0.3924
  113OSM   H11F11788   0.647   4.930   9.463  0.0835 -0.5068  0.0611
  113OSM   H11G11789   0.674   4.760   9.518 -0.4817 -0.7598  2.9184
  113OSM   C12F11790   0.846   4.876   9.485 -0.4712  0.4481  0.4786
  113OSM   H12F11791   0.911   4.847   9.570  1.0684  2.2252 -0.0212
  113OSM   H12G11792   0.864   4.985   9.472  1.6979 -0.0865 -1.5969
  113OSM   C13F11793   0.872   4.787   9.363 -0.4238 -0.0682  0.1568
  113OSM   H13F11794   0.808   4.804   9.274  1.8510 -1.2591 -1.8207
  113OSM   H13G11795   0.850   4.683   9.395 -0.7417 -0.5179 -1.4343
  113OSM   C14F11796   1.010   4.787   9.304 -0.8368  0.1109  0.6087
  113OSM   H14F11797   1.088   4.745   9.370 -0.2925 -0.2634 -0.2504
  113OSM   H14G11798   1.041   4.894   9.293  0.4865 -0.1389  1.6973
  113OSM   C15F11799   1.023   4.712   9.177  0.4076  0.2240 -0.1450
  113OSM   H15F11800   0.986   4.610   9.201 -0.7566  0.2420 -1.7778
  113OSM   H15G11801   1.130   4.714   9.146  0.5563  0.9820  0.3659
  113OSM   C16F11802   0.953   4.775   9.053 -0.0820 -0.2232  0.3777
  113OSM   H16F11803   0.996   4.874   9.026  1.3450 -0.4288  1.7720
  113OSM   H16G11804   0.844   4.792   9.070  0.2254  1.4181  0.8721
  113OSM   C17F11805   0.971   4.684   8.924  0.7003  0.5933 -0.5521
  113OSM   H17F11806   0.948   4.577   8.944 -3.3316  1.1974 -1.0121
  113OSM   H17G11807   1.075   4.690   8.885 -0.3070 -0.2494 -3.7254
  113OSM   C18F11808   0.876   4.721   8.823 -0.1389  0.0117  0.4824
  113OSM   H18F11809   0.865   4.640   8.747  1.9579 -1.4906  1.6863
  113OSM   H18G11810   0.892   4.818   8.772  1.5888  0.3036  1.5260
  113OSM   H18H11811   0.777   4.735   8.873  0.5525  1.8975  1.4108
  114OSM      N11812   2.941   2.653  10.884 -0.1042 -0.3715 -0.1413
  114OSM    C1511813   3.091   2.616  10.874 -0.1130 -0.0888 -0.3639
  114OSM   H15A11814   3.109   2.511  10.856 -2.0028 -0.5091 -0.0231
  114OSM   H15B11815   3.156   2.652  10.952 -0.5450  1.8277 -0.8353
  114OSM   H15C11816   3.126   2.660  10.782  1.4788 -0.6569 -0.0580
  114OSM    C1411817   2.922   2.804  10.893 -0.7618 -0.7355  0.1643
  114OSM   H14A11818   2.814   2.811  10.899 -0.7217 -0.1178  0.2946
  114OSM   H14B11819   2.960   2.858  10.808 -1.6371  0.5439  0.5361
  114OSM   H14C11820   2.965   2.848  10.982 -1.1924  0.0636 -0.0148
  114OSM    C1311821   2.866   2.601  10.763  0.1871  0.0672  0.1702
  114OSM   H13A11822   2.884   2.662  10.676 -2.6315  0.9371  0.1191
  114OSM   H13B11823   2.761   2.613  10.785  0.3196  0.1024  0.8145
  114OSM   H13C11824   2.871   2.494  10.747  1.1626 -0.2621  2.2834
  114OSM    C1211825   2.896   2.577  10.999 -0.3481  0.2087  0.1942
  114OSM   H12A11826   2.974   2.573  11.073 -0.3949 -0.5779  0.2093
  114OSM   H12B11827   2.881   2.474  10.968 -0.3909  0.6472 -1.3206
  114OSM    C1111828   2.771   2.638  11.071 -0.3191 -0.7821 -0.1492
  114OSM   H11A11829   2.794   2.742  11.103  0.7003 -1.8228  2.9528
  114OSM   H11B11830   2.758   2.588  11.170  1.7857 -0.4427  0.3660
  114OSM      P11831   2.590   2.486  10.977 -0.1974 -0.0647  0.1092
  114OSM    O1311832   2.692   2.383  10.957 -0.3342 -0.4465  0.5783
  114OSM    O1411833   2.497   2.461  11.092 -0.4281  0.5080  0.5101
  114OSM    O1111834   2.500   2.514  10.840 -0.2699 -0.0020  0.0463
  114OSM    O1211835   2.656   2.632  10.990  0.4691 -0.0355 -0.0281
  114OSM    C1S11836   2.493   2.409  10.744  0.1573  0.8140  0.2785
  114OSM    H1S11837   2.436   2.323  10.786  1.4046  0.4533  1.3131
  114OSM    H1T11838   2.591   2.369  10.710 -0.3216 -1.7392  1.6018
  114OSM     NF11839   2.406   2.375  10.513 -0.8370  0.4778  0.6172
  114OSM    HNF11840   2.490   2.352  10.465 -1.1790 -0.0412  0.2618
  114OSM    C2S11841   2.425   2.476  10.615  0.2371 -0.6232 -0.9607
  114OSM    H2S11842   2.325   2.521  10.632  1.5374  1.5037  1.9162
  114OSM    C3S11843   2.514   2.594  10.561 -0.7673  0.0816 -0.2196
  114OSM    H3S11844   2.618   2.558  10.549 -0.3311  1.0213  0.5858
  114OSM     O311845   2.540   2.703  10.651 -0.0363  0.3968 -0.0525
  114OSM    HO311846   2.525   2.666  10.739 -1.5706 -0.4553 -0.6337
  114OSM    C4S11847   2.447   2.650  10.444 -0.1389  0.7194 -0.0259
  114OSM    H4S11848   2.341   2.675  10.454  0.0201  0.7172  1.8790
  114OSM    C5S11849   2.520   2.690  10.342  0.4610 -0.2080  0.2017
  114OSM    H5S11850   2.629   2.694  10.358  0.6657  0.7459 -1.2693
  114OSM    C6S11851   2.480   2.754  10.214  0.6817 -0.8562  0.3880
  114OSM    H6S11852   2.515   2.689  10.131  1.5799  0.4424 -0.3045
  114OSM    H6T11853   2.531   2.852  10.201  0.3647 -0.4680  1.8963
  114OSM    C7S11854   2.333   2.795  10.215 -0.0440 -0.6790  0.2522
  114OSM    H7S11855   2.311   2.862  10.300 -1.2356  1.2039 -1.4575
  114OSM    H7T11856   2.269   2.703  10.218 -1.8750  0.5626  1.9709
  114OSM    C8S11857   2.297   2.878  10.089  0.3212 -0.2774  1.2364
  114OSM    H8S11858   2.348   2.977  10.089  1.3571 -0.7454 -0.5673
  114OSM    H8T11859   2.189   2.905  10.090  0.2460 -0.5152  0.4711
  114OSM    C9S11860   2.328   2.816   9.951  0.1800 -0.3199 -0.6586
  114OSM    H9S11861   2.258   2.731   9.937 -1.8265  1.2645 -0.6814
  114OSM    H9T11862   2.430   2.773   9.942  0.3637 -0.0650  0.1186
  114OSM   C10S11863   2.310   2.919   9.842 -0.7053 -0.5802 -1.1639
  114OSM   H10S11864   2.389   2.997   9.856  0.9243 -2.4376  0.5371
  114OSM   H10T11865   2.209   2.961   9.857  0.4006  3.1924 -2.8871
  114OSM   C11S11866   2.313   2.860   9.700  0.1924  0.4508  0.0782
  114OSM   H11S11867   2.407   2.804   9.683  0.8344  1.9085 -1.4374
  114OSM   H11T11868   2.310   2.941   9.624 -1.4105  1.3069  0.9909
  114OSM   C12S11869   2.189   2.762   9.672 -0.9090 -0.0979 -0.0662
  114OSM   H12S11870   2.099   2.825   9.688  0.3113  1.5654  0.5488
  114OSM   H12T11871   2.182   2.669   9.733  1.4653 -1.2913 -1.4405
  114OSM   C13S11872   2.188   2.710   9.527  0.3236  0.1058 -0.2629
  114OSM   H13S11873   2.099   2.644   9.521 -1.7746  2.6477  1.1144
  114OSM   H13T11874   2.281   2.652   9.510  0.4857  0.4161 -0.4468
  114OSM   C14S11875   2.176   2.823   9.422 -0.2681 -0.2733  0.0696
  114OSM   H14S11876   2.274   2.875   9.423 -0.7060  0.5702  0.2091
  114OSM   H14T11877   2.105   2.903   9.453 -1.7453 -1.5582  0.1175
  114OSM   C15S11878   2.137   2.779   9.281  0.2015  1.0119  0.3865
  114OSM   H15S11879   2.027   2.777   9.270  0.2893  1.4839 -0.6138
  114OSM   H15T11880   2.187   2.683   9.257 -0.2238  0.5880  1.1674
  114OSM   C16S11881   2.186   2.878   9.176 -0.2043 -1.1965 -0.0833
  114OSM   H16S11882   2.297   2.881   9.182 -0.2026 -0.7643 -0.3121
  114OSM   H16T11883   2.150   2.980   9.202 -1.3204 -1.5851 -0.0283
  114OSM   C17S11884   2.150   2.840   9.033  0.2797  1.2199  0.6485
  114OSM   H17S11885   2.039   2.828   9.025 -0.0229  1.8146  3.2016
  114OSM   H17T11886   2.186   2.736   9.019  1.6072  1.6603  0.7223
  114OSM   C18S11887   2.205   2.923   8.918  0.6115 -0.2583 -0.1913
  114OSM   H18S11888   2.194   3.033   8.926  0.5395 -0.1027 -1.9870
  114OSM   H18T11889   2.143   2.900   8.828 -1.4260 -0.1796  1.1349
  114OSM   H18U11890   2.308   2.895   8.885  0.1083  0.2261 -2.3474
  114OSM    C1F11891   2.308   2.288  10.530 -0.3007 -0.2038 -0.5592
  114OSM     OF11892   2.215   2.304  10.608 -0.0982 -0.4079  0.0923
  114OSM    C2F11893   2.317   2.166  10.450  0.9656 -0.2917  0.2064
  114OSM    H2F11894   2.390   2.091  10.488 -0.5646 -1.9880 -0.0770
  114OSM    H2G11895   2.357   2.195  10.350 -2.3611 -0.0975 -1.1821
  114OSM    C3F11896   2.187   2.087  10.436  0.1634  0.2071  0.0614
  114OSM    H3F11897   2.111   2.158  10.395  1.1530  0.7295 -0.9213
  114OSM    H3G11898   2.151   2.050  10.534 -4.0197 -1.1779 -1.7135
  114OSM    C4F11899   2.193   1.967  10.338  0.0308  1.0587  0.3343
  114OSM    H4F11900   2.295   1.924  10.345 -1.0149 -1.3626  2.0091
  114OSM    H4G11901   2.175   2.005  10.235 -0.7781 -1.8367 -0.6858
  114OSM    C5F11902   2.092   1.853  10.365 -0.1301  0.0333 -0.4460
  114OSM    H5F11903   1.992   1.894  10.340  0.0312  0.1606 -0.9015
  114OSM    H5G11904   2.104   1.827  10.472  3.5995  3.0790  0.0725
  114OSM    C6F11905   2.128   1.745  10.266  0.3099 -0.4093 -0.0584
  114OSM    H6F11906   2.214   1.677  10.283  0.2042 -0.6205 -0.3728
  114OSM    H6G11907   2.130   1.791  10.165  0.4046  0.1641  0.2027
  114OSM    C7F11908   2.011   1.633  10.278  0.1269 -0.2682  0.1673
  114OSM    H7F11909   1.911   1.681  10.285 -0.3485 -1.3321  0.9584
  114OSM    H7G11910   2.027   1.567  10.366 -0.1765 -0.7413 -0.1285
  114OSM    C8F11911   2.017   1.537  10.160  0.5153  0.4084 -0.4525
  114OSM    H8F11912   1.952   1.451  10.185 -1.1158  1.0609 -2.2001
  114OSM    H8G11913   2.120   1.495  10.170 -0.8714 -2.6716  2.8051
  114OSM    C9F11914   1.978   1.614  10.039  0.2428 -0.1080  0.4177
  114OSM    H9F11915   2.016   1.716  10.022  0.0309 -0.2992 -1.4953
  114OSM   C10F11916   1.905   1.569   9.933  0.4168  0.9437  0.2852
  114OSM   H10F11917   1.865   1.631   9.852 -1.2233  0.5664  0.7613
  114OSM   C11F11918   1.863   1.426   9.911 -0.2519 -0.2992 -0.2023
  114OSM   H11F11919   1.896   1.370  10.002  0.6325 -0.3399 -0.5399
  114OSM   H11G11920   1.908   1.385   9.818 -0.9029  0.4021 -0.8423
  114OSM   C12F11921   1.708   1.413   9.897 -0.3576 -0.6765  0.2260
  114OSM   H12F11922   1.678   1.483   9.816  0.6651 -0.5624 -0.0777
  114OSM   H12G11923   1.660   1.451   9.989  0.3902  3.0303 -0.7647
  114OSM   C13F11924   1.664   1.274   9.869 -1.0210 -0.5111 -0.8148
  114OSM   H13F11925   1.730   1.209   9.929 -0.0704  1.4638  0.3695
  114OSM   H13G11926   1.687   1.256   9.762 -0.5346  0.7614 -0.9428
  114OSM   C14F11927   1.517   1.261   9.877 -0.1117  0.4181 -0.3725
  114OSM   H14F11928   1.488   1.298   9.978  0.7786  2.3940 -0.7931
  114OSM   H14G11929   1.482   1.157   9.862 -0.0008  0.5022 -1.2511
  114OSM   C15F11930   1.430   1.332   9.775  0.3679 -0.0705 -0.2257
  114OSM   H15F11931   1.424   1.443   9.783 -1.1262 -0.0378 -1.3030
  114OSM   H15G11932   1.325   1.297   9.782  0.0438  0.3716 -2.2763
  114OSM   C16F11933   1.472   1.301   9.632 -0.1565 -0.6849  0.4712
  114OSM   H16F11934   1.461   1.194   9.601 -1.6841 -0.4379  0.0661
  114OSM   H16G11935   1.574   1.340   9.615 -1.3808  2.0573 -1.1796
  114OSM   C17F11936   1.388   1.372   9.527 -0.0530 -0.1212  0.0478
  114OSM   H17F11937   1.359   1.475   9.559 -1.2132 -0.9033  1.6378
  114OSM   H17G11938   1.293   1.314   9.517 -0.3523  0.3785 -0.0434
  114OSM   C18F11939   1.457   1.375   9.394 -0.4403 -0.0890  0.0868
  114OSM   H18F11940   1.394   1.395   9.304  0.4301  0.5849 -0.3858
  114OSM   H18G11941   1.512   1.280   9.376 -1.2668 -0.4400 -0.7094
  114OSM   H18H11942   1.541   1.447   9.386 -0.5843  0.1506  0.7127
  115OSM      N11943   2.804   1.329   5.827 -0.4233 -0.3150 -0.3330
  115OSM    C1511944   2.782   1.275   5.692 -0.1013  0.0026  0.4010
  115OSM   H15A11945   2.769   1.168   5.687  1.4291 -0.1980  0.4505
  115OSM   H15B11946   2.865   1.308   5.631  0.0701  0.2109  0.7459
  115OSM   H15C11947   2.685   1.313   5.662 -0.8682  0.0035  2.6610
  115OSM    C1411948   2.924   1.258   5.877 -0.5853 -0.4210  0.7687
  115OSM   H14A11949   2.907   1.151   5.885  0.7341 -0.7770 -0.7525
  115OSM   H14B11950   2.949   1.292   5.976  0.3187  0.4517  0.2541
  115OSM   H14C11951   2.997   1.276   5.800 -0.2599  2.1960  1.5993
  115OSM    C1311952   2.813   1.484   5.820  0.4022  0.4038 -0.1382
  115OSM   H13A11953   2.833   1.522   5.919  0.4553 -1.0774  0.4454
  115OSM   H13B11954   2.716   1.515   5.781  0.2545  0.2212  0.0842
  115OSM   H13C11955   2.885   1.515   5.746 -1.0156  0.8363 -1.4037
  115OSM    C1211956   2.691   1.289   5.915  0.1806 -0.6004  0.2608
  115OSM   H12A11957   2.683   1.181   5.918 -0.2910 -0.5624  0.4784
  115OSM   H12B11958   2.605   1.331   5.865  1.5310 -0.0246 -1.6545
  115OSM    C1111959   2.699   1.339   6.057  0.3964  0.8050 -1.2710
  115OSM   H11A11960   2.800   1.318   6.099 -1.1388 -0.1476  2.4015
  115OSM   H11B11961   2.636   1.275   6.122  0.3773  2.0761  0.0449
  115OSM      P11962   2.514   1.528   6.091 -0.3016  0.2134 -0.1179
  115OSM    O1311963   2.515   1.675   6.123 -0.2081 -0.0119 -0.1263
  115OSM    O1411964   2.431   1.478   5.984  0.3100  0.0489  0.2358
  115OSM    O1111965   2.471   1.448   6.224 -0.5586 -0.3262 -0.2645
  115OSM    O1211966   2.665   1.484   6.064 -0.1401 -0.0171  0.0711
  115OSM    C1S11967   2.574   1.453   6.332  0.3621  0.5141 -0.5441
  115OSM    H1S11968   2.627   1.550   6.343  0.6520  0.2333  0.6241
  115OSM    H1T11969   2.659   1.381   6.325  1.5501  1.5019  2.1637
  115OSM     NF11970   2.622   1.432   6.564 -0.6424 -0.7213  0.8894
  115OSM    HNF11971   2.705   1.379   6.547 -0.2422  0.4108 -0.9093
  115OSM    C2S11972   2.519   1.403   6.472  0.3659 -0.1385  0.1099
  115OSM    H2S11973   2.431   1.469   6.489  0.9779  1.7206 -3.0263
  115OSM    C3S11974   2.470   1.255   6.470  0.4662 -0.3109  0.4827
  115OSM    H3S11975   2.551   1.190   6.429  1.2025  0.6538  0.3762
  115OSM     O311976   2.364   1.229   6.376 -0.0936 -0.6181 -0.2459
  115OSM    HO311977   2.367   1.302   6.314 -1.6977 -2.2096 -2.3389
  115OSM    C4S11978   2.418   1.210   6.602  0.6442 -0.5630  0.0791
  115OSM    H4S11979   2.334   1.271   6.638  0.9906 -1.1942  2.0361
  115OSM    C5S11980   2.451   1.107   6.672 -0.0466 -0.3835  0.6653
  115OSM    H5S11981   2.520   1.036   6.625  1.5289  0.5882  1.4377
  115OSM    C6S11982   2.390   1.065   6.806  0.3253  0.6700 -0.2338
  115OSM    H6S11983   2.481   1.025   6.858  0.4022  1.4773  0.2736
  115OSM    H6T11984   2.318   0.983   6.785  0.2964  0.5199  0.4265
  115OSM    C7S11985   2.320   1.186   6.880 -0.0233  0.5336  0.0412
  115OSM    H7S11986   2.233   1.224   6.823 -0.0017  0.7799  0.1690
  115OSM    H7T11987   2.395   1.268   6.890  1.3510 -0.8318  1.5080
  115OSM    C8S11988   2.271   1.160   7.019 -0.1004  0.4643 -0.3427
  115OSM    H8S11989   2.191   1.084   7.013 -0.4685  0.7694  0.4956
  115OSM    H8T11990   2.220   1.246   7.068 -1.2918 -1.0318  1.1350
  115OSM    C9S11991   2.387   1.114   7.115  0.7023  0.3656  0.3019
  115OSM    H9S11992   2.468   1.191   7.115  0.0455  1.0731 -0.4109
  115OSM    H9T11993   2.428   1.020   7.075 -1.4067 -0.5253  0.1162
  115OSM   C10S11994   2.346   1.071   7.255 -1.0592  0.1050 -0.1128
  115OSM   H10S11995   2.272   0.989   7.249  1.6296 -2.4058 -2.5817
  115OSM   H10T11996   2.306   1.159   7.310 -0.0242  0.6302 -0.1787
  115OSM   C11S11997   2.474   1.010   7.328  0.5366  0.0124  0.2993
  115OSM   H11S11998   2.532   1.097   7.366 -1.6416  1.3482  0.7022
  115OSM   H11T11999   2.535   0.944   7.263 -0.0025  1.0387 -1.2926
  115OSM   C12S12000   2.432   0.922   7.450  0.1335 -0.7765  0.2969
  115OSM   H12S12001   2.525   0.886   7.500  1.1086 -0.7735 -1.4528
  115OSM   H12T12002   2.386   0.828   7.412  1.0538 -0.6708 -1.1122
  115OSM   C13S12003   2.331   0.990   7.542  0.5307 -0.9662 -0.2618
  115OSM   H13S12004   2.224   1.004   7.516 -0.5064  0.1732  4.0105
  115OSM   H13T12005   2.361   1.096   7.554 -0.2997 -0.8207  0.6771
  115OSM   C14S12006   2.324   0.914   7.683  1.0850  0.6155 -0.6786
  115OSM   H14S12007   2.425   0.913   7.728  0.9033 -0.6091 -0.2644
  115OSM   H14T12008   2.298   0.807   7.670 -0.6110  0.9009  0.0041
  115OSM   C15S12009   2.233   0.999   7.780 -0.3084  0.5632  0.2161
  115OSM   H15S12010   2.133   1.009   7.732  0.4887  0.2039 -1.6500
  115OSM   H15T12011   2.265   1.105   7.791 -0.0396  0.4893  0.1690
  115OSM   C16S12012   2.218   0.936   7.915 -1.1960 -0.2935 -0.9676
  115OSM   H16S12013   2.315   0.886   7.937 -0.0278  1.3799 -2.1398
  115OSM   H16T12014   2.150   0.848   7.910  0.1131 -1.2608 -3.0310
  115OSM   C17S12015   2.180   1.025   8.033  0.0595 -0.3801  0.3119
  115OSM   H17S12016   2.082   1.074   8.015 -0.2490 -1.5322 -1.3394
  115OSM   H17T12017   2.256   1.103   8.055 -0.7648  0.2923  0.8769
  115OSM   C18S12018   2.153   0.935   8.155 -0.5740 -0.6750  0.0814
  115OSM   H18S12019   2.112   1.005   8.231  0.4456  0.1686 -0.1232
  115OSM   H18T12020   2.245   0.880   8.184  1.1932 -0.2247 -3.8991
  115OSM   H18U12021   2.070   0.864   8.136 -0.5872 -0.1331 -2.2196
  115OSM    C1F12022   2.633   1.547   6.632  0.2047 -0.3664  0.1152
  115OSM     OF12023   2.551   1.637   6.632  0.0942  0.0721  0.1550
  115OSM    C2F12024   2.770   1.563   6.683 -0.9523 -0.5338 -0.5463
  115OSM    H2F12025   2.783   1.672   6.701  1.3174 -0.1599 -3.5536
  115OSM    H2G12026   2.841   1.546   6.600 -0.4101  0.8131 -0.3803
  115OSM    C3F12027   2.811   1.465   6.797  0.3219  0.1278 -0.4288
  115OSM    H3F12028   2.921   1.465   6.812  0.0160  0.8788  2.3996
  115OSM    H3G12029   2.788   1.361   6.766 -0.5882  0.4508 -0.8674
  115OSM    C4F12030   2.746   1.491   6.935  0.3011  0.1354  0.1858
  115OSM    H4F12031   2.638   1.507   6.917 -0.1103 -1.8915  0.6357
  115OSM    H4G12032   2.787   1.583   6.983  0.8895 -1.1865  2.3790
  115OSM    C5F12033   2.780   1.385   7.035 -0.2623  0.1182  0.0412
  115OSM    H5F12034   2.884   1.346   7.026 -1.2769 -3.4153  1.5856
  115OSM    H5G12035   2.716   1.296   7.015 -0.9037  0.6538 -0.3556
  115OSM    C6F12036   2.746   1.421   7.184  0.2883 -0.1475  0.0547
  115OSM    H6F12037   2.639   1.449   7.192  0.4273  0.3712  0.1448
  115OSM    H6G12038   2.811   1.507   7.210 -1.4549  2.1187 -2.4850
  115OSM    C7F12039   2.766   1.301   7.280  0.0398  0.0684 -0.0989
  115OSM    H7F12040   2.873   1.274   7.283 -0.0845 -0.3264  1.1668
  115OSM    H7G12041   2.702   1.220   7.238  0.3074 -1.3997  2.1731
  115OSM    C8F12042   2.724   1.342   7.420  0.0973  0.4831 -0.0136
  115OSM    H8F12043   2.788   1.425   7.456 -1.3340  1.2342  0.9272
  115OSM    H8G12044   2.732   1.259   7.493  1.8458 -0.5311 -1.2876
  115OSM    C9F12045   2.585   1.381   7.429  0.7951  0.0026 -0.0755
  115OSM    H9F12046   2.528   1.378   7.335  0.2467 -0.1649  0.2600
  115OSM   C10F12047   2.514   1.421   7.545  0.3693  0.4627 -0.4054
  115OSM   H10F12048   2.410   1.457   7.547 -1.2220 -3.7198  0.7292
  115OSM   C11F12049   2.579   1.425   7.683  0.6046  0.0418  1.1023
  115OSM   H11F12050   2.635   1.519   7.702  1.7621 -0.2134 -0.8077
  115OSM   H11G12051   2.653   1.344   7.700  1.3036  1.1240  3.7431
  115OSM   C12F12052   2.473   1.409   7.792  0.0632 -0.5303  0.1926
  115OSM   H12F12053   2.424   1.311   7.776  0.5107 -0.7173 -0.0533
  115OSM   H12G12054   2.401   1.493   7.785  1.2359  0.4363 -0.7902
  115OSM   C13F12055   2.530   1.393   7.936 -0.2441  0.2594  0.6207
  115OSM   H13F12056   2.573   1.291   7.952 -1.3840 -0.0819  1.6462
  115OSM   H13G12057   2.447   1.382   8.009 -3.0648  0.8064 -2.2711
  115OSM   C14F12058   2.626   1.502   7.977 -0.1689 -0.2533 -0.1544
  115OSM   H14F12059   2.598   1.605   7.946 -0.1664 -0.3131 -0.3571
  115OSM   H14G12060   2.720   1.476   7.922 -0.0466  0.5341 -0.3244
  115OSM   C15F12061   2.636   1.516   8.131 -0.1314 -0.4029  0.0615
  115OSM   H15F12062   2.745   1.534   8.144  0.3282 -2.3864 -0.7814
  115OSM   H15G12063   2.612   1.419   8.179 -0.0676 -0.5673 -0.2365
  115OSM   C16F12064   2.555   1.635   8.173  0.7705 -0.1300  0.3455
  115OSM   H16F12065   2.455   1.628   8.124 -0.5540 -1.5116  3.0363
  115OSM   H16G12066   2.606   1.729   8.140 -1.6942  0.4318 -2.2849
  115OSM   C17F12067   2.547   1.657   8.328 -0.5914  0.8055  0.2756
  115OSM   H17F12068   2.487   1.576   8.376 -1.7887  1.6689  0.2765
  115OSM   H17G12069   2.485   1.746   8.351 -0.2084  1.2704 -0.4532
  115OSM   C18F12070   2.683   1.670   8.395  0.6411 -0.2611  0.3349
  115OSM   H18F12071   2.748   1.751   8.356  0.2655  1.2802  2.6348
  115OSM   H18G12072   2.733   1.573   8.417 -2.0197 -1.5029  1.3643
  115OSM   H18H12073   2.660   1.714   8.495 -1.1803  2.4880 -1.1611
  116OSM      N12074   1.538   1.769   5.812 -0.3798  0.0868 -0.2005
  116OSM    C1512075   1.660   1.850   5.805 -0.5147  0.8271  0.0483
  116OSM   H15A12076   1.723   1.818   5.724  0.5195  0.5503  0.9350
  116OSM   H15B12077   1.719   1.834   5.895  0.8669  0.6285 -0.8623
  116OSM   H15C12078   1.643   1.957   5.800 -0.4678  1.0270  2.5393
  116OSM    C1412079   1.470   1.778   5.679 -0.0658 -0.5185  0.8564
  116OSM   H14A12080   1.441   1.882   5.673 -0.8033 -0.7887 -1.7193
  116OSM   H14B12081   1.381   1.717   5.677 -0.8214  0.5526 -0.4229
  116OSM   H14C12082   1.540   1.750   5.601  1.3531  0.3341  1.7584
  116OSM    C1312083   1.573   1.628   5.830 -0.2346  0.5482 -0.3254
  116OSM   H13A12084   1.610   1.608   5.929 -3.0816  1.1002  0.9491
  116OSM   H13B12085   1.638   1.590   5.753  0.1307  0.8090 -0.1488
  116OSM   H13C12086   1.490   1.559   5.821  0.7163 -0.5153 -1.1348
  116OSM    C1212087   1.446   1.817   5.923 -0.1613 -0.0012  0.0508
  116OSM   H12A12088   1.352   1.765   5.921 -0.9420  1.3085  1.2702
  116OSM   H12B12089   1.412   1.915   5.895  0.4015 -0.1836 -1.3539
  116OSM    C1112090   1.518   1.810   6.057 -0.0566  0.2119 -0.6144
  116OSM   H11A12091   1.598   1.888   6.059 -0.8273  1.0462 -1.4581
  116OSM   H11B12092   1.562   1.709   6.066 -1.0154 -0.1335  0.6591
  116OSM      P12093   1.352   1.975   6.196 -0.6040  0.3634  0.2453
  116OSM    O1312094   1.430   2.086   6.134 -0.4764  0.2020 -0.3765
  116OSM    O1412095   1.212   1.962   6.154 -0.1535  0.0596  0.4808
  116OSM    O1112096   1.342   1.990   6.345 -0.4596  0.0107  0.0120
  116OSM    O1212097   1.426   1.835   6.167 -0.1517 -0.0084  0.4169
  116OSM    C1S12098   1.234   1.948   6.429  0.0607  0.4255  0.1003
  116OSM    H1S12099   1.214   1.842   6.403  1.4962  0.7274 -2.6147
  116OSM    H1T12100   1.142   2.006   6.409 -0.4703 -0.3828  0.1710
  116OSM     NF12101   1.159   1.890   6.672  0.5665 -0.0691  0.0974
  116OSM    HNF12102   1.111   1.944   6.742 -1.1244 -0.6654 -0.5541
  116OSM    C2S12103   1.260   1.955   6.582 -0.5231  0.6537 -0.4234
  116OSM    H2S12104   1.358   1.909   6.604  0.3614  1.8873 -1.6051
  116OSM    C3S12105   1.280   2.102   6.619 -0.4001 -0.5988  0.9006
  116OSM    H3S12106   1.186   2.161   6.612  0.9831  1.5474 -1.1417
  116OSM     O312107   1.366   2.180   6.529 -0.4438 -0.0832  0.3322
  116OSM    HO312108   1.387   2.110   6.467  3.0464  1.0588  0.0141
  116OSM    C4S12109   1.334   2.116   6.757 -0.8462 -0.1704 -0.4903
  116OSM    H4S12110   1.443   2.106   6.764 -0.8446  0.0162 -0.2665
  116OSM    C5S12111   1.260   2.172   6.862 -0.2059  0.2836  0.1061
  116OSM    H5S12112   1.160   2.212   6.843 -0.6988 -0.3529  1.2782
  116OSM    C6S12113   1.318   2.184   6.993 -0.1191 -0.5308  0.6990
  116OSM    H6S12114   1.261   2.259   7.052 -0.1279  1.4677 -1.6912
  116OSM    H6T12115   1.413   2.240   6.977 -0.1382 -0.7359 -0.1665
  116OSM    C7S12116   1.354   2.045   7.056  0.3578 -0.5715 -0.0631
  116OSM    H7S12117   1.403   2.066   7.153  0.8239  1.7857 -0.7428
  116OSM    H7T12118   1.426   2.000   6.984 -0.2251  0.5482 -1.4012
  116OSM    C8S12119   1.234   1.960   7.094  0.0323  0.7063 -0.1204
  116OSM    H8S12120   1.276   1.858   7.110  0.7098  1.1708  1.2223
  116OSM    H8T12121   1.161   1.956   7.010 -0.3642 -0.8149  0.2743
  116OSM    C9S12122   1.156   2.004   7.220  0.1389  0.3606 -0.0630
  116OSM    H9S12123   1.085   1.918   7.224 -0.1542  0.4646 -1.8995
  116OSM    H9T12124   1.093   2.093   7.199 -0.6811  0.0144  0.8609
  116OSM   C10S12125   1.241   2.021   7.354 -0.0058 -0.6335  0.5318
  116OSM   H10S12126   1.297   2.117   7.349 -1.0867  0.0476  1.0377
  116OSM   H10T12127   1.313   1.941   7.383 -1.0384 -2.0928 -0.7586
  116OSM   C11S12128   1.141   2.027   7.467 -0.8672 -0.1075 -0.2324
  116OSM   H11S12129   1.063   1.948   7.463 -1.8424  0.8638 -1.9840
  116OSM   H11T12130   1.083   2.122   7.472 -1.7496 -0.6841  1.4758
  116OSM   C12S12131   1.211   2.004   7.597 -0.0430 -0.0856  0.7030
  116OSM   H12S12132   1.298   2.071   7.608  0.2606  0.0413 -1.9213
  116OSM   H12T12133   1.256   1.903   7.603 -1.2921 -0.6007  2.0570
  116OSM   C13S12134   1.114   2.012   7.715  0.3577 -0.0635 -0.6590
  116OSM   H13S12135   1.051   1.921   7.717 -0.4176  0.4521  2.3823
  116OSM   H13T12136   1.053   2.099   7.682 -0.0288 -0.2370 -0.4045
  116OSM   C14S12137   1.191   2.037   7.849  0.1244 -0.1829 -0.4008
  116OSM   H14S12138   1.242   2.135   7.838 -0.7777  0.1275 -2.2124
  116OSM   H14T12139   1.269   1.961   7.871 -0.0732 -0.3231 -0.1737
  116OSM   C15S12140   1.094   2.040   7.966  0.2991  0.0455  0.1790
  116OSM   H15S12141   1.035   1.946   7.976  2.2689 -1.3156 -0.3681
  116OSM   H15T12142   1.028   2.129   7.961  1.0395  0.6846  1.2924
  116OSM   C16S12143   1.172   2.050   8.093 -0.2346  0.5760 -0.4178
  116OSM   H16S12144   1.218   2.151   8.090  0.1639  0.3810 -1.0174
  116OSM   H16T12145   1.259   1.980   8.093  1.3891  2.3633  2.3907
  116OSM   C17S12146   1.085   2.024   8.215  0.1412 -0.8027  0.9806
  116OSM   H17S12147   1.050   1.918   8.214  1.4114 -1.2601  2.1913
  116OSM   H17T12148   0.999   2.093   8.203 -1.3941 -1.9418  4.1907
  116OSM   C18S12149   1.168   2.031   8.339  0.2145  0.1701  0.4436
  116OSM   H18S12150   1.262   1.973   8.329  0.0098 -1.0956  4.3279
  116OSM   H18T12151   1.108   1.992   8.424  1.6961 -0.7099  1.1286
  116OSM   H18U12152   1.194   2.133   8.375  0.4441 -0.0944  1.0344
  116OSM    C1F12153   1.142   1.757   6.664  0.4128 -0.2501  0.7058
  116OSM     OF12154   1.220   1.687   6.609 -0.4199  0.3641  0.6033
  116OSM    C2F12155   1.009   1.714   6.708  0.4349 -1.3109 -0.0655
  116OSM    H2F12156   0.941   1.672   6.632 -1.4107 -1.4674  1.5999
  116OSM    H2G12157   0.961   1.795   6.767  0.1895 -0.4676 -1.3873
  116OSM    C3F12158   1.021   1.594   6.807  0.5607 -0.5026 -0.5053
  116OSM    H3F12159   1.090   1.516   6.768  1.1144 -0.0577 -0.4293
  116OSM    H3G12160   0.918   1.552   6.811 -0.0475  0.9990  0.4699
  116OSM    C4F12161   1.073   1.640   6.946 -0.4024 -0.1451 -0.2219
  116OSM    H4F12162   1.016   1.731   6.972 -1.1041 -0.0709 -1.8647
  116OSM    H4G12163   1.182   1.662   6.935 -0.6292  1.0536 -0.1341
  116OSM    C5F12164   1.047   1.525   7.039  0.4022 -0.3042  0.5064
  116OSM    H5F12165   1.119   1.441   7.025  0.7102  0.1369 -0.6529
  116OSM    H5G12166   0.942   1.488   7.033  0.3188  0.0919 -3.3342
  116OSM    C6F12167   1.061   1.558   7.183 -0.1571  0.2195 -0.2853
  116OSM    H6F12168   0.993   1.642   7.209  0.3492  0.0569  1.7558
  116OSM    H6G12169   1.162   1.597   7.206  0.4537 -0.7747 -1.1867
  116OSM    C7F12170   1.032   1.430   7.271  0.4290 -0.3237  0.0348
  116OSM    H7F12171   1.112   1.355   7.249 -0.2583 -1.4271  1.1379
  116OSM    H7G12172   0.933   1.390   7.242 -1.2681  1.6658  2.6487
  116OSM    C8F12173   1.031   1.449   7.427  0.5754 -0.3156 -1.0932
  116OSM    H8F12174   1.116   1.516   7.455 -0.5305  0.8087 -0.2971
  116OSM    H8G12175   1.030   1.352   7.480 -2.9090  1.5291  2.7535
  116OSM    C9F12176   0.904   1.522   7.464  0.2797 -0.3982 -0.1215
  116OSM    H9F12177   0.819   1.510   7.395  0.1932  0.5072 -0.1860
  116OSM   C10F12178   0.880   1.593   7.583 -0.3037 -0.5464  0.1178
  116OSM   H10F12179   0.786   1.649   7.592  0.3386  0.8076 -1.2330
  116OSM   C11F12180   0.978   1.605   7.698 -0.2612  0.4493  0.0718
  116OSM   H11F12181   1.017   1.709   7.703  0.2820  0.2375  0.3211
  116OSM   H11G12182   1.067   1.540   7.682  0.9234  2.3270 -1.4366
  116OSM   C12F12183   0.911   1.565   7.831 -0.2799 -0.9536 -0.4957
  116OSM   H12F12184   0.819   1.622   7.855  0.8748  0.5232  0.5441
  116OSM   H12G12185   0.979   1.606   7.909 -0.7496 -2.3117  0.6634
  116OSM   C13F12186   0.883   1.417   7.843 -0.5690  0.3351 -0.6856
  116OSM   H13F12187   0.981   1.365   7.843 -0.3965  0.5863  1.1087
  116OSM   H13G12188   0.822   1.389   7.754 -2.1262  1.4348 -0.0116
  116OSM   C14F12189   0.799   1.377   7.977  0.3906 -0.4911  0.2301
  116OSM   H14F12190   0.694   1.414   7.973 -0.2868 -2.3615 -2.7091
  116OSM   H14G12191   0.847   1.392   8.076 -0.3191 -0.0285  0.5048
  116OSM   C15F12192   0.784   1.217   7.979 -0.1755 -0.5788  0.8653
  116OSM   H15F12193   0.885   1.174   7.962 -0.1769 -1.2529  2.4227
  116OSM   H15G12194   0.709   1.196   7.900 -0.9945  1.2345  1.0940
  116OSM   C16F12195   0.745   1.177   8.121 -0.6359  0.2631  0.0561
  116OSM   H16F12196   0.778   1.254   8.194 -0.7242 -1.6658  2.2288
  116OSM   H16G12197   0.799   1.085   8.151 -0.8661  0.4189  0.9732
  116OSM   C17F12198   0.602   1.136   8.143 -0.6158  0.2630 -0.5218
  116OSM   H17F12199   0.577   1.049   8.079 -0.7985 -0.1965  0.1631
  116OSM   H17G12200   0.543   1.221   8.101 -3.1019 -2.0275 -2.0407
  116OSM   C18F12201   0.547   1.107   8.286  0.1353 -0.5906  0.1297
  116OSM   H18F12202   0.599   1.170   8.362  1.1195 -0.2384 -0.8017
  116OSM   H18G12203   0.570   1.003   8.315  3.5537 -0.1064 -0.4193
  116OSM   H18H12204   0.436   1.117   8.287 -0.0962 -2.7708  0.1981
  117OSM      N12205   1.720   4.653   6.339  0.1170  0.4646 -0.7241
  117OSM    C1512206   1.797   4.526   6.351  0.0893  0.2786  0.3219
  117OSM   H15A12207   1.882   4.533   6.417 -0.0814 -1.0182  0.7142
  117OSM   H15B12208   1.838   4.505   6.253  3.8139  2.0801  1.2929
  117OSM   H15C12209   1.730   4.448   6.384 -0.8310  1.4369  1.2910
  117OSM    C1412210   1.799   4.766   6.288 -0.0602  0.3810 -0.3253
  117OSM   H14A12211   1.875   4.796   6.358 -1.1948  0.4861  0.8912
  117OSM   H14B12212   1.735   4.852   6.273 -0.2641  0.5393  1.2997
  117OSM   H14C12213   1.837   4.737   6.191 -0.3103 -0.0872 -0.2859
  117OSM    C1312214   1.606   4.631   6.248  0.2776  0.1986 -0.4585
  117OSM   H13A12215   1.549   4.550   6.290  0.7200 -0.9057 -1.9012
  117OSM   H13B12216   1.635   4.609   6.146 -0.6991  2.4173 -1.2837
  117OSM   H13C12217   1.544   4.719   6.239  0.8446  0.4551 -2.2166
  117OSM    C1212218   1.663   4.677   6.481 -0.4607  0.9906 -0.0191
  117OSM   H12A12219   1.603   4.767   6.477 -3.4161 -0.8079  1.1883
  117OSM   H12B12220   1.739   4.706   6.553 -1.4945  3.7840  0.0856
  117OSM    C1112221   1.580   4.569   6.562  0.0067 -0.3089 -0.1751
  117OSM   H11A12222   1.539   4.628   6.647 -0.4696 -3.0611  1.6277
  117OSM   H11B12223   1.651   4.497   6.606  0.1005  1.0503  2.0475
  117OSM      P12224   1.457   4.367   6.463 -0.3599 -0.0214  0.4559
  117OSM    O1312225   1.343   4.339   6.380 -0.0971 -0.4498  0.3514
  117OSM    O1412226   1.590   4.320   6.412 -0.2872 -0.0159  0.3132
  117OSM    O1112227   1.435   4.319   6.608 -0.4043  0.0844  0.0710
  117OSM    O1212228   1.465   4.520   6.489  0.4242 -0.4132 -0.0155
  117OSM    C1S12229   1.316   4.313   6.686  0.3887 -0.2206 -0.1716
  117OSM    H1S12230   1.231   4.263   6.635  1.7520 -2.0066 -0.8160
  117OSM    H1T12231   1.286   4.412   6.726 -0.5073 -1.0096  1.1960
  117OSM     NF12232   1.226   4.226   6.893  0.3900  0.0878 -0.0600
  117OSM    HNF12233   1.199   4.298   6.957  2.1415  0.2666  0.5459
  117OSM    C2S12234   1.347   4.231   6.815 -0.1460  0.6762 -0.6360
  117OSM    H2S12235   1.374   4.129   6.780 -2.0931 -0.0382 -0.1692
  117OSM    C3S12236   1.464   4.304   6.902  0.3818 -0.9340 -0.5921
  117OSM    H3S12237   1.421   4.404   6.925 -1.4037 -1.0468 -3.0665
  117OSM     O312238   1.577   4.331   6.831 -0.2806  0.0817  0.2575
  117OSM    HO312239   1.542   4.336   6.742  0.5220  3.7529 -0.0216
  117OSM    C4S12240   1.502   4.238   7.029  0.3021  0.4752  1.3266
  117OSM    H4S12241   1.559   4.148   7.000 -0.2327  0.3367  0.6706
  117OSM    C5S12242   1.455   4.262   7.158 -0.3109 -0.3488  1.2378
  117OSM    H5S12243   1.376   4.336   7.177  0.2555 -0.0317  2.4663
  117OSM    C6S12244   1.502   4.184   7.275  0.4101  0.3344 -0.2968
  117OSM    H6S12245   1.589   4.118   7.255 -1.2491 -1.9992 -0.2744
  117OSM    H6T12246   1.435   4.097   7.295  2.1938 -1.4595 -1.6811
  117OSM    C7S12247   1.513   4.264   7.405 -0.9230  0.4867 -0.1014
  117OSM    H7S12248   1.416   4.304   7.443 -0.8957 -1.7186  2.6318
  117OSM    H7T12249   1.587   4.345   7.388  0.4864 -1.0194 -1.5614
  117OSM    C8S12250   1.582   4.182   7.515  0.2128  0.4406 -0.4933
  117OSM    H8S12251   1.686   4.159   7.484  0.3621 -0.0994  0.3655
  117OSM    H8T12252   1.531   4.083   7.515 -0.6257  0.8598 -0.1891
  117OSM    C9S12253   1.570   4.257   7.651  0.1899  0.1667  0.0815
  117OSM    H9S12254   1.474   4.312   7.666  1.3317  1.5716  2.9612
  117OSM    H9T12255   1.648   4.335   7.662 -0.4243  0.6460  1.1642
  117OSM   C10S12256   1.569   4.152   7.766 -0.2111 -0.2149 -0.0203
  117OSM   H10S12257   1.658   4.085   7.759  0.5471  0.6288  1.0534
  117OSM   H10T12258   1.479   4.088   7.759 -0.1215 -0.2773 -0.6959
  117OSM   C11S12259   1.584   4.219   7.906 -0.2598 -0.3968  1.3496
  117OSM   H11S12260   1.490   4.277   7.920 -0.0076  1.2576 -2.5048
  117OSM   H11T12261   1.679   4.273   7.889 -0.3902 -0.3378  0.7857
  117OSM   C12S12262   1.601   4.109   8.017 -0.0021  0.0199  0.3389
  117OSM   H12S12263   1.683   4.044   7.978  0.0720 -0.5090  1.3576
  117OSM   H12T12264   1.509   4.047   8.022 -0.7793  1.1215  0.0361
  117OSM   C13S12265   1.626   4.165   8.153 -0.0441 -0.1328 -0.3448
  117OSM   H13S12266   1.670   4.086   8.218 -1.4132 -1.1442 -0.6057
  117OSM   H13T12267   1.526   4.194   8.193  1.0547  2.1567  0.9917
  117OSM   C14S12268   1.713   4.292   8.157  0.0866  0.0958  0.5412
  117OSM   H14S12269   1.678   4.376   8.092  0.2158 -0.1731  0.1179
  117OSM   H14T12270   1.813   4.259   8.122  0.6462 -0.5042  2.6017
  117OSM   C15S12271   1.756   4.362   8.288 -0.4952  0.8231 -0.6983
  117OSM   H15S12272   1.836   4.438   8.273  0.4193  0.0004 -0.0628
  117OSM   H15T12273   1.793   4.279   8.351  0.7856  1.3833 -0.6896
  117OSM   C16S12274   1.640   4.441   8.353  0.2880 -0.1054 -0.3213
  117OSM   H16S12275   1.551   4.378   8.331  0.1306 -0.1104  0.2925
  117OSM   H16T12276   1.645   4.539   8.301 -0.0536  0.2929  0.3718
  117OSM   C17S12277   1.663   4.461   8.506 -0.3137  0.0860 -0.0876
  117OSM   H17S12278   1.756   4.522   8.506  0.8165 -1.5316 -1.3931
  117OSM   H17T12279   1.690   4.368   8.559  0.8687  1.0232  1.0207
  117OSM   C18S12280   1.552   4.535   8.572 -1.0122 -0.0922 -0.3754
  117OSM   H18S12281   1.552   4.524   8.683 -0.2277  0.8867 -0.2644
  117OSM   H18T12282   1.454   4.489   8.546 -0.7246 -0.7273 -0.3679
  117OSM   H18U12283   1.553   4.640   8.536  1.5035  0.2882  0.6181
  117OSM    C1F12284   1.123   4.146   6.858 -0.2413 -0.2730  0.7585
  117OSM     OF12285   1.138   4.083   6.748  0.1259  0.3089  0.2245
  117OSM    C2F12286   1.001   4.131   6.944  0.2422  0.1113 -0.1421
  117OSM    H2F12287   0.912   4.145   6.879  1.8195  0.9395 -2.2892
  117OSM    H2G12288   1.004   4.201   7.030 -1.2407  0.0166  0.0046
  117OSM    C3F12289   1.000   3.985   7.011  0.0051 -0.5548  0.2598
  117OSM    H3F12290   1.021   3.911   6.931 -1.8241  0.7694 -1.5418
  117OSM    H3G12291   0.905   3.968   7.065 -0.5938  1.3291 -0.1316
  117OSM    C4F12292   1.120   3.956   7.109 -0.3129 -0.4908  0.5731
  117OSM    H4F12293   1.212   3.972   7.049 -2.1042  2.3701 -1.6900
  117OSM    H4G12294   1.097   3.848   7.125 -0.7340 -0.0834  3.3635
  117OSM    C5F12295   1.127   4.033   7.243 -0.0320  0.2949 -0.0357
  117OSM    H5F12296   1.091   4.138   7.233  0.0360  0.4648  1.2829
  117OSM    H5G12297   1.233   4.042   7.274  0.5283  0.7607 -1.9832
  117OSM    C6F12298   1.063   3.943   7.355 -0.6094 -0.1741  0.7296
  117OSM    H6F12299   1.105   3.840   7.347  1.2437  0.6361 -0.7922
  117OSM    H6G12300   0.957   3.934   7.325 -0.1024 -1.8455 -0.8076
  117OSM    C7F12301   1.072   4.011   7.495 -0.2927 -0.4813  0.3205
  117OSM    H7F12302   0.986   3.979   7.559 -1.6250 -0.7679 -1.5368
  117OSM    H7G12303   1.045   4.117   7.476 -1.2266 -0.5331  1.2252
  117OSM    C8F12304   1.208   3.994   7.572 -0.3397 -0.1491 -0.0141
  117OSM    H8F12305   1.208   4.056   7.664  3.9525  0.8720 -0.4801
  117OSM    H8G12306   1.290   4.039   7.512  0.4884 -0.4318  0.8802
  117OSM    C9F12307   1.223   3.852   7.605  0.6204 -0.7494  0.1396
  117OSM    H9F12308   1.219   3.776   7.525  2.2726 -0.4328 -0.2881
  117OSM   C10F12309   1.245   3.800   7.727 -0.2119 -0.3770  0.6284
  117OSM   H10F12310   1.262   3.691   7.728 -0.9485 -0.5033  2.1781
  117OSM   C11F12311   1.256   3.875   7.853  0.2790  0.0031 -0.6821
  117OSM   H11F12312   1.184   3.959   7.851 -0.4141 -0.3899  2.4089
  117OSM   H11G12313   1.356   3.918   7.874  0.9969 -0.9317 -2.0282
  117OSM   C12F12314   1.228   3.777   7.967  0.6621  0.0442 -0.9861
  117OSM   H12F12315   1.295   3.688   7.970 -1.4864 -1.6485  1.5999
  117OSM   H12G12316   1.125   3.739   7.954  0.0047  0.1575  2.7166
  117OSM   C13F12317   1.238   3.848   8.105 -0.6009 -0.1237  0.2943
  117OSM   H13F12318   1.148   3.913   8.111 -0.6301 -0.1172 -0.1752
  117OSM   H13G12319   1.325   3.916   8.106  0.8007 -1.8272 -0.4011
  117OSM   C14F12320   1.227   3.757   8.225  0.5409 -0.3470  0.2330
  117OSM   H14F12321   1.300   3.673   8.218  0.4098 -0.3011 -3.4300
  117OSM   H14G12322   1.124   3.716   8.235  0.8396 -0.9323  1.0685
  117OSM   C15F12323   1.267   3.820   8.363  0.9708  0.1222  0.1720
  117OSM   H15F12324   1.368   3.865   8.360  1.7707 -1.6655 -2.2811
  117OSM   H15G12325   1.271   3.740   8.440  0.5576  1.0159  1.1514
  117OSM   C16F12326   1.157   3.916   8.417  0.3929  0.0184 -0.6129
  117OSM   H16F12327   1.074   3.849   8.389 -1.6976  2.3798 -0.3776
  117OSM   H16G12328   1.143   4.008   8.357 -0.6776 -0.9687 -1.9597
  117OSM   C17F12329   1.163   3.933   8.569  0.6954 -0.5196 -0.6575
  117OSM   H17F12330   1.061   3.967   8.598  0.5233 -0.2112 -1.5712
  117OSM   H17G12331   1.185   3.836   8.617 -1.6000 -0.3829  0.8265
  117OSM   C18F12332   1.268   4.037   8.619  0.3290  1.4107  0.2278
  117OSM   H18F12333   1.364   4.005   8.574 -0.8986 -0.2251 -1.4018
  117OSM   H18G12334   1.264   4.024   8.729 -0.8090 -3.3968 -0.1211
  117OSM   H18H12335   1.240   4.140   8.590 -2.3250  0.2131 -1.8919
  118OSM      N12336   2.559   2.344   5.914  0.1818 -0.2128 -0.0741
  118OSM    C1512337   2.420   2.281   5.896 -0.2484  1.0201 -0.3806
  118OSM   H15A12338   2.347   2.354   5.863 -0.8428 -0.0587 -1.5462
  118OSM   H15B12339   2.386   2.224   5.981 -1.2141  0.2896 -1.2250
  118OSM   H15C12340   2.420   2.212   5.812 -0.3162  1.7392 -0.9881
  118OSM    C1412341   2.644   2.234   5.973  0.3338 -0.0132  0.2586
  118OSM   H14A12342   2.626   2.139   5.925 -1.0558  1.4721 -2.4031
  118OSM   H14B12343   2.611   2.229   6.076 -2.4942  1.7408 -0.4532
  118OSM   H14C12344   2.749   2.260   5.973  0.6734 -1.2812  0.8603
  118OSM    C1312345   2.628   2.397   5.796  0.7473  0.1301 -0.2855
  118OSM   H13A12346   2.728   2.434   5.815  0.5447  0.7718 -0.4521
  118OSM   H13B12347   2.575   2.480   5.751 -1.7155 -2.6698 -3.0566
  118OSM   H13C12348   2.634   2.324   5.716  0.2619 -0.5629  0.3078
  118OSM    C1212349   2.542   2.462   6.012  0.4754  0.3141  0.0513
  118OSM   H12A12350   2.469   2.532   5.974  0.0993  0.9088  1.7349
  118OSM   H12B12351   2.634   2.518   6.010  0.5718  0.1618  0.2528
  118OSM    C1112352   2.483   2.433   6.159 -0.4347  0.4906  0.3143
  118OSM   H11A12353   2.386   2.380   6.149  0.6254 -1.9609  2.0200
  118OSM   H11B12354   2.469   2.525   6.220  4.1530  3.0984 -2.0345
  118OSM      P12355   2.706   2.385   6.282  0.1394  0.5013 -0.1027
  118OSM    O1312356   2.744   2.287   6.388  0.4139 -0.1038  0.4670
  118OSM    O1412357   2.797   2.405   6.165 -0.2833 -0.2541 -0.2945
  118OSM    O1112358   2.686   2.529   6.342  0.1817  0.6430 -0.0172
  118OSM    O1212359   2.559   2.343   6.234 -0.0346  0.2928  0.5255
  118OSM    C1S12360   2.621   2.552   6.468  0.2773  0.6027 -0.4673
  118OSM    H1S12361   2.619   2.459   6.530 -3.4771  0.1641 -1.0088
  118OSM    H1T12362   2.516   2.588   6.458  0.6582  1.7398 -0.4338
  118OSM     NF12363   2.653   2.665   6.690 -0.2561  0.5642  0.8801
  118OSM    HNF12364   2.613   2.753   6.715 -2.4574 -0.5824  1.6861
  118OSM    C2S12365   2.701   2.654   6.556 -0.0047  0.1160 -0.4410
  118OSM    H2S12366   2.797   2.599   6.545 -0.7545 -1.1503 -0.9065
  118OSM    C3S12367   2.713   2.793   6.487 -0.6405 -0.9721 -0.0379
  118OSM    H3S12368   2.615   2.845   6.493 -0.8580 -1.0283 -2.2375
  118OSM     O312369   2.757   2.788   6.346  0.5846 -0.0020  0.0940
  118OSM    HO312370   2.741   2.700   6.312  0.0279 -0.6689  1.9449
  118OSM    C4S12371   2.809   2.882   6.564  0.7870 -0.2643  0.3196
  118OSM    H4S12372   2.773   2.901   6.666 -0.3898 -2.4813  0.3958
  118OSM    C5S12373   2.931   2.916   6.529 -0.2217 -0.1837  0.7217
  118OSM    H5S12374   2.982   2.869   6.443  0.4097 -0.7064  1.3676
  118OSM    C6S12375   3.030   3.001   6.607  0.5760 -0.0255 -0.0003
  118OSM    H6S12376   3.032   3.096   6.550 -4.1046 -1.1907 -2.5985
  118OSM    H6T12377   3.136   2.968   6.610  0.0545 -1.8026 -0.2218
  118OSM    C7S12378   2.992   3.028   6.756  0.6911  0.2641  0.2738
  118OSM    H7S12379   2.970   2.936   6.815 -0.5306  1.5414  1.9059
  118OSM    H7T12380   2.906   3.097   6.757  0.0614 -0.5040  0.5507
  118OSM    C8S12381   3.111   3.096   6.826  0.4650 -0.4874 -0.7885
  118OSM    H8S12382   3.182   3.137   6.752 -0.1292 -0.4435 -1.3386
  118OSM    H8T12383   3.165   3.013   6.878 -0.4559  1.1331  3.1016
  118OSM    C9S12384   3.061   3.184   6.940  0.2711 -0.2213 -0.3499
  118OSM    H9S12385   2.993   3.127   7.007  1.4556  1.4576  2.4677
  118OSM    H9T12386   3.003   3.266   6.893  0.2939  0.7592  1.2341
  118OSM   C10S12387   3.174   3.252   7.011  0.4738 -0.4614  0.0151
  118OSM   H10S12388   3.226   3.315   6.936 -1.5224  2.3140  0.8010
  118OSM   H10T12389   3.244   3.176   7.051 -0.8262 -0.5416  2.3451
  118OSM   C11S12390   3.132   3.340   7.127  0.5235 -0.6334  0.5151
  118OSM   H11S12391   3.106   3.271   7.210 -0.5185 -2.2968 -1.1152
  118OSM   H11T12392   3.047   3.409   7.111 -0.0232 -1.6073 -1.0481
  118OSM   C12S12393   3.247   3.432   7.176 -0.4391  0.4921  0.7265
  118OSM   H12S12394   3.280   3.504   7.098 -2.5687 -0.7109 -1.4188
  118OSM   H12T12395   3.332   3.363   7.194  0.2589  0.8578 -0.9509
  118OSM   C13S12396   3.213   3.507   7.308 -0.3243  0.0726  0.6087
  118OSM   H13S12397   3.126   3.574   7.288 -0.1796 -0.1306 -0.8060
  118OSM   H13T12398   3.293   3.580   7.331  0.0020 -0.0964  0.0229
  118OSM   C14S12399   3.182   3.418   7.421 -0.5325 -0.0585 -0.4431
  118OSM   H14S12400   3.254   3.333   7.425 -0.1693  0.2329 -0.7542
  118OSM   H14T12401   3.089   3.360   7.401 -1.1196  0.5377  0.4920
  118OSM   C15S12402   3.166   3.479   7.559  0.2865  0.3007 -0.0407
  118OSM   H15S12403   3.116   3.575   7.531  2.2372  1.7009  1.0174
  118OSM   H15T12404   3.264   3.498   7.606 -0.7098  0.0010  2.2950
  118OSM   C16S12405   3.060   3.411   7.645  0.4987  0.6925  0.2449
  118OSM   H16S12406   3.089   3.307   7.667  1.4727  0.9052 -0.0115
  118OSM   H16T12407   2.959   3.407   7.598  0.4009 -0.1036  0.5057
  118OSM   C17S12408   3.038   3.484   7.776  0.0650  0.1093  0.5919
  118OSM   H17S12409   3.133   3.490   7.833  1.0423  0.6173 -1.0202
  118OSM   H17T12410   2.965   3.433   7.843  0.4750  0.4248  1.2889
  118OSM   C18S12411   2.987   3.630   7.756 -0.2284 -0.6295 -0.2987
  118OSM   H18S12412   2.886   3.639   7.711  0.0023 -0.5960 -0.8248
  118OSM   H18T12413   3.046   3.685   7.679  0.3507 -2.6141 -1.3508
  118OSM   H18U12414   2.981   3.688   7.850 -2.7243  0.7858 -1.2210
  118OSM    C1F12415   2.648   2.567   6.780 -0.4710  0.0033  0.4718
  118OSM     OF12416   2.720   2.468   6.760 -0.6624 -0.0564 -0.8372
  118OSM    C2F12417   2.546   2.579   6.893 -0.5437 -0.3635  0.1029
  118OSM    H2F12418   2.454   2.528   6.857  0.0834 -0.2461 -1.8330
  118OSM    H2G12419   2.534   2.688   6.908  2.1603 -0.1839  1.5875
  118OSM    C3F12420   2.592   2.499   7.019  0.2683  0.3650  0.1566
  118OSM    H3F12421   2.703   2.507   7.023  0.6169 -0.7992 -3.3927
  118OSM    H3G12422   2.575   2.391   7.003 -1.3404  0.4533  1.0750
  118OSM    C4F12423   2.535   2.549   7.154 -0.1382  0.9210 -0.6152
  118OSM    H4F12424   2.427   2.575   7.158 -0.2773  0.2776  0.0826
  118OSM    H4G12425   2.588   2.644   7.174  1.0135  0.6254 -2.0868
  118OSM    C5F12426   2.567   2.454   7.266  0.2753  0.4055 -0.1528
  118OSM    H5F12427   2.673   2.423   7.255  1.0430  2.6409  0.4582
  118OSM    H5G12428   2.498   2.370   7.245 -1.0903  1.3078  0.5725
  118OSM    C6F12429   2.529   2.510   7.405  0.4564  0.5441 -0.3685
  118OSM    H6F12430   2.423   2.538   7.388  0.9495  1.0559 -2.9386
  118OSM    H6G12431   2.602   2.587   7.439  1.0886 -0.6556  1.1198
  118OSM    C7F12432   2.524   2.405   7.515 -0.6236  0.2707  0.6742
  118OSM    H7F12433   2.620   2.351   7.525 -0.2751  0.5170 -1.0400
  118OSM    H7G12434   2.454   2.325   7.484  1.9544 -0.6789 -3.5141
  118OSM    C8F12435   2.492   2.474   7.649  0.5093 -0.0067 -0.0570
  118OSM    H8F12436   2.408   2.545   7.635  1.3198  0.8510 -0.6401
  118OSM    H8G12437   2.582   2.529   7.684  0.4955 -1.6762  2.9429
  118OSM    C9F12438   2.443   2.370   7.743  0.2850 -0.1864  0.1123
  118OSM    H9F12439   2.366   2.300   7.708 -1.1912  2.1009 -1.5408
  118OSM   C10F12440   2.476   2.353   7.877  0.8060  0.0158  0.2288
  118OSM   H10F12441   2.408   2.292   7.939  1.1347  0.4154  0.9988
  118OSM   C11F12442   2.574   2.424   7.964 -0.6255 -0.1818  0.0544
  118OSM   H11F12443   2.666   2.437   7.903 -0.4140 -0.8816  0.2109
  118OSM   H11G12444   2.604   2.356   8.047 -0.2003  0.1854  0.2080
  118OSM   C12F12445   2.532   2.569   7.995  0.9146 -0.0584  0.3160
  118OSM   H12F12446   2.452   2.572   8.073  1.5039 -1.0974  0.9867
  118OSM   H12G12447   2.499   2.619   7.902 -0.7058 -2.2688 -0.3993
  118OSM   C13F12448   2.650   2.654   8.041  0.1920  0.2843  0.3037
  118OSM   H13F12449   2.627   2.762   8.056 -4.1381 -0.2713 -0.9523
  118OSM   H13G12450   2.726   2.663   7.961 -0.0930  0.0573  0.0041
  118OSM   C14F12451   2.713   2.615   8.175  0.4803  0.8817  0.6780
  118OSM   H14F12452   2.819   2.648   8.187  0.7175  0.3930 -0.0184
  118OSM   H14G12453   2.713   2.504   8.179 -0.3008  0.8841  0.7658
  118OSM   C15F12454   2.631   2.669   8.295 -0.0004  0.2971  0.3857
  118OSM   H15F12455   2.597   2.768   8.257  0.3439  0.2084 -0.1622
  118OSM   H15G12456   2.698   2.676   8.383 -1.1325 -0.6198  1.3673
  118OSM   C16F12457   2.520   2.574   8.352 -0.3977 -0.3938 -0.8135
  118OSM   H16F12458   2.572   2.476   8.363  0.7758  0.3057  0.2251
  118OSM   H16G12459   2.437   2.562   8.280  1.0488  0.5568 -2.7208
  118OSM   C17F12460   2.464   2.635   8.491 -0.8067 -0.4295 -0.0535
  118OSM   H17F12461   2.370   2.585   8.523 -0.9171 -0.0481  0.2252
  118OSM   H17G12462   2.450   2.745   8.486  0.6478 -0.2428 -0.2867
  118OSM   C18F12463   2.562   2.599   8.612 -0.3511  0.1996  0.4201
  118OSM   H18F12464   2.498   2.580   8.701 -0.1327 -1.7971  0.2084
  118OSM   H18G12465   2.637   2.679   8.626  0.6139 -0.3340 -1.3759
  118OSM   H18H12466   2.623   2.507   8.594  0.5075  0.9669 -0.7059
  119OSM      N12467   6.074   5.579   5.737 -0.3593  0.2279  0.5247
  119OSM    C1512468   5.923   5.601   5.730  0.5180  0.3345  0.1724
  119OSM   H15A12469   5.887   5.646   5.822 -2.0050  1.1133 -1.1216
  119OSM   H15B12470   5.870   5.509   5.713 -0.5664  0.1718  3.6846
  119OSM   H15C12471   5.906   5.668   5.646  3.0846 -0.6242 -1.2281
  119OSM    C1412472   6.128   5.520   5.609  0.3966 -0.4851  0.2789
  119OSM   H14A12473   6.233   5.495   5.604  0.6602  0.7504 -0.7485
  119OSM   H14B12474   6.113   5.598   5.536 -2.4387 -0.7153  0.5181
  119OSM   H14C12475   6.071   5.437   5.569  1.3265 -0.9195 -0.1756
  119OSM    C1312476   6.123   5.717   5.748  0.0111 -0.5017  0.3050
  119OSM   H13A12477   6.115   5.765   5.652  0.5244 -0.8502  0.0801
  119OSM   H13B12478   6.231   5.717   5.755  0.2235 -2.7252 -1.6264
  119OSM   H13C12479   6.067   5.763   5.828 -0.7111  0.6384 -0.8186
  119OSM    C1212480   6.118   5.494   5.858 -0.4390 -0.2189 -0.0477
  119OSM   H12A12481   6.225   5.478   5.850  0.0414  2.7326 -0.9924
  119OSM   H12B12482   6.078   5.396   5.840  1.7070 -1.1310 -0.1374
  119OSM    C1112483   6.084   5.538   6.004  0.2480  0.0816  0.0044
  119OSM   H11A12484   6.113   5.644   6.016 -2.4351  0.8132  0.7201
  119OSM   H11B12485   6.148   5.497   6.086  0.1810  0.5345  0.2900
  119OSM      P12486   5.859   5.583   6.150 -0.0879  0.6753 -0.0365
  119OSM    O1312487   5.843   5.727   6.110 -0.5017 -0.2527 -0.0311
  119OSM    O1412488   5.733   5.511   6.159  0.6155  0.0923  0.0845
  119OSM    O1112489   5.938   5.574   6.286  0.4864  0.1854 -0.0698
  119OSM    O1212490   5.947   5.510   6.038  0.1342  0.3284  0.5344
  119OSM    C1S12491   5.981   5.446   6.328 -0.1231  0.0424 -0.0310
  119OSM    H1S12492   6.077   5.411   6.285  0.3064 -1.5754  2.0567
  119OSM    H1T12493   5.911   5.361   6.312  0.5723 -0.6495  0.5045
  119OSM     NF12494   6.071   5.337   6.530  0.3393  0.5446 -0.2569
  119OSM    HNF12495   6.013   5.271   6.578 -1.2762  0.3118 -2.3498
  119OSM    C2S12496   6.000   5.456   6.487  0.2651  0.2177  1.2326
  119OSM    H2S12497   6.060   5.547   6.509  1.4116 -0.9116  3.0304
  119OSM    C3S12498   5.854   5.472   6.543 -0.3681  0.2807 -0.0097
  119OSM    H3S12499   5.807   5.378   6.507  0.4436  0.2500 -1.0406
  119OSM     O312500   5.765   5.573   6.490 -0.0039  0.3503 -0.5728
  119OSM    HO312501   5.805   5.605   6.408  1.5225 -1.4408 -0.6055
  119OSM    C4S12502   5.865   5.470   6.694 -0.2816 -0.2014  0.0130
  119OSM    H4S12503   5.827   5.378   6.740 -0.0420 -0.2341  0.1430
  119OSM    C5S12504   5.914   5.574   6.765  0.3368 -0.2806 -0.0772
  119OSM    H5S12505   5.948   5.669   6.721 -1.9213  0.9128  0.5727
  119OSM    C6S12506   5.921   5.572   6.912  0.5035 -0.6569 -0.1491
  119OSM    H6S12507   5.867   5.484   6.955 -1.1580 -0.8921 -2.5213
  119OSM    H6T12508   5.881   5.668   6.951 -0.0675 -0.1631 -1.8604
  119OSM    C7S12509   6.071   5.557   6.928  0.7988 -0.2416  0.2935
  119OSM    H7S12510   6.137   5.621   6.866  1.4447  0.5065  1.6958
  119OSM    H7T12511   6.103   5.453   6.910 -1.4741 -1.5170  2.7655
  119OSM    C8S12512   6.115   5.582   7.073  0.5035 -0.7081 -0.3276
  119OSM    H8S12513   6.072   5.676   7.115  0.9550 -1.4573  1.9750
  119OSM    H8T12514   6.225   5.597   7.069  0.4548  0.6821  1.6994
  119OSM    C9S12515   6.066   5.468   7.173 -0.2480 -0.6507  0.6108
  119OSM    H9S12516   6.089   5.369   7.128  0.9484  0.0222 -0.3065
  119OSM    H9T12517   5.955   5.469   7.181 -0.2091 -1.9603  1.7776
  119OSM   C10S12518   6.102   5.477   7.315 -0.5061 -0.3362  0.1663
  119OSM   H10S12519   6.045   5.566   7.347 -0.1199  1.3231 -3.3373
  119OSM   H10T12520   6.211   5.501   7.317 -0.5434 -0.0968 -0.5827
  119OSM   C11S12521   6.068   5.345   7.389  0.2648  0.6140 -0.8547
  119OSM   H11S12522   6.118   5.268   7.326 -1.1654 -0.5149 -0.6421
  119OSM   H11T12523   5.958   5.334   7.383  0.3245 -1.1334  0.4798
  119OSM   C12S12524   6.133   5.331   7.525  1.0263  0.1223 -0.1104
  119OSM   H12S12525   6.092   5.422   7.572 -0.5197  0.3845 -1.8399
  119OSM   H12T12526   6.244   5.341   7.519  1.1636 -1.7748 -2.0265
  119OSM   C13S12527   6.091   5.208   7.602  0.1688  0.1246  0.4809
  119OSM   H13S12528   6.115   5.116   7.546 -2.7244 -1.1844  1.2205
  119OSM   H13T12529   5.981   5.206   7.616 -0.2424 -1.5529 -2.3185
  119OSM   C14S12530   6.151   5.192   7.740  0.3146 -0.8187  0.3192
  119OSM   H14S12531   6.262   5.194   7.738  0.3303  1.5960  0.5701
  119OSM   H14T12532   6.134   5.092   7.785 -0.3514 -0.7694  0.1958
  119OSM   C15S12533   6.115   5.301   7.847  1.0034  0.6277 -0.0784
  119OSM   H15S12534   6.005   5.316   7.858  0.5136 -1.2837 -1.8243
  119OSM   H15T12535   6.170   5.384   7.798  3.2684 -1.9878 -2.2939
  119OSM   C16S12536   6.178   5.279   7.975  0.0721  0.3515  0.2266
  119OSM   H16S12537   6.286   5.258   7.955  0.4174 -0.9237  3.0125
  119OSM   H16T12538   6.146   5.193   8.037  0.8248 -0.5693 -0.6315
  119OSM   C17S12539   6.164   5.403   8.063 -0.3832  0.2884 -0.0017
  119OSM   H17S12540   6.066   5.409   8.116 -0.3928 -1.1273  0.1817
  119OSM   H17T12541   6.163   5.492   7.997 -2.4072 -0.2422 -0.7798
  119OSM   C18S12542   6.260   5.411   8.182 -0.7574  0.4700 -0.3201
  119OSM   H18S12543   6.214   5.468   8.266  1.3816 -1.5426  2.4329
  119OSM   H18T12544   6.353   5.466   8.156 -0.7261 -0.0300 -1.3078
  119OSM   H18U12545   6.293   5.309   8.210  1.4031  1.1066 -0.3196
  119OSM    C1F12546   6.199   5.308   6.499  0.1062  0.2908  0.3424
  119OSM     OF12547   6.267   5.385   6.430  0.7340 -0.2140 -0.1947
  119OSM    C2F12548   6.254   5.169   6.530 -0.0792 -0.0824 -0.2418
  119OSM    H2F12549   6.299   5.121   6.440  0.9541 -0.4528  0.4544
  119OSM    H2G12550   6.169   5.104   6.560 -0.8397  0.9757 -0.0647
  119OSM    C3F12551   6.361   5.175   6.644  0.1459 -0.3292  0.5803
  119OSM    H3F12552   6.449   5.238   6.620 -0.5467  1.3691  2.2074
  119OSM    H3G12553   6.397   5.071   6.659 -1.3979 -0.6083  2.8499
  119OSM    C4F12554   6.313   5.235   6.780  0.1120 -0.4165 -0.3889
  119OSM    H4F12555   6.222   5.181   6.811 -0.3783 -0.1547 -1.3116
  119OSM    H4G12556   6.285   5.341   6.761  0.6993 -0.4422 -1.4678
  119OSM    C5F12557   6.415   5.241   6.892  0.0909  0.3956 -0.0582
  119OSM    H5F12558   6.495   5.316   6.875 -0.6255  1.3730  0.8358
  119OSM    H5G12559   6.448   5.135   6.902 -0.3104  0.0829 -1.6894
  119OSM    C6F12560   6.346   5.283   7.021  0.0875  0.0888 -0.4290
  119OSM    H6F12561   6.266   5.208   7.041 -0.5707  0.4197 -1.7592
  119OSM    H6G12562   6.305   5.383   6.999 -0.1726  0.1098  0.1335
  119OSM    C7F12563   6.437   5.277   7.146 -0.4381  0.5681 -0.5498
  119OSM    H7F12564   6.392   5.343   7.224  3.4254  2.4447  0.3533
  119OSM    H7G12565   6.531   5.331   7.120  0.7262 -1.2804 -0.3738
  119OSM    C8F12566   6.492   5.135   7.192 -1.0289 -0.7329  0.2650
  119OSM    H8F12567   6.580   5.151   7.257 -0.5170  0.7976 -0.7661
  119OSM    H8G12568   6.538   5.078   7.108  2.5621  0.1044  1.5233
  119OSM    C9F12569   6.378   5.074   7.265 -0.2867 -0.0576 -0.1183
  119OSM    H9F12570   6.277   5.099   7.228 -2.2920 -3.0556  2.6669
  119OSM   C10F12571   6.381   5.002   7.376  0.1020 -0.5652  0.1015
  119OSM   H10F12572   6.286   4.957   7.408 -1.6857  1.9005 -1.3561
  119OSM   C11F12573   6.504   4.957   7.445  0.5524  0.3954  0.0624
  119OSM   H11F12574   6.566   5.038   7.489 -0.5476  0.0009  2.5185
  119OSM   H11G12575   6.566   4.899   7.374  0.1160  0.9075 -0.7541
  119OSM   C12F12576   6.469   4.850   7.559 -0.7876 -0.6943  0.4341
  119OSM   H12F12577   6.567   4.813   7.595 -0.8040 -3.3880 -1.9245
  119OSM   H12G12578   6.429   4.763   7.503  2.6814 -0.8713 -2.0673
  119OSM   C13F12579   6.383   4.905   7.673  0.2980 -0.0295  0.4099
  119OSM   H13F12580   6.285   4.934   7.631  0.6249  0.5633  0.0267
  119OSM   H13G12581   6.422   5.001   7.714  1.8163 -0.9784  1.2763
  119OSM   C14F12582   6.351   4.813   7.784 -0.0462 -0.1151  0.9455
  119OSM   H14F12583   6.362   4.708   7.751 -0.2276  0.6285 -1.7291
  119OSM   H14G12584   6.244   4.821   7.813 -0.9335  1.5052 -2.2051
  119OSM   C15F12585   6.445   4.838   7.902  0.0904 -0.1878 -0.3539
  119OSM   H15F12586   6.433   4.932   7.960  0.1190  0.0740 -0.7658
  119OSM   H15G12587   6.551   4.817   7.877 -0.0252 -0.3468 -0.7292
  119OSM   C16F12588   6.425   4.726   8.006  0.2988 -0.3081  0.0729
  119OSM   H16F12589   6.517   4.705   8.065  1.7926  0.9307 -1.6783
  119OSM   H16G12590   6.398   4.629   7.959  2.1221 -0.4042 -0.8654
  119OSM   C17F12591   6.313   4.749   8.106  0.1192 -0.0093  0.4741
  119OSM   H17F12592   6.218   4.763   8.050 -0.7356 -1.0021  1.6473
  119OSM   H17G12593   6.334   4.850   8.146  0.3474  0.7066 -1.3457
  119OSM   C18F12594   6.296   4.643   8.220  0.3037 -0.1093  0.0838
  119OSM   H18F12595   6.207   4.671   8.279  0.5593  1.2107 -0.1118
  119OSM   H18G12596   6.388   4.633   8.282  0.1942 -1.5877  0.0254
  119OSM   H18H12597   6.296   4.541   8.177  0.0515 -0.1365  0.1488
  120OSM      N12598   1.329   5.312   6.353  0.6834  0.2359  0.6361
  120OSM    C1512599   1.396   5.335   6.224 -0.3652 -0.2358 -0.4221
  120OSM   H15A12600   1.456   5.248   6.198  1.7860  0.9028  0.5225
  120OSM   H15B12601   1.454   5.425   6.235 -1.8341  0.6453  0.5684
  120OSM   H15C12602   1.328   5.350   6.141 -0.2924  1.8461 -0.1469
  120OSM    C1412603   1.208   5.404   6.355  0.5597 -0.7988 -0.1681
  120OSM   H14A12604   1.164   5.383   6.451  0.6829  1.7049  0.4973
  120OSM   H14B12605   1.159   5.374   6.263 -0.8161  0.6006  0.0769
  120OSM   H14C12606   1.235   5.509   6.352 -0.3405 -0.5715 -0.7713
  120OSM    C1312607   1.272   5.167   6.356  0.1665 -0.2964 -0.4006
  120OSM   H13A12608   1.219   5.149   6.448 -1.0997 -1.3758 -1.2989
  120OSM   H13B12609   1.353   5.097   6.345  0.5246  0.2470 -1.3790
  120OSM   H13C12610   1.207   5.138   6.274  1.8635  2.1182 -2.7820
  120OSM    C1212611   1.424   5.337   6.468 -0.1131 -0.4226  0.3715
  120OSM   H12A12612   1.374   5.339   6.564  0.7374  1.9827  0.8583
  120OSM   H12B12613   1.453   5.441   6.453  1.9466 -1.1683 -1.3827
  120OSM    C1112614   1.554   5.255   6.470  0.5935 -0.0932 -0.5080
  120OSM   H11A12615   1.520   5.150   6.482  0.0592  0.2839  2.0348
  120OSM   H11B12616   1.601   5.275   6.569  2.4464 -0.2718 -1.3222
  120OSM      P12617   1.698   5.163   6.265  0.5238 -0.5118 -0.4039
  120OSM    O1312618   1.582   5.084   6.215  0.2116  0.2657 -0.4772
  120OSM    O1412619   1.799   5.208   6.162  0.5029  0.1701  0.3692
  120OSM    O1112620   1.781   5.080   6.381 -0.6369  0.1741  0.5002
  120OSM    O1212621   1.648   5.275   6.366  0.1630 -0.3338  0.9647
  120OSM    C1S12622   1.900   5.135   6.437 -0.5725 -0.3921  0.5414
  120OSM    H1S12623   1.930   5.225   6.379 -0.9852 -1.6912 -1.7752
  120OSM    H1T12624   1.983   5.062   6.425 -0.1047  0.1284  0.6051
  120OSM     NF12625   2.009   5.196   6.643  0.5123 -0.3506 -0.1165
  120OSM    HNF12626   2.073   5.124   6.669  0.5081 -0.6709 -0.9647
  120OSM    C2S12627   1.887   5.157   6.591  0.5301 -0.1733 -0.5805
  120OSM    H2S12628   1.815   5.239   6.611  0.3083 -0.8416  1.5868
  120OSM    C3S12629   1.827   5.031   6.660  0.3254  0.1231 -0.1408
  120OSM    H3S12630   1.901   4.949   6.646 -0.8887 -1.3903  1.8068
  120OSM     O312631   1.696   4.991   6.617  0.9826 -0.0072  0.0819
  120OSM    HO312632   1.686   5.030   6.530  2.1918  0.1948  0.0121
  120OSM    C4S12633   1.817   5.047   6.809  0.0240  0.9775 -0.6733
  120OSM    H4S12634   1.906   5.022   6.869 -1.1943 -0.8263  0.4720
  120OSM    C5S12635   1.709   5.104   6.874 -0.8203  0.1975 -0.4447
  120OSM    H5S12636   1.618   5.138   6.822 -1.0351 -1.0992 -0.9666
  120OSM    C6S12637   1.713   5.126   7.021 -0.3115  0.5822 -0.2576
  120OSM    H6S12638   1.651   5.048   7.070 -0.4342  0.8283 -0.0152
  120OSM    H6T12639   1.660   5.222   7.043  0.8646  1.2590 -0.2972
  120OSM    C7S12640   1.845   5.151   7.088  0.8289  0.1809  0.1433
  120OSM    H7S12641   1.903   5.226   7.030  0.9722  0.7152  0.9689
  120OSM    H7T12642   1.900   5.055   7.084 -0.5933 -0.7380  1.3933
  120OSM    C8S12643   1.844   5.189   7.237  0.1538  0.5141  0.1190
  120OSM    H8S12644   1.796   5.287   7.259  0.3941  1.3589 -2.6497
  120OSM    H8T12645   1.949   5.202   7.271  1.1046  0.6065 -2.6097
  120OSM    C9S12646   1.776   5.071   7.315  0.5070  0.0628 -0.1780
  120OSM    H9S12647   1.822   4.977   7.279 -1.4210 -0.8244 -0.4656
  120OSM    H9T12648   1.667   5.076   7.293  0.4429  0.0228  0.1328
  120OSM   C10S12649   1.804   5.072   7.468  0.1429  0.0136 -1.5051
  120OSM   H10S12650   1.776   5.173   7.505  1.3392 -0.1561 -0.0552
  120OSM   H10T12651   1.913   5.060   7.484  0.1395  1.2959 -0.3960
  120OSM   C11S12652   1.729   4.963   7.540 -0.0709  0.3381 -0.2526
  120OSM   H11S12653   1.774   4.870   7.499 -0.7062  0.2523 -0.7688
  120OSM   H11T12654   1.621   4.952   7.520  0.3263 -1.0630 -1.7764
  120OSM   C12S12655   1.754   4.961   7.696  0.5414 -0.0130  0.4191
  120OSM   H12S12656   1.738   4.857   7.732 -0.8756  0.8544  2.5094
  120OSM   H12T12657   1.666   5.015   7.737  0.3672 -0.0967  0.1596
  120OSM   C13S12658   1.887   5.015   7.747 -0.2465 -0.1396 -0.7826
  120OSM   H13S12659   1.929   5.112   7.712  1.3475 -0.9852 -1.3337
  120OSM   H13T12660   1.960   4.934   7.724 -1.5849 -1.6313 -0.0180
  120OSM   C14S12661   1.904   5.024   7.900  0.2147  0.0120  0.2868
  120OSM   H14S12662   1.827   5.086   7.952  1.5041  0.0370  2.2310
  120OSM   H14T12663   1.999   5.076   7.922  0.2595 -0.3476  0.9640
  120OSM   C15S12664   1.901   4.892   7.966 -0.9147 -0.3341  0.0492
  120OSM   H15S12665   1.967   4.811   7.928  0.5302  0.1499  1.4146
  120OSM   H15T12666   1.799   4.847   7.965 -1.1346  0.1668 -0.2682
  120OSM   C16S12667   1.951   4.891   8.108 -0.5141 -0.4914 -0.4796
  120OSM   H16S12668   2.052   4.938   8.105  0.1739 -1.7596  1.0548
  120OSM   H16T12669   1.970   4.788   8.146 -0.9928 -0.1707  0.6871
  120OSM   C17S12670   1.856   4.945   8.216 -0.7090  0.5444  0.2067
  120OSM   H17S12671   1.832   5.048   8.182 -1.0483 -0.4808 -3.0322
  120OSM   H17T12672   1.900   4.965   8.316 -0.0905  2.5263 -0.4098
  120OSM   C18S12673   1.720   4.865   8.238  0.4120  0.0202 -0.0691
  120OSM   H18S12674   1.677   4.850   8.136 -1.6115 -2.0134  0.9946
  120OSM   H18T12675   1.649   4.915   8.306  0.1270  2.7419 -2.2087
  120OSM   H18U12676   1.753   4.768   8.282  0.4004 -0.0874 -0.2923
  120OSM    C1F12677   2.063   5.309   6.606 -0.2020 -0.5079 -0.2570
  120OSM     OF12678   1.999   5.392   6.547 -0.2123 -0.2539 -0.5248
  120OSM    C2F12679   2.206   5.338   6.649  0.1876  0.1476  0.6535
  120OSM    H2F12680   2.269   5.383   6.569 -1.1500 -2.6257 -2.1776
  120OSM    H2G12681   2.250   5.238   6.668 -0.8070 -0.7008 -1.1565
  120OSM    C3F12682   2.221   5.419   6.783 -0.0617  0.1240  0.0556
  120OSM    H3F12683   2.153   5.507   6.775 -0.9542 -0.4999  0.6632
  120OSM    H3G12684   2.328   5.448   6.776  0.2511 -1.3409 -3.5285
  120OSM    C4F12685   2.196   5.340   6.905 -0.5362 -0.0131  1.0653
  120OSM    H4F12686   2.264   5.253   6.896 -0.5526 -0.1800  2.4228
  120OSM    H4G12687   2.088   5.316   6.910 -0.8050  0.2611 -1.9053
  120OSM    C5F12688   2.236   5.423   7.029 -1.1329  0.1879  0.1253
  120OSM    H5F12689   2.196   5.526   7.020  0.9717  0.9033 -2.0624
  120OSM    H5G12690   2.346   5.428   7.035 -1.1450  0.7530 -0.1382
  120OSM    C6F12691   2.195   5.346   7.158 -0.0019 -0.3374 -0.7168
  120OSM    H6F12692   2.210   5.237   7.169 -1.5515 -0.5030  0.0371
  120OSM    H6G12693   2.084   5.358   7.152  0.0616  0.7790  0.0251
  120OSM    C7F12694   2.271   5.411   7.273 -0.6056 -0.3899 -0.6611
  120OSM    H7F12695   2.250   5.520   7.271 -0.1454 -0.2014  1.6364
  120OSM    H7G12696   2.378   5.384   7.259 -0.6655 -0.4172 -1.0795
  120OSM    C8F12697   2.232   5.360   7.414  0.1377  0.2463  0.8487
  120OSM    H8F12698   2.298   5.403   7.492  0.1877  1.7074  0.0399
  120OSM    H8G12699   2.247   5.251   7.406  2.3730  0.5973 -0.6906
  120OSM    C9F12700   2.086   5.389   7.441  0.2545  0.2638  0.0791
  120OSM    H9F12701   2.018   5.362   7.359  0.8603  0.2136 -0.4147
  120OSM   C10F12702   2.029   5.436   7.555  0.6692  0.5854 -1.0757
  120OSM   H10F12703   1.920   5.437   7.568  0.5340 -1.0969 -1.8549
  120OSM   C11F12704   2.093   5.477   7.688 -0.2424 -0.8665 -0.3604
  120OSM   H11F12705   2.054   5.576   7.718  2.3115  0.0055  0.4163
  120OSM   H11G12706   2.202   5.497   7.682 -0.7394  2.7062  0.6397
  120OSM   C12F12707   2.073   5.381   7.807  0.3781  0.4539 -0.8714
  120OSM   H12F12708   2.120   5.281   7.790  1.4401  0.4623  1.6088
  120OSM   H12G12709   1.963   5.368   7.814 -0.2072  3.7588 -2.0776
  120OSM   C13F12710   2.127   5.438   7.940  0.1442 -0.2540  0.0872
  120OSM   H13F12711   2.087   5.539   7.964 -0.4915 -1.0834  2.8608
  120OSM   H13G12712   2.238   5.434   7.937  0.1316 -0.3079 -0.4416
  120OSM   C14F12713   2.083   5.343   8.058 -0.0561  0.5943  0.1650
  120OSM   H14F12714   2.098   5.234   8.043 -1.6019  0.4447 -0.5165
  120OSM   H14G12715   1.972   5.356   8.060  0.0425  1.6340 -0.5093
  120OSM   C15F12716   2.144   5.388   8.188  0.2782  0.3778 -0.4128
  120OSM   H15F12717   2.119   5.495   8.205 -1.8604 -0.2712  0.9309
  120OSM   H15G12718   2.255   5.386   8.186  0.3359  1.5792  0.5356
  120OSM   C16F12719   2.093   5.311   8.311  0.2999 -0.8191  0.2916
  120OSM   H16F12720   2.144   5.338   8.405  1.0042  1.7603 -0.7472
  120OSM   H16G12721   2.099   5.201   8.298 -2.6031 -1.4683  3.2384
  120OSM   C17F12722   1.943   5.334   8.345  0.5398  0.2238  0.4785
  120OSM   H17F12723   1.935   5.255   8.423  2.0547 -1.0909 -0.6211
  120OSM   H17G12724   1.879   5.304   8.259  1.9888 -2.4666  0.2116
  120OSM   C18F12725   1.902   5.473   8.392  0.2142  0.5064  0.0702
  120OSM   H18F12726   1.922   5.545   8.309 -2.5587 -1.3141 -2.3833
  120OSM   H18G12727   1.961   5.485   8.485  0.7444  0.3983 -0.2508
  120OSM   H18H12728   1.794   5.481   8.418  0.2272  1.1895 -0.0574
  121OSM      N12729   4.084   1.150   5.777  0.0355 -0.4444  0.3552
  121OSM    C1512730   4.156   1.154   5.650 -0.4583 -0.4651 -0.3207
  121OSM   H15A12731   4.086   1.130   5.572 -0.0883  0.3690 -0.9301
  121OSM   H15B12732   4.238   1.086   5.667 -1.2692 -1.0326  1.6674
  121OSM   H15C12733   4.189   1.256   5.632 -0.1225 -0.3928  0.6514
  121OSM    C1412734   3.997   1.268   5.793  0.3004 -0.6323  0.5635
  121OSM   H14A12735   3.930   1.275   5.708  1.4329  1.8185 -0.2221
  121OSM   H14B12736   4.044   1.365   5.802 -1.0498  0.3269 -1.5913
  121OSM   H14C12737   3.941   1.256   5.884  1.5930 -1.1455  1.3007
  121OSM    C1312738   3.994   1.027   5.775 -0.4272  0.2353  0.5006
  121OSM   H13A12739   3.936   1.025   5.866 -0.5954 -1.0791  0.3856
  121OSM   H13B12740   4.053   0.937   5.766 -0.5219  0.2066  0.1705
  121OSM   H13C12741   3.926   1.020   5.691  1.0122 -0.3393 -0.6596
  121OSM    C1212742   4.176   1.142   5.896 -0.2771  0.3630  0.5012
  121OSM   H12A12743   4.119   1.116   5.985  1.6687  0.1588  1.7611
  121OSM   H12B12744   4.210   1.243   5.914 -2.2316  1.1611 -0.0192
  121OSM    C1112745   4.306   1.050   5.890 -0.8119 -0.1562 -0.2226
  121OSM   H11A12746   4.286   0.971   5.814  1.2139  0.0482 -1.0142
  121OSM   H11B12747   4.316   0.995   5.986 -1.5355  0.7415  0.3907
  121OSM      P12748   4.498   1.235   5.914 -0.3087 -0.2073 -0.1624
  121OSM    O1312749   4.645   1.228   5.890  0.1485  0.7310  0.6309
  121OSM    O1412750   4.418   1.357   5.876 -0.5291  0.0799  0.1837
  121OSM    O1112751   4.463   1.207   6.066  0.3590  0.0480 -0.0064
  121OSM    O1212752   4.432   1.104   5.843  0.0266  0.0690 -0.3779
  121OSM    C1S12753   4.550   1.126   6.148  0.0085  0.3337 -0.5659
  121OSM    H1S12754   4.633   1.067   6.104  0.1128 -1.3925  1.7837
  121OSM    H1T12755   4.480   1.047   6.183 -1.5704  2.3644  1.1504
  121OSM     NF12756   4.702   1.097   6.336 -0.1042  0.2220  0.0311
  121OSM    HNF12757   4.657   1.043   6.407 -1.6332 -1.3256 -1.9632
  121OSM    C2S12758   4.618   1.197   6.264 -0.0807 -0.3853  0.1743
  121OSM    H2S12759   4.674   1.282   6.219  0.4634  1.2932  3.6334
  121OSM    C3S12760   4.511   1.257   6.360 -1.0297 -0.3708 -0.4245
  121OSM    H3S12761   4.453   1.168   6.393  0.9510 -1.0444  1.4903
  121OSM     O312762   4.423   1.354   6.305  0.1141 -0.9268 -0.2573
  121OSM    HO312763   4.430   1.340   6.210  1.9020  0.2640 -0.3361
  121OSM    C4S12764   4.581   1.305   6.489 -0.0576 -0.0818  0.5880
  121OSM    H4S12765   4.614   1.225   6.557 -2.7355 -0.3723  1.6492
  121OSM    C5S12766   4.613   1.433   6.523  0.2051 -0.1099 -0.2612
  121OSM    H5S12767   4.591   1.513   6.451  1.4388  1.6604  1.2342
  121OSM    C6S12768   4.684   1.473   6.652 -0.2445 -0.3284  0.8472
  121OSM    H6S12769   4.655   1.574   6.686  1.7754  0.7461 -0.4483
  121OSM    H6T12770   4.789   1.492   6.619 -0.1293 -0.9455  0.8326
  121OSM    C7S12771   4.672   1.379   6.770 -0.4397 -0.5293 -0.0814
  121OSM    H7S12772   4.723   1.284   6.743  0.3158  0.0788 -0.8711
  121OSM    H7T12773   4.565   1.361   6.793 -0.7520  2.1859  0.9686
  121OSM    C8S12774   4.722   1.446   6.898 -0.0038 -0.4863  0.6746
  121OSM    H8S12775   4.811   1.512   6.885 -1.2484  1.7836  2.7672
  121OSM    H8T12776   4.761   1.370   6.969  1.5820  0.7167  1.1571
  121OSM    C9S12777   4.622   1.547   6.956  0.2898  0.2880  0.3233
  121OSM    H9S12778   4.522   1.512   6.923  0.6560 -0.6552  0.1933
  121OSM    H9T12779   4.626   1.646   6.904 -1.6221  0.0297 -0.4133
  121OSM   C10S12780   4.624   1.542   7.107 -0.4371  0.0045 -0.3008
  121OSM   H10S12781   4.729   1.567   7.134  0.1931 -1.6202 -1.1027
  121OSM   H10T12782   4.586   1.441   7.133 -2.4958  0.5372 -1.0717
  121OSM   C11S12783   4.519   1.636   7.161  0.9388  0.7260  0.9213
  121OSM   H11S12784   4.426   1.613   7.105  2.4845 -0.3315 -1.3865
  121OSM   H11T12785   4.556   1.735   7.128  2.3935 -0.0159  0.2501
  121OSM   C12S12786   4.507   1.619   7.313  0.2031  0.1926  0.2631
  121OSM   H12S12787   4.607   1.580   7.341 -0.7550 -3.1145 -0.4169
  121OSM   H12T12788   4.435   1.538   7.337  0.1777 -0.5234 -1.9425
  121OSM   C13S12789   4.467   1.754   7.371 -0.8759  0.3038  0.2209
  121OSM   H13S12790   4.373   1.801   7.334  0.0224  1.9934  0.0157
  121OSM   H13T12791   4.554   1.821   7.358  1.5345 -2.7100 -0.1389
  121OSM   C14S12792   4.449   1.742   7.527 -0.5904  0.2751 -0.4287
  121OSM   H14S12793   4.382   1.658   7.553  1.4597 -0.5495  2.7671
  121OSM   H14T12794   4.409   1.841   7.559  1.3526  1.4695 -1.4711
  121OSM   C15S12795   4.584   1.722   7.605  0.0002  0.3476 -0.3256
  121OSM   H15S12796   4.667   1.793   7.587 -0.9171  1.2847 -1.0069
  121OSM   H15T12797   4.615   1.622   7.569  0.1125 -0.4559  1.8254
  121OSM   C16S12798   4.561   1.708   7.759 -0.1154  0.2199 -0.1902
  121OSM   H16S12799   4.659   1.693   7.810 -1.4444 -0.5564  2.3193
  121OSM   H16T12800   4.504   1.617   7.789 -0.6346  0.9394  1.1163
  121OSM   C17S12801   4.488   1.834   7.825 -0.1641 -0.0018 -0.2777
  121OSM   H17S12802   4.387   1.855   7.785  0.1431  2.8344  0.1866
  121OSM   H17T12803   4.544   1.924   7.790 -1.0379  0.9290  0.6366
  121OSM   C18S12804   4.495   1.831   7.979  0.1501  0.2679 -0.2395
  121OSM   H18S12805   4.441   1.741   8.014  2.4602 -0.8116  0.6991
  121OSM   H18T12806   4.453   1.926   8.019 -0.6927  0.9827 -2.6375
  121OSM   H18U12807   4.600   1.821   8.012  0.3388  0.1413 -0.8714
  121OSM    C1F12808   4.816   1.048   6.286  0.6864 -0.3670 -0.4077
  121OSM     OF12809   4.868   1.107   6.187  0.3802 -0.0393 -0.6171
  121OSM    C2F12810   4.884   0.934   6.362  0.3694  0.3141  0.4011
  121OSM    H2F12811   4.873   0.839   6.305  4.0320  0.5832 -0.9994
  121OSM    H2G12812   4.833   0.910   6.458  0.2646 -1.0382  0.0356
  121OSM    C3F12813   5.029   0.975   6.383  0.0361  0.1607  1.2824
  121OSM    H3F12814   5.081   1.003   6.288  0.6769 -1.8763  0.9846
  121OSM    H3G12815   5.086   0.883   6.407  2.1278  1.0293 -0.0453
  121OSM    C4F12816   5.045   1.075   6.497 -0.8273  0.5251 -0.2067
  121OSM    H4F12817   4.968   1.155   6.491 -1.7454 -0.2904  0.3731
  121OSM    H4G12818   5.145   1.120   6.484  0.5622 -2.2421  0.2327
  121OSM    C5F12819   5.034   1.011   6.635 -0.2887 -0.5971 -0.2257
  121OSM    H5F12820   5.100   0.922   6.633  0.3537 -0.1171 -1.5407
  121OSM    H5G12821   4.926   0.987   6.647 -0.6681  0.4794 -1.2989
  121OSM    C6F12822   5.059   1.109   6.748 -0.3227 -0.2526 -0.0756
  121OSM    H6F12823   5.013   1.208   6.730  0.8080  0.1238 -0.9892
  121OSM    H6G12824   5.168   1.122   6.763 -0.5899  0.4731  1.3872
  121OSM    C7F12825   5.010   1.050   6.881 -0.3648 -0.2904  0.3644
  121OSM    H7F12826   5.043   0.945   6.897 -0.8110 -0.2997  1.2994
  121OSM    H7G12827   4.899   1.045   6.876 -0.3536  0.2363 -1.0438
  121OSM    C8F12828   5.045   1.123   7.011 -0.8793  0.3611  0.2252
  121OSM    H8F12829   4.993   1.221   6.999 -0.7469  0.4586  0.4350
  121OSM    H8G12830   5.151   1.157   7.016 -1.6563  3.1054 -0.1317
  121OSM    C9F12831   4.996   1.061   7.139  0.7103  0.0557  0.2272
  121OSM    H9F12832   5.025   0.956   7.157  1.8681  0.8163  3.5369
  121OSM   C10F12833   4.924   1.110   7.240  0.5059  0.4237  0.9404
  121OSM   H10F12834   4.903   1.051   7.331 -2.5681  0.1668  0.1982
  121OSM   C11F12835   4.870   1.250   7.258 -0.4673 -0.3982  0.3963
  121OSM   H11F12836   4.870   1.306   7.162  0.4755  0.5911  0.9556
  121OSM   H11G12837   4.954   1.298   7.312 -0.7927 -0.4062  0.9250
  121OSM   C12F12838   4.732   1.264   7.323  0.4434  0.0110  0.4810
  121OSM   H12F12839   4.655   1.222   7.254  1.3313  0.4026 -0.7816
  121OSM   H12G12840   4.715   1.373   7.327  2.7456  0.4826 -0.8490
  121OSM   C13F12841   4.721   1.206   7.472  0.8291 -1.0603  0.3179
  121OSM   H13F12842   4.746   1.099   7.456  1.8158 -0.7947  0.0229
  121OSM   H13G12843   4.616   1.221   7.503  0.5374 -0.9538 -0.6908
  121OSM   C14F12844   4.813   1.282   7.572  0.0897  0.1515 -0.0355
  121OSM   H14F12845   4.780   1.385   7.597 -1.9904  0.0281 -1.9813
  121OSM   H14G12846   4.915   1.284   7.528  0.5960 -3.6373  0.6831
  121OSM   C15F12847   4.829   1.207   7.703 -0.0839 -0.7224  0.5156
  121OSM   H15F12848   4.736   1.203   7.765 -0.6244 -0.9193 -0.2926
  121OSM   H15G12849   4.911   1.246   7.767  1.0485 -1.5791 -0.3880
  121OSM   C16F12850   4.875   1.065   7.675 -0.0858  0.4806 -0.4365
  121OSM   H16F12851   4.972   1.078   7.624  0.7222 -0.5241  0.7753
  121OSM   H16G12852   4.802   1.008   7.614  1.1916 -0.1892 -1.3922
  121OSM   C17F12853   4.910   0.983   7.804  0.2862 -0.1044 -0.7238
  121OSM   H17F12854   4.946   1.051   7.885 -1.2345  0.3161 -0.3677
  121OSM   H17G12855   4.986   0.906   7.776  1.3956  1.1298 -1.2004
  121OSM   C18F12856   4.797   0.903   7.882  0.1378  0.3522 -0.4321
  121OSM   H18F12857   4.846   0.820   7.937 -1.2794 -0.3678 -0.1914
  121OSM   H18G12858   4.722   0.851   7.818 -0.1654 -0.9768  0.9336
  121OSM   H18H12859   4.757   0.969   7.962 -0.7012 -0.4445 -0.1709
  122OSM      N12860   4.563   0.388   5.892 -0.1227  0.7118  0.2040
  122OSM    C1512861   4.704   0.436   5.916 -1.8769 -0.1055 -0.7521
  122OSM   H15A12862   4.703   0.532   5.966  0.9784 -0.7995  0.8265
  122OSM   H15B12863   4.760   0.441   5.823 -0.0954 -1.3069  0.2023
  122OSM   H15C12864   4.761   0.374   5.983 -0.8366  0.2839 -1.2484
  122OSM    C1412865   4.506   0.493   5.801  1.4439  0.6787 -0.3127
  122OSM   H14A12866   4.494   0.582   5.861  0.2893  1.7778 -2.1140
  122OSM   H14B12867   4.406   0.464   5.776  1.5080  0.4392 -0.2986
  122OSM   H14C12868   4.572   0.524   5.722  1.7565  1.6121  0.2925
  122OSM    C1312869   4.568   0.253   5.825 -0.2505 -0.5389 -0.0707
  122OSM   H13A12870   4.629   0.175   5.869 -1.0630 -1.4666 -0.5436
  122OSM   H13B12871   4.598   0.272   5.723 -0.9383 -0.0215 -0.1806
  122OSM   H13C12872   4.469   0.209   5.817 -0.5536 -0.1705  1.3188
  122OSM    C1212873   4.495   0.383   6.028 -0.6623 -0.5696  1.1228
  122OSM   H12A12874   4.556   0.318   6.090  0.0926 -1.8811 -0.9086
  122OSM   H12B12875   4.403   0.329   6.012 -0.3829 -0.5807 -0.6214
  122OSM    C1112876   4.468   0.503   6.122 -0.6494  0.7874  0.6435
  122OSM   H11A12877   4.469   0.456   6.222 -2.2060 -1.7005 -0.4026
  122OSM   H11B12878   4.368   0.550   6.114 -0.2397  1.5754 -0.0987
  122OSM      P12879   4.552   0.744   6.082  0.1805 -0.1673  0.0401
  122OSM    O1312880   4.688   0.794   6.043 -0.0273 -0.2178 -0.0681
  122OSM    O1412881   4.455   0.749   5.968  0.2666  0.0517  0.2185
  122OSM    O1112882   4.516   0.824   6.210  0.1288  0.9765 -0.0245
  122OSM    O1212883   4.570   0.595   6.125  0.5004 -0.5977  0.2461
  122OSM    C1S12884   4.494   0.775   6.340 -0.7009  0.1446  0.2446
  122OSM    H1S12885   4.592   0.767   6.391  0.7029  2.2302 -1.9477
  122OSM    H1T12886   4.461   0.669   6.347 -0.8936 -0.0751 -2.6529
  122OSM     NF12887   4.407   0.842   6.561  0.2097 -0.0242  0.2224
  122OSM    HNF12888   4.336   0.783   6.597 -1.4411  2.1717  0.7538
  122OSM    C2S12889   4.397   0.862   6.424  0.3235 -0.3204  0.4391
  122OSM    H2S12890   4.427   0.967   6.405 -1.3121 -0.1314 -1.3801
  122OSM    C3S12891   4.262   0.847   6.353 -0.0205 -0.1683 -0.3758
  122OSM    H3S12892   4.240   0.738   6.361  0.3527 -0.2373 -0.2484
  122OSM     O312893   4.259   0.885   6.214  0.1517  0.0196  0.4946
  122OSM    HO312894   4.350   0.879   6.186 -0.2341 -1.1386 -0.6314
  122OSM    C4S12895   4.151   0.916   6.424 -0.2906 -0.3382 -0.0766
  122OSM    H4S12896   4.079   0.847   6.471 -1.7935  2.1653  1.4874
  122OSM    C5S12897   4.121   1.045   6.420 -0.1364 -0.4617  0.0584
  122OSM    H5S12898   4.171   1.108   6.345  0.5527 -0.8720  0.1644
  122OSM    C6S12899   4.008   1.120   6.493  0.5534  0.7742 -0.0933
  122OSM    H6S12900   3.910   1.109   6.442 -0.9478  1.8917  2.3753
  122OSM    H6T12901   4.032   1.228   6.497  3.6266  0.1782  0.9073
  122OSM    C7S12902   3.982   1.062   6.630 -0.5457  0.6135 -0.2184
  122OSM    H7S12903   4.075   1.064   6.690 -0.6013  3.9726 -0.0222
  122OSM    H7T12904   3.940   0.960   6.639 -2.0743  1.3338  1.3274
  122OSM    C8S12905   3.889   1.158   6.706  0.0532  0.0205 -0.4256
  122OSM    H8S12906   3.795   1.160   6.648 -0.6286 -0.7438  0.6307
  122OSM    H8T12907   3.941   1.256   6.712  0.6192 -0.3585  3.0269
  122OSM    C9S12908   3.872   1.107   6.845 -0.1159  0.0400  0.3003
  122OSM    H9S12909   3.973   1.083   6.884  1.1347  1.5425 -1.7665
  122OSM    H9T12910   3.813   1.013   6.839  1.6361 -1.0057 -2.1723
  122OSM   C10S12911   3.805   1.213   6.934  0.9242 -0.0929  0.2055
  122OSM   H10S12912   3.814   1.162   7.033  0.1031  0.7378  0.7226
  122OSM   H10T12913   3.696   1.220   6.915  0.8749  0.2775  0.6116
  122OSM   C11S12914   3.871   1.348   6.944 -0.3659 -0.2844 -0.5179
  122OSM   H11S12915   3.859   1.397   6.844  4.1933  2.7555  0.1110
  122OSM   H11T12916   3.981   1.343   6.955 -0.3017  1.0194 -0.4049
  122OSM   C12S12917   3.809   1.436   7.058 -0.0965  0.7663  0.1017
  122OSM   H12S12918   3.703   1.434   7.024 -0.5698  1.1746  1.4977
  122OSM   H12T12919   3.858   1.534   7.041  1.1616 -0.1008 -1.7813
  122OSM   C13S12920   3.825   1.369   7.192  0.2566  0.4509  0.5328
  122OSM   H13S12921   3.931   1.356   7.222 -0.1970 -3.3214  0.9757
  122OSM   H13T12922   3.779   1.268   7.199  2.2909 -0.8439 -2.5548
  122OSM   C14S12923   3.742   1.443   7.290  0.5221 -0.4297 -0.2721
  122OSM   H14S12924   3.634   1.439   7.263  0.0264  0.2997  1.4678
  122OSM   H14T12925   3.766   1.552   7.286  0.4090 -0.3927  0.0578
  122OSM   C15S12926   3.762   1.392   7.432  0.0414  0.1732  0.2820
  122OSM   H15S12927   3.868   1.403   7.462  0.5324 -3.3648  0.2979
  122OSM   H15T12928   3.743   1.282   7.437 -0.5688  0.3184  1.4860
  122OSM   C16S12929   3.665   1.449   7.537 -0.1075 -0.1849  0.3528
  122OSM   H16S12930   3.558   1.439   7.507 -0.2092  3.1628 -0.7819
  122OSM   H16T12931   3.683   1.558   7.542  3.1189 -0.5617 -0.6498
  122OSM   C17S12932   3.687   1.390   7.670  0.0105  0.0615  0.1128
  122OSM   H17S12933   3.795   1.405   7.690  0.7575 -1.4224 -2.3595
  122OSM   H17T12934   3.657   1.283   7.674 -2.1103  0.3970 -2.7955
  122OSM   C18S12935   3.608   1.453   7.779 -0.2476  0.0025  0.3675
  122OSM   H18S12936   3.506   1.409   7.773 -0.3472  0.4348 -2.3646
  122OSM   H18T12937   3.601   1.563   7.763 -1.5255 -0.3556 -1.9644
  122OSM   H18U12938   3.657   1.432   7.876  1.5609  0.2223 -0.4492
  122OSM    C1F12939   4.518   0.872   6.625 -0.5251  0.0981  0.1747
  122OSM     OF12940   4.596   0.947   6.571 -0.5352  0.2853 -0.1992
  122OSM    C2F12941   4.538   0.816   6.762  0.3328  0.1333 -0.4208
  122OSM    H2F12942   4.541   0.706   6.750 -0.8197 -0.0555  0.7353
  122OSM    H2G12943   4.464   0.854   6.836  2.2437  3.9515 -0.1850
  122OSM    C3F12944   4.676   0.850   6.817  0.0556  0.1472 -0.1838
  122OSM    H3F12945   4.701   0.958   6.812 -1.8526  0.6341 -0.1940
  122OSM    H3G12946   4.759   0.800   6.763 -1.4130 -0.8897 -1.6075
  122OSM    C4F12947   4.686   0.810   6.966  0.6003  0.0471  0.1778
  122OSM    H4F12948   4.791   0.812   7.002  1.0286  2.0314 -1.0396
  122OSM    H4G12949   4.667   0.701   6.962  1.7352 -0.1321 -1.3199
  122OSM    C5F12950   4.606   0.894   7.062 -0.4324 -0.1669  1.0923
  122OSM    H5F12951   4.505   0.913   7.022  0.3521 -1.5571 -1.8177
  122OSM    H5G12952   4.667   0.985   7.082  0.5474 -0.1794 -1.5724
  122OSM    C6F12953   4.594   0.832   7.197  0.4506  0.5409 -0.5762
  122OSM    H6F12954   4.691   0.800   7.241 -0.3428 -0.7494  0.3186
  122OSM    H6G12955   4.530   0.742   7.189 -0.5158  1.2502 -1.0854
  122OSM    C7F12956   4.515   0.913   7.293 -0.3775 -0.2307  0.4414
  122OSM    H7F12957   4.412   0.933   7.256  0.4654  3.0444 -0.4904
  122OSM    H7G12958   4.555   1.017   7.290 -0.0690 -0.3689 -1.2984
  122OSM    C8F12959   4.505   0.870   7.441  0.3989  0.4147 -0.0960
  122OSM    H8F12960   4.605   0.873   7.487 -0.5975 -1.8976  2.4797
  122OSM    H8G12961   4.475   0.764   7.453  3.9539 -0.7422 -0.3916
  122OSM    C9F12962   4.421   0.970   7.521  0.2236  0.5296  1.0074
  122OSM    H9F12963   4.405   1.073   7.483 -1.1031 -0.1744 -0.4682
  122OSM   C10F12964   4.360   0.944   7.632 -0.0597 -0.2210  0.5353
  122OSM   H10F12965   4.303   1.029   7.673 -0.0550  0.5636 -1.0221
  122OSM   C11F12966   4.377   0.818   7.704 -0.6176  0.0558  0.7068
  122OSM   H11F12967   4.486   0.797   7.715 -0.1474  1.5769 -0.6654
  122OSM   H11G12968   4.329   0.736   7.646 -2.1951  0.3125  1.6099
  122OSM   C12F12969   4.309   0.836   7.839  0.3477 -0.5819  0.1508
  122OSM   H12F12970   4.199   0.841   7.830 -0.0565 -0.8053  3.5986
  122OSM   H12G12971   4.343   0.930   7.888 -3.6705  0.8344  0.5711
  122OSM   C13F12972   4.333   0.713   7.925 -1.5079  0.4414  0.8758
  122OSM   H13F12973   4.444   0.713   7.934 -1.6288 -0.5065  2.8633
  122OSM   H13G12974   4.309   0.630   7.856  0.6706  0.0629  0.5147
  122OSM   C14F12975   4.264   0.718   8.058 -0.2921  0.3721  0.0108
  122OSM   H14F12976   4.272   0.615   8.099  2.2150  0.8301  0.7873
  122OSM   H14G12977   4.156   0.738   8.040 -0.5886 -0.9034  0.2522
  122OSM   C15F12978   4.318   0.816   8.164 -0.7229  0.3266  0.1349
  122OSM   H15F12979   4.263   0.784   8.255 -1.5635  1.8827  0.2120
  122OSM   H15G12980   4.286   0.917   8.130 -3.1878 -0.3651  0.2354
  122OSM   C16F12981   4.471   0.807   8.187  0.8465 -0.5325  0.9395
  122OSM   H16F12982   4.533   0.838   8.100  1.5105 -1.0225  1.2274
  122OSM   H16G12983   4.492   0.703   8.219  0.2235 -0.1452  2.6770
  122OSM   C17F12984   4.504   0.904   8.301  0.0958 -0.3171 -0.9500
  122OSM   H17F12985   4.443   0.864   8.385  0.3780 -0.4283 -0.7995
  122OSM   H17G12986   4.475   1.006   8.268 -0.9267  0.2967  1.6495
  122OSM   C18F12987   4.654   0.891   8.331 -0.1881 -0.6641  0.1270
  122OSM   H18F12988   4.663   0.947   8.426 -1.9064  0.8014 -0.5178
  122OSM   H18G12989   4.718   0.937   8.253  1.0349 -0.0367  1.4580
  122OSM   H18H12990   4.680   0.783   8.343 -3.9695 -1.7711 -0.4638
  123OSM      N12991   6.687   3.546   6.229 -0.2154  0.1486  0.1742
  123OSM    C1512992   6.563   3.621   6.183 -0.1199 -0.5168 -0.3793
  123OSM   H15A12993   6.476   3.556   6.177 -0.8774  0.6071 -3.2102
  123OSM   H15B12994   6.581   3.673   6.090  0.1032  3.3557  1.6291
  123OSM   H15C12995   6.539   3.699   6.254 -1.0553 -0.2025 -1.0214
  123OSM    C1412996   6.718   3.439   6.129  0.6218 -0.0703 -0.5043
  123OSM   H14A12997   6.807   3.389   6.163 -1.1805 -1.6775  2.2171
  123OSM   H14B12998   6.729   3.476   6.028  0.0344 -0.9398 -0.9039
  123OSM   H14C12999   6.641   3.363   6.125  0.3020  0.2101  0.1955
  123OSM    C1313000   6.807   3.631   6.253  0.0356 -0.5162  0.0442
  123OSM   H13A13001   6.886   3.562   6.277 -0.4082 -1.4840 -1.1774
  123OSM   H13B13002   6.798   3.693   6.341 -0.2586  1.9475 -1.6161
  123OSM   H13C13003   6.823   3.691   6.164 -2.1510  0.3302  0.1668
  123OSM    C1213004   6.655   3.478   6.362  0.3259 -0.4987 -0.3959
  123OSM   H12A13005   6.555   3.440   6.370  0.5992 -1.3592 -0.9234
  123OSM   H12B13006   6.657   3.550   6.442 -1.8916  0.1573 -0.8747
  123OSM    C1113007   6.740   3.365   6.409  0.3045 -0.0783 -0.2710
  123OSM   H11A13008   6.713   3.338   6.513 -0.5470 -0.5453 -0.6031
  123OSM   H11B13009   6.847   3.398   6.409  0.7414 -1.1473 -3.1618
  123OSM      P13010   6.642   3.133   6.338  0.1052  0.1630  0.1370
  123OSM    O1313011   6.505   3.176   6.304 -0.2552 -0.0503 -0.0629
  123OSM    O1413012   6.695   3.016   6.260  0.5830  0.5882 -0.1856
  123OSM    O1113013   6.645   3.108   6.497  0.0521 -0.5558  0.4987
  123OSM    O1213014   6.742   3.253   6.316  0.3493  0.5994 -0.1450
  123OSM    C1S13015   6.767   3.058   6.569  0.2990  0.3643 -0.8227
  123OSM    H1S13016   6.858   3.119   6.549  1.6522  0.0660  3.4446
  123OSM    H1T13017   6.791   2.957   6.531  0.1333  0.4697 -1.2100
  123OSM     NF13018   6.867   3.025   6.800 -0.0902  0.0317 -0.2227
  123OSM    HNF13019   6.864   2.939   6.850 -0.4015  0.0761 -0.1662
  123OSM    C2S13020   6.751   3.058   6.724  0.8606 -0.0516  0.3399
  123OSM    H2S13021   6.729   3.160   6.761 -1.0017 -1.0043  2.0296
  123OSM    C3S13022   6.626   2.970   6.760  0.5088  0.2061  0.4315
  123OSM    H3S13023   6.642   2.863   6.736  1.3381 -0.3769  3.2996
  123OSM     O313024   6.504   3.011   6.700 -0.1589 -0.0951  0.0963
  123OSM    HO313025   6.532   3.082   6.642  1.3744 -1.0599 -0.3857
  123OSM    C4S13026   6.595   2.965   6.911 -0.2558 -0.7235  0.2110
  123OSM    H4S13027   6.634   2.876   6.962  2.8339  0.1361 -0.4399
  123OSM    C5S13028   6.515   3.057   6.973 -0.0532 -0.0652 -0.0083
  123OSM    H5S13029   6.465   3.134   6.912 -2.7548 -2.2873 -0.7913
  123OSM    C6S13030   6.490   3.061   7.124  0.7129 -0.0246 -0.5044
  123OSM    H6S13031   6.394   3.015   7.156  1.2054 -0.6378  0.1128
  123OSM    H6T13032   6.483   3.170   7.145 -2.5680  0.0828 -1.5654
  123OSM    C7S13033   6.600   2.994   7.209 -0.3864 -0.6417 -0.6317
  123OSM    H7S13034   6.698   3.038   7.182  0.7377 -2.4314  0.3196
  123OSM    H7T13035   6.620   2.886   7.194  1.3059 -0.3084 -0.9179
  123OSM    C8S13036   6.588   3.032   7.362  0.6871 -0.3295  0.0467
  123OSM    H8S13037   6.609   3.140   7.375 -0.8265  0.0027 -0.0277
  123OSM    H8T13038   6.671   2.988   7.421 -0.6980  1.4726  3.6237
  123OSM    C9S13039   6.464   2.993   7.433 -0.0802  0.1176  0.2532
  123OSM    H9S13040   6.461   2.887   7.400 -0.3234  0.5690 -1.2331
  123OSM    H9T13041   6.364   3.026   7.397  0.5640 -0.5045 -2.3349
  123OSM   C10S13042   6.475   2.996   7.581  0.3937 -0.0728  0.1684
  123OSM   H10S13043   6.469   3.102   7.614 -3.4782 -0.7449  2.2881
  123OSM   H10T13044   6.570   2.947   7.610  0.1968 -0.8382 -0.4535
  123OSM   C11S13045   6.354   2.925   7.651  0.8474  0.2351  0.1829
  123OSM   H11S13046   6.377   2.820   7.624 -0.5200 -0.0269 -0.0359
  123OSM   H11T13047   6.263   2.955   7.595  0.2981 -1.9756 -0.1891
  123OSM   C12S13048   6.344   2.959   7.798 -0.7525 -0.6374  0.2943
  123OSM   H12S13049   6.336   3.069   7.802  0.4276 -0.5396  0.4233
  123OSM   H12T13050   6.444   2.939   7.842  1.3297  4.4429 -1.4474
  123OSM   C13S13051   6.210   2.907   7.861  0.5173  0.1094 -0.5983
  123OSM   H13S13052   6.205   2.798   7.844  0.9441  0.0774 -0.5326
  123OSM   H13T13053   6.121   2.949   7.809  0.6910 -0.3495 -1.2819
  123OSM   C14S13054   6.200   2.942   8.011  0.0385 -0.5143  0.6779
  123OSM   H14S13055   6.105   2.914   8.061 -0.9205  1.6065  0.1491
  123OSM   H14T13056   6.218   3.052   8.015  2.0866 -0.7506 -0.6325
  123OSM   C15S13057   6.313   2.885   8.095  0.2139 -0.2906 -0.3383
  123OSM   H15S13058   6.413   2.916   8.057  0.1224  1.5675  0.8162
  123OSM   H15T13059   6.325   2.775   8.096  2.8455 -0.0653 -0.2276
  123OSM   C16S13060   6.286   2.928   8.237  0.0457 -0.0217 -0.3871
  123OSM   H16S13061   6.194   2.892   8.288  1.3531 -0.7042  1.6236
  123OSM   H16T13062   6.284   3.039   8.246 -0.8658  0.0227 -0.9861
  123OSM   C17S13063   6.396   2.877   8.329 -0.2701  0.0475  0.4393
  123OSM   H17S13064   6.489   2.934   8.310 -1.3739  1.8633  0.2435
  123OSM   H17T13065   6.410   2.771   8.297 -2.7184  0.5620 -2.9584
  123OSM   C18S13066   6.348   2.873   8.471 -0.4060 -0.9864 -0.4237
  123OSM   H18S13067   6.334   2.977   8.509 -2.4206 -1.3850  0.0363
  123OSM   H18T13068   6.412   2.823   8.546 -0.9347 -0.2167  0.5658
  123OSM   H18U13069   6.246   2.832   8.481 -0.7075  0.1030  1.6150
  123OSM    C1F13070   6.978   3.097   6.803  0.0458 -0.6018  0.2574
  123OSM     OF13071   6.985   3.193   6.728 -0.2650  0.2623  0.2808
  123OSM    C2F13072   7.087   3.052   6.897  0.0864  0.3070  0.4442
  123OSM    H2F13073   7.108   2.946   6.872 -0.0861  0.1871  0.8151
  123OSM    H2G13074   7.054   3.063   7.002  0.0226 -1.2382  0.6079
  123OSM    C3F13075   7.223   3.125   6.873 -0.0657  0.0553  0.1414
  123OSM    H3F13076   7.208   3.231   6.902  2.0778  0.2997  0.4928
  123OSM    H3G13077   7.241   3.127   6.764  0.3184 -0.5032  0.1900
  123OSM    C4F13078   7.346   3.056   6.933  0.0286  0.3441 -0.2584
  123OSM    H4F13079   7.441   3.103   6.902  0.2496 -0.3758 -0.7002
  123OSM    H4G13080   7.346   2.953   6.892 -1.1326 -0.2665  1.2059
  123OSM    C5F13081   7.336   3.052   7.090 -0.4904  0.4937 -0.4348
  123OSM    H5F13082   7.243   2.997   7.113  0.4947 -0.6129  1.1009
  123OSM    H5G13083   7.329   3.153   7.135  2.5276  0.9883 -0.8161
  123OSM    C6F13084   7.460   2.985   7.167  0.0081  0.0840 -0.5262
  123OSM    H6F13085   7.458   3.001   7.277  1.6285  0.3235 -0.5195
  123OSM    H6G13086   7.549   3.044   7.136  0.3772  0.1411  0.6044
  123OSM    C7F13087   7.483   2.838   7.132  0.0632  0.3344 -0.4782
  123OSM    H7F13088   7.512   2.836   7.025  0.7148  0.5826 -0.3108
  123OSM    H7G13089   7.386   2.783   7.136  0.1872  0.1454 -0.0372
  123OSM    C8F13090   7.588   2.759   7.217  0.4318  0.4194  0.2090
  123OSM    H8F13091   7.609   2.661   7.168  1.4275  0.5362  0.3790
  123OSM    H8G13092   7.540   2.744   7.316 -2.0439 -1.3710 -1.1502
  123OSM    C9F13093   7.717   2.835   7.211  0.7309  0.0650 -0.1092
  123OSM    H9F13094   7.753   2.850   7.109  1.4513  0.5227  0.2098
  123OSM   C10F13095   7.794   2.880   7.307 -0.5640  0.0634 -0.8398
  123OSM   H10F13096   7.881   2.944   7.290  0.9082 -1.0934  1.7250
  123OSM   C11F13097   7.774   2.872   7.455 -1.3925 -0.7866 -0.0497
  123OSM   H11F13098   7.867   2.881   7.515 -0.6298  0.1815 -1.3386
  123OSM   H11G13099   7.723   2.775   7.475 -1.0918 -0.9096  0.1273
  123OSM   C12F13100   7.668   2.973   7.509 -0.1930 -0.0127  0.5173
  123OSM   H12F13101   7.572   2.959   7.455  0.8045  0.0970 -1.3609
  123OSM   H12G13102   7.705   3.077   7.496  2.0472 -0.8456 -0.2771
  123OSM   C13F13103   7.652   2.940   7.662  0.2535 -0.0086 -0.1561
  123OSM   H13F13104   7.744   2.974   7.714  0.4741 -0.8359 -0.0039
  123OSM   H13G13105   7.645   2.829   7.662  0.8697 -0.0651 -1.7368
  123OSM   C14F13106   7.536   3.024   7.723  0.5069 -0.1164 -0.1587
  123OSM   H14F13107   7.433   2.991   7.696 -0.4320  3.0339 -0.8963
  123OSM   H14G13108   7.543   3.129   7.685  0.0137  1.1056  2.8814
  123OSM   C15F13109   7.549   3.037   7.878 -0.3654  0.1021 -0.1598
  123OSM   H15F13110   7.471   3.101   7.923  0.3002  0.5079  0.4398
  123OSM   H15G13111   7.653   3.072   7.896  0.6717 -1.5072 -2.5058
  123OSM   C16F13112   7.521   2.900   7.947 -0.1822 -0.4144 -0.7183
  123OSM   H16F13113   7.609   2.836   7.929  0.9108  1.3705 -2.1600
  123OSM   H16G13114   7.425   2.859   7.909 -1.6538 -1.0477  3.2234
  123OSM   C17F13115   7.510   2.919   8.102 -0.2591  0.0196  0.5010
  123OSM   H17F13116   7.497   2.815   8.141 -1.9145 -0.9216 -2.2861
  123OSM   H17G13117   7.423   2.986   8.118 -0.7025  0.0663 -1.7706
  123OSM   C18F13118   7.634   2.983   8.170  0.1233  0.4634 -0.0487
  123OSM   H18F13119   7.612   2.994   8.278 -1.5080 -0.3272 -0.2568
  123OSM   H18G13120   7.682   3.070   8.121  2.9857 -1.3200 -0.6206
  123OSM   H18H13121   7.720   2.912   8.167  1.0721  1.5498  0.6102
  124OSM      N13122   0.461   5.877   5.895  0.4706  0.9012  0.1114
  124OSM    C1513123   0.593   5.803   5.903 -0.5362  0.2922 -0.3860
  124OSM   H15A13124   0.664   5.855   5.965  0.7908 -1.9763  0.0732
  124OSM   H15B13125   0.635   5.786   5.805  1.5763  0.3099  0.4675
  124OSM   H15C13126   0.569   5.708   5.947  1.4027 -0.1902 -0.2980
  124OSM    C1413127   0.501   6.015   5.851  0.8210 -0.3036  0.5064
  124OSM   H14A13128   0.547   6.068   5.933  0.0870  1.1397  0.0225
  124OSM   H14B13129   0.411   6.073   5.841  0.0306 -1.5981 -0.1319
  124OSM   H14C13130   0.572   6.005   5.770  1.7222  3.0070  0.7388
  124OSM    C1313131   0.375   5.805   5.786 -0.4791 -1.2239 -0.3843
  124OSM   H13A13132   0.429   5.823   5.694  1.5470 -0.6089  0.8498
  124OSM   H13B13133   0.279   5.854   5.783 -0.8166 -1.8043  0.5734
  124OSM   H13C13134   0.362   5.700   5.806  1.0724 -1.0372  2.0664
  124OSM    C1213135   0.396   5.883   6.041  0.2259  0.5880  0.0561
  124OSM   H12A13136   0.399   5.782   6.080  1.7697  0.4049 -0.4582
  124OSM   H12B13137   0.292   5.904   6.021  0.0146 -2.0401 -2.2152
  124OSM    C1113138   0.461   5.968   6.154  0.0296 -0.4723  0.2509
  124OSM   H11A13139   0.390   5.962   6.239  1.1990 -0.3063  1.2739
  124OSM   H11B13140   0.453   6.074   6.121 -0.5526 -0.7487 -0.5107
  124OSM      P13141   0.623   5.801   6.270  0.1677  0.0069 -0.1482
  124OSM    O1313142   0.508   5.713   6.275  0.8989 -0.5551 -0.7116
  124OSM    O1413143   0.748   5.740   6.223 -0.1083  0.3726  0.6275
  124OSM    O1113144   0.639   5.848   6.421 -0.5651 -0.2271  0.1778
  124OSM    O1213145   0.594   5.927   6.186 -0.2947  0.3482 -0.3868
  124OSM    C1S13146   0.757   5.922   6.463 -0.1974  0.8246  0.0792
  124OSM    H1S13147   0.769   6.014   6.401 -0.4032  0.1503 -1.0031
  124OSM    H1T13148   0.846   5.859   6.442 -0.4301  0.6993 -0.5726
  124OSM     NF13149   0.855   6.037   6.660 -0.2485  0.4205  0.4544
  124OSM    HNF13150   0.930   5.985   6.701 -0.4277 -0.1209  0.0973
  124OSM    C2S13151   0.742   5.958   6.617 -0.1810 -0.3617  0.3454
  124OSM    H2S13152   0.656   6.027   6.632  1.9275  2.0621  2.2028
  124OSM    C3S13153   0.719   5.834   6.703 -0.0445  0.2387 -0.6199
  124OSM    H3S13154   0.815   5.778   6.709  0.0686  0.3399 -1.3335
  124OSM     O313155   0.611   5.744   6.670  0.1779  0.0249 -0.3250
  124OSM    HO313156   0.564   5.776   6.593  0.7398  0.5433 -0.4609
  124OSM    C4S13157   0.685   5.890   6.837  0.6479  0.4343 -0.7291
  124OSM    H4S13158   0.579   5.918   6.845  0.0514 -1.8884  0.2108
  124OSM    C5S13159   0.766   5.894   6.941  1.0506 -0.4760  0.1150
  124OSM    H5S13160   0.873   5.870   6.925  1.1219 -0.6959  0.8518
  124OSM    C6S13161   0.721   5.936   7.081 -0.4061 -0.0828 -0.0098
  124OSM    H6S13162   0.622   5.986   7.079 -0.4415 -0.1663 -0.3967
  124OSM    H6T13163   0.791   6.015   7.115 -0.2351 -0.3317  0.2211
  124OSM    C7S13164   0.710   5.830   7.191  0.1564 -0.2143 -0.4482
  124OSM    H7S13165   0.796   5.761   7.201  0.8497  1.0384  4.3698
  124OSM    H7T13166   0.612   5.779   7.176 -0.6057  1.3318 -0.8627
  124OSM    C8S13167   0.690   5.886   7.329 -0.8532 -0.2586  0.0538
  124OSM    H8S13168   0.605   5.957   7.324  0.5626  1.4969 -0.8259
  124OSM    H8T13169   0.782   5.944   7.354 -1.7659  1.0331  0.5088
  124OSM    C9S13170   0.674   5.780   7.439 -0.0224 -0.6070  0.4554
  124OSM    H9S13171   0.755   5.703   7.434  0.8268  0.2349  0.8351
  124OSM    H9T13172   0.582   5.723   7.413 -0.1137 -0.4919  0.5272
  124OSM   C10S13173   0.662   5.850   7.576  0.2169  0.5554 -0.4918
  124OSM   H10S13174   0.575   5.919   7.576  0.0807  0.3893 -1.0896
  124OSM   H10T13175   0.759   5.899   7.598  1.9302 -2.5190 -0.7135
  124OSM   C11S13176   0.637   5.757   7.694 -0.9528  0.0765 -0.2272
  124OSM   H11S13177   0.731   5.698   7.707  0.1479  1.6499 -0.7757
  124OSM   H11T13178   0.557   5.681   7.682 -0.4197 -0.4620 -0.4675
  124OSM   C12S13179   0.615   5.837   7.824  0.7404  1.2568  0.6723
  124OSM   H12S13180   0.532   5.911   7.816 -0.9449 -0.5626  0.7739
  124OSM   H12T13181   0.712   5.889   7.842  1.3787  0.2030  0.3826
  124OSM   C13S13182   0.586   5.742   7.938  0.9204 -0.0320  0.3272
  124OSM   H13S13183   0.510   5.665   7.914  3.3829 -2.2750 -0.8586
  124OSM   H13T13184   0.554   5.797   8.029  1.6875  1.7311 -0.4289
  124OSM   C14S13185   0.710   5.660   7.983 -0.4105 -0.0074  0.5032
  124OSM   H14S13186   0.789   5.731   8.018 -1.3162  1.9368 -1.1892
  124OSM   H14T13187   0.742   5.594   7.900 -1.1568 -2.3830  2.0246
  124OSM   C15S13188   0.673   5.572   8.107 -0.7228 -1.0418  0.9218
  124OSM   H15S13189   0.754   5.501   8.134  0.4513  0.0518  0.4119
  124OSM   H15T13190   0.585   5.509   8.082 -0.9893  0.0788 -1.2530
  124OSM   C16S13191   0.657   5.645   8.243  0.9033 -0.3908  0.6788
  124OSM   H16S13192   0.639   5.567   8.319  2.7159 -0.2083  1.3352
  124OSM   H16T13193   0.563   5.704   8.241  1.9267  1.3528  1.6362
  124OSM   C17S13194   0.765   5.751   8.270 -1.3985  0.3180 -0.5398
  124OSM   H17S13195   0.754   5.829   8.192 -0.0610  1.5578  0.4677
  124OSM   H17T13196   0.866   5.706   8.255 -1.5873 -0.9175  1.5122
  124OSM   C18S13197   0.755   5.822   8.407 -0.4889  0.7738  0.4069
  124OSM   H18S13198   0.653   5.865   8.411 -1.2829 -0.6632 -2.1401
  124OSM   H18T13199   0.835   5.897   8.424 -1.0944  1.4761  0.1836
  124OSM   H18U13200   0.755   5.741   8.483 -2.8410  0.6324  0.3356
  124OSM    C1F13201   0.868   6.163   6.628  0.8866  0.3796  0.3381
  124OSM     OF13202   0.765   6.231   6.601  0.1668  0.0907  0.1055
  124OSM    C2F13203   1.010   6.221   6.622 -0.8481 -0.7661  0.7823
  124OSM    H2F13204   1.049   6.176   6.529  1.2456 -0.0005  1.2161
  124OSM    H2G13205   1.066   6.172   6.705  0.2173 -1.2830 -0.2046
  124OSM    C3F13206   1.007   6.376   6.603 -0.4895 -0.4096  1.2968
  124OSM    H3F13207   0.956   6.402   6.508  2.7885  2.0008  0.0236
  124OSM    H3G13208   1.113   6.406   6.587 -1.6469  2.4202 -2.3041
  124OSM    C4F13209   0.946   6.448   6.720 -0.6196  0.0573  0.0766
  124OSM    H4F13210   1.000   6.414   6.811 -0.3168 -0.4953 -0.3039
  124OSM    H4G13211   0.838   6.424   6.729 -0.5537  0.2459  1.5506
  124OSM    C5F13212   0.981   6.600   6.711 -0.4183  0.1464  0.4986
  124OSM    H5F13213   0.947   6.643   6.614 -0.8715  0.8464  0.9594
  124OSM    H5G13214   1.091   6.613   6.722 -0.1673 -1.2138 -0.1186
  124OSM    C6F13215   0.907   6.676   6.815 -0.4653  0.4607 -0.5000
  124OSM    H6F13216   0.925   6.629   6.914  1.0450  1.8213 -0.0765
  124OSM    H6G13217   0.798   6.688   6.796 -0.4424  1.1711 -0.2123
  124OSM    C7F13218   0.957   6.827   6.821 -0.1494  0.0544 -0.9737
  124OSM    H7F13219   0.940   6.874   6.722 -0.2833  0.0619 -0.9470
  124OSM    H7G13220   1.067   6.830   6.838 -0.1448  1.5780 -1.1234
  124OSM    C8F13221   0.877   6.917   6.915 -0.7125 -0.4719 -0.3421
  124OSM    H8F13222   0.770   6.927   6.887 -1.8956 -3.0789  2.6704
  124OSM    H8G13223   0.926   7.017   6.917  2.3898 -1.8957 -0.3124
  124OSM    C9F13224   0.885   6.849   7.052 -0.6500 -0.3686  0.0808
  124OSM    H9F13225   0.819   6.762   7.065  1.2193 -1.6741  1.3539
  124OSM   C10F13226   0.945   6.886   7.165 -0.7729  0.2503  0.3182
  124OSM   H10F13227   0.931   6.820   7.252 -2.2287  0.6897  0.4308
  124OSM   C11F13228   1.036   7.004   7.195 -0.3411 -0.0309 -0.1989
  124OSM   H11F13229   0.987   7.087   7.249  0.7780 -0.1142  1.0160
  124OSM   H11G13230   1.073   7.051   7.101  1.4313  0.2652  0.5975
  124OSM   C12F13231   1.159   6.971   7.282 -1.3027 -0.3863 -0.2996
  124OSM   H12F13232   1.225   7.059   7.267 -0.0718 -1.3448 -0.6917
  124OSM   H12G13233   1.219   6.884   7.245  1.5661  0.0557  2.7846
  124OSM   C13F13234   1.132   6.949   7.431 -0.1668 -0.0188  0.3547
  124OSM   H13F13235   1.072   6.856   7.435 -0.8662  0.4113  0.1082
  124OSM   H13G13236   1.071   7.034   7.470  1.1504  0.1325  2.2599
  124OSM   C14F13237   1.256   6.934   7.522 -0.1215  0.2112  0.5248
  124OSM   H14F13238   1.324   7.013   7.483  0.6579 -2.0379 -3.1301
  124OSM   H14G13239   1.296   6.832   7.504 -1.2680 -0.5067  1.8833
  124OSM   C15F13240   1.235   6.936   7.678  0.0463 -0.1913  0.5092
  124OSM   H15F13241   1.194   6.837   7.704  1.2413 -0.4171  1.6469
  124OSM   H15G13242   1.166   7.020   7.702 -1.6991 -2.3608  3.7390
  124OSM   C16F13243   1.356   6.949   7.770  0.6470 -0.4900  0.1822
  124OSM   H16F13244   1.413   7.038   7.735  0.0488  0.5262  1.6971
  124OSM   H16G13245   1.418   6.857   7.761  0.3696 -0.5467 -1.4988
  124OSM   C17F13246   1.328   6.958   7.918 -0.1871 -0.3981 -0.9146
  124OSM   H17F13247   1.240   6.893   7.934  0.2493 -0.6583  0.6112
  124OSM   H17G13248   1.291   7.052   7.964  0.3464 -0.6166 -0.0089
  124OSM   C18F13249   1.439   6.908   8.011 -0.5654  0.8713 -0.2083
  124OSM   H18F13250   1.540   6.940   7.978  0.3570 -2.8241 -1.4713
  124OSM   H18G13251   1.435   6.798   8.002 -1.8114  0.7552  1.4342
  124OSM   H18H13252   1.418   6.934   8.117 -1.4843  0.6922 -0.3424
  125OSM      N13253   3.750   5.931   6.491  0.8276  0.2342  0.3406
  125OSM    C1513254   3.680   6.021   6.396  0.7258 -0.1656  0.1315
  125OSM   H15A13255   3.607   6.087   6.441  0.2241 -0.1768 -0.6514
  125OSM   H15B13256   3.620   5.964   6.327  0.2269  0.5657 -0.0415
  125OSM   H15C13257   3.744   6.085   6.338  1.4730 -0.0426  1.0614
  125OSM    C1413258   3.641   5.866   6.577 -1.0931 -0.5064 -0.0881
  125OSM   H14A13259   3.553   5.828   6.527  0.0042 -0.1754 -2.3548
  125OSM   H14B13260   3.604   5.943   6.643 -0.4017  0.4841 -0.8327
  125OSM   H14C13261   3.681   5.785   6.637  0.1929  0.0001 -0.2212
  125OSM    C1313262   3.836   5.823   6.413 -0.1200  0.2749 -0.6485
  125OSM   H13A13263   3.778   5.756   6.351 -1.6267  0.8199  0.1284
  125OSM   H13B13264   3.886   5.768   6.491 -1.5145 -1.0930 -0.6750
  125OSM   H13C13265   3.914   5.874   6.357  0.5938  0.7793  0.7691
  125OSM    C1213266   3.838   6.010   6.584  0.1697 -0.0956  0.4498
  125OSM   H12A13267   3.896   5.937   6.639 -0.3330 -1.0151 -0.2107
  125OSM   H12B13268   3.789   6.071   6.659  2.0754 -0.3009  1.9472
  125OSM    C1113269   3.948   6.104   6.532  0.4854  0.5462  0.2718
  125OSM   H11A13270   4.010   6.040   6.467 -1.1297  0.5411 -1.3173
  125OSM   H11B13271   4.008   6.137   6.620  2.1512 -0.6915 -0.3641
  125OSM      P13272   3.992   6.301   6.376  0.7766  0.3012  0.1607
  125OSM    O1313273   4.024   6.218   6.262  0.0741  0.8396  0.3143
  125OSM    O1413274   3.938   6.435   6.344  0.1559 -0.0380  0.0075
  125OSM    O1113275   4.117   6.324   6.461 -0.3645  0.2357  0.2276
  125OSM    O1213276   3.896   6.219   6.470  0.3826  0.0328 -0.2336
  125OSM    C1S13277   4.158   6.449   6.520 -0.6523 -1.2300  0.0943
  125OSM    H1S13278   4.074   6.498   6.574  1.0816 -0.0759  1.8696
  125OSM    H1T13279   4.193   6.513   6.437  2.1229 -2.7529 -0.0274
  125OSM     NF13280   4.309   6.571   6.670 -0.0499 -0.3406  0.4318
  125OSM    HNF13281   4.389   6.620   6.637  0.7074 -1.5864  0.3372
  125OSM    C2S13282   4.281   6.438   6.622 -0.4399 -0.9264  0.3813
  125OSM    H2S13283   4.237   6.369   6.697 -2.1251 -1.2166 -0.8102
  125OSM    C3S13284   4.402   6.358   6.553 -0.2739 -0.3047 -0.1026
  125OSM    H3S13285   4.443   6.429   6.479 -0.1407  0.0669  0.3223
  125OSM     O313286   4.367   6.240   6.489  0.1908  0.4800  0.1744
  125OSM    HO313287   4.272   6.253   6.477  0.6057  3.6559 -0.4236
  125OSM    C4S13288   4.507   6.325   6.651 -0.3155 -0.3833 -0.0944
  125OSM    H4S13289   4.589   6.398   6.650  0.3544 -1.0941  1.0428
  125OSM    C5S13290   4.514   6.217   6.734 -0.0207 -0.0391  0.5798
  125OSM    H5S13291   4.442   6.133   6.728  0.1575 -0.1034 -1.7659
  125OSM    C6S13292   4.626   6.192   6.827 -0.0058  0.0804 -0.2008
  125OSM    H6S13293   4.717   6.253   6.811  0.0570 -0.6076 -2.8820
  125OSM    H6T13294   4.655   6.085   6.831 -0.0055  0.0050 -1.6983
  125OSM    C7S13295   4.575   6.232   6.966  0.1107 -0.6569 -0.3465
  125OSM    H7S13296   4.483   6.177   6.994 -0.4955  0.3889 -0.2503
  125OSM    H7T13297   4.546   6.339   6.963 -2.4719 -1.3008 -2.6523
  125OSM    C8S13298   4.675   6.205   7.078  0.5305  0.4058  0.2041
  125OSM    H8S13299   4.752   6.282   7.055  1.1499 -0.0464  0.7433
  125OSM    H8T13300   4.712   6.100   7.070  1.9590  0.8185  1.1032
  125OSM    C9S13301   4.615   6.213   7.221  0.5358 -0.5035 -0.3930
  125OSM    H9S13302   4.570   6.115   7.247 -1.5196  0.8885  1.7212
  125OSM    H9T13303   4.533   6.288   7.213  1.2960  0.2537 -1.3851
  125OSM   C10S13304   4.728   6.249   7.311  0.3918 -0.0298  0.1261
  125OSM   H10S13305   4.752   6.354   7.281 -1.6174  0.5848  0.5335
  125OSM   H10T13306   4.821   6.196   7.281  0.3938  0.0760 -0.0621
  125OSM   C11S13307   4.693   6.256   7.463 -0.2246  0.3572 -0.2319
  125OSM   H11S13308   4.584   6.270   7.485 -0.7029 -2.0108 -0.8116
  125OSM   H11T13309   4.752   6.341   7.504  1.5155 -1.4917  1.3089
  125OSM   C12S13310   4.740   6.117   7.515 -0.7491  0.4383 -0.0027
  125OSM   H12S13311   4.847   6.119   7.485 -0.7075 -1.3456 -0.0937
  125OSM   H12T13312   4.712   6.028   7.454 -1.6881 -1.7042  3.2827
  125OSM   C13S13313   4.723   6.099   7.664 -0.6521 -0.4030  0.2134
  125OSM   H13S13314   4.615   6.097   7.692 -0.3551 -0.5049  1.4092
  125OSM   H13T13315   4.770   6.182   7.720 -0.7554 -0.7279  0.7877
  125OSM   C14S13316   4.798   5.968   7.717 -0.2508 -0.5081 -0.0993
  125OSM   H14S13317   4.906   5.990   7.704 -0.7437  0.4903 -3.1691
  125OSM   H14T13318   4.781   5.887   7.644  1.3647  0.8029 -2.0434
  125OSM   C15S13319   4.759   5.924   7.862 -0.1314 -0.0789 -0.3635
  125OSM   H15S13320   4.649   5.935   7.870 -0.5875 -2.4298 -2.1816
  125OSM   H15T13321   4.803   5.997   7.933  0.7843 -1.1700  0.2222
  125OSM   C16S13322   4.806   5.779   7.885  0.0135  0.1236 -0.0605
  125OSM   H16S13323   4.911   5.770   7.848  0.8159  2.9155  1.2855
  125OSM   H16T13324   4.750   5.706   7.823 -1.1611  0.2050  0.8840
  125OSM   C17S13325   4.810   5.746   8.035  1.1455 -0.1719  0.4271
  125OSM   H17S13326   4.903   5.785   8.082  1.9502 -1.3261 -0.1338
  125OSM   H17T13327   4.828   5.637   8.048  1.1816 -0.1897  0.2305
  125OSM   C18S13328   4.684   5.785   8.109  0.0034  0.2560 -0.3681
  125OSM   H18S13329   4.683   5.740   8.211 -0.5940  0.5351 -0.2452
  125OSM   H18T13330   4.600   5.742   8.050 -0.0504 -1.0781  0.6212
  125OSM   H18U13331   4.688   5.895   8.125 -0.6023  0.1698  0.5319
  125OSM    C1F13332   4.225   6.628   6.755 -0.5503  0.7683 -0.2779
  125OSM     OF13333   4.120   6.566   6.789  0.1132  0.4189 -0.1108
  125OSM    C2F13334   4.257   6.782   6.785  0.5556  0.5828  0.4044
  125OSM    H2F13335   4.185   6.845   6.729  0.2508  1.8166  2.1127
  125OSM    H2G13336   4.346   6.797   6.721 -1.3754  0.8042 -2.3901
  125OSM    C3F13337   4.265   6.809   6.934  0.2833  0.1756 -0.0995
  125OSM    H3F13338   4.347   6.883   6.939  1.2087 -0.7690 -0.7678
  125OSM    H3G13339   4.296   6.721   6.994 -2.1926  0.0054  1.0566
  125OSM    C4F13340   4.136   6.877   6.993  0.5115  0.3266 -0.0749
  125OSM    H4F13341   4.060   6.812   6.944  0.1747  0.6575  0.0081
  125OSM    H4G13342   4.117   6.979   6.953 -0.3630  1.3074  2.6694
  125OSM    C5F13343   4.116   6.873   7.146 -0.2481  0.4703 -0.2495
  125OSM    H5F13344   4.194   6.813   7.196  1.1686  1.7036 -0.8972
  125OSM    H5G13345   4.015   6.828   7.160 -0.3905  1.0431  0.6419
  125OSM    C6F13346   4.131   7.010   7.203 -0.2132 -1.4862  0.5064
  125OSM    H6F13347   4.068   7.073   7.137  0.7793 -0.0568  0.8647
  125OSM    H6G13348   4.236   7.044   7.193 -0.2860 -1.5474 -0.5294
  125OSM    C7F13349   4.093   7.023   7.349  0.7533  0.2293 -0.5704
  125OSM    H7F13350   3.983   7.019   7.362  0.4906  1.7242 -1.9071
  125OSM    H7G13351   4.116   7.127   7.381 -0.3640  0.1299  0.6211
  125OSM    C8F13352   4.151   6.918   7.444  0.5127 -0.0508 -0.0588
  125OSM    H8F13353   4.122   6.814   7.419 -3.0336  0.9086 -0.4849
  125OSM    H8G13354   4.096   6.931   7.540 -0.8189 -0.1231 -0.7851
  125OSM    C9F13355   4.302   6.921   7.479  0.0515  0.2981  0.0985
  125OSM    H9F13356   4.366   6.868   7.406 -0.2689 -0.0014  0.0310
  125OSM   C10F13357   4.360   6.967   7.592  0.1942 -0.2307 -0.3821
  125OSM   H10F13358   4.467   6.955   7.612  0.0135 -1.3883 -0.0384
  125OSM   C11F13359   4.290   7.029   7.714  0.4515  0.1737  0.4468
  125OSM   H11F13360   4.185   6.998   7.731  0.3935 -2.3841 -3.5087
  125OSM   H11G13361   4.276   7.136   7.686  1.6229  0.3133  0.3283
  125OSM   C12F13362   4.376   7.039   7.840 -0.2958  0.2674 -0.0695
  125OSM   H12F13363   4.323   7.109   7.908  1.4494  2.8740 -1.2306
  125OSM   H12G13364   4.478   7.078   7.825  0.8017 -1.6124  1.9284
  125OSM   C13F13365   4.374   6.903   7.919  0.6038  0.3029  0.0113
  125OSM   H13F13366   4.412   6.828   7.846  1.4357  2.0028 -1.4021
  125OSM   H13G13367   4.270   6.872   7.939  0.5274  0.1318 -0.6266
  125OSM   C14F13368   4.461   6.902   8.050  0.3972  0.0972  0.1557
  125OSM   H14F13369   4.557   6.946   8.015 -0.7925  0.8893 -2.3414
  125OSM   H14G13370   4.476   6.792   8.055 -1.7445 -0.4719 -3.0230
  125OSM   C15F13371   4.394   6.961   8.174  0.4150  0.3194  0.2788
  125OSM   H15F13372   4.377   7.070   8.160 -0.3511  0.3784  1.4275
  125OSM   H15G13373   4.459   6.965   8.264  0.2343 -1.1642  0.4989
  125OSM   C16F13374   4.261   6.901   8.225 -0.4568  0.1185 -0.0754
  125OSM   H16F13375   4.185   6.910   8.145 -2.6801  0.7169  1.9732
  125OSM   H16G13376   4.226   6.953   8.317 -1.9417 -2.0956  0.7070
  125OSM   C17F13377   4.273   6.747   8.261 -0.2309  0.3364 -0.1869
  125OSM   H17F13378   4.333   6.685   8.191  1.2746  2.8676 -1.2551
  125OSM   H17G13379   4.170   6.703   8.261  0.5506 -1.6162  0.3416
  125OSM   C18F13380   4.333   6.715   8.400 -0.5938  0.5613 -0.4569
  125OSM   H18F13381   4.275   6.636   8.452 -2.7920  1.2370 -1.7869
  125OSM   H18G13382   4.332   6.803   8.467 -0.6056 -0.1009  0.4378
  125OSM   H18H13383   4.442   6.694   8.391 -0.5348  0.7773 -0.2537
  126OSM      N13384   6.508   1.637   6.396 -0.7414 -0.2327 -0.2223
  126OSM    C1513385   6.373   1.686   6.372  0.9451  0.7308 -0.4394
  126OSM   H15A13386   6.352   1.705   6.268 -0.5403 -0.1968 -0.3338
  126OSM   H15B13387   6.364   1.774   6.434  2.5706  1.0918 -0.6682
  126OSM   H15C13388   6.305   1.611   6.409  1.0803  1.9288  2.4805
  126OSM    C1413389   6.548   1.522   6.305 -0.5246 -0.1099 -0.5400
  126OSM   H14A13390   6.481   1.438   6.310  0.2660 -0.7230  0.1761
  126OSM   H14B13391   6.644   1.483   6.336 -0.8038 -0.4301 -0.0779
  126OSM   H14C13392   6.562   1.553   6.202  2.0179  0.1975 -0.1881
  126OSM    C1313393   6.608   1.751   6.366  0.2354  0.0483 -0.9827
  126OSM   H13A13394   6.579   1.828   6.436  0.4912 -0.9131  0.2166
  126OSM   H13B13395   6.598   1.789   6.266  0.9611  0.0298 -1.0637
  126OSM   H13C13396   6.708   1.712   6.369  0.6056  0.8079 -2.6461
  126OSM    C1213397   6.507   1.595   6.536 -0.3246 -0.8423  0.3240
  126OSM   H12A13398   6.447   1.507   6.554 -2.4730  0.8335  1.9910
  126OSM   H12B13399   6.465   1.676   6.594 -2.8905 -2.6247  1.1783
  126OSM    C1113400   6.640   1.553   6.601  0.6564 -0.6006 -0.2677
  126OSM   H11A13401   6.623   1.549   6.710  1.0214 -2.8780 -0.2542
  126OSM   H11B13402   6.710   1.638   6.582 -0.8425  0.4213 -1.4691
  126OSM      P13403   6.635   1.295   6.596  0.5546  0.7210 -0.5315
  126OSM    O1313404   6.489   1.311   6.584  0.2220 -0.2487 -0.1394
  126OSM    O1413405   6.711   1.189   6.533 -0.6200 -0.0530  0.3941
  126OSM    O1113406   6.673   1.285   6.745 -0.8398  0.6172 -0.1766
  126OSM    O1213407   6.693   1.433   6.547 -0.4327 -0.0926 -0.0964
  126OSM    C1S13408   6.817   1.292   6.779  0.1411 -0.1515 -0.5209
  126OSM    H1S13409   6.864   1.374   6.721 -1.1920  0.6358 -0.5078
  126OSM    H1T13410   6.870   1.196   6.757  1.9084  0.7810 -0.5438
  126OSM     NF13411   6.969   1.336   6.967 -0.9548  0.3922  0.0228
  126OSM    HNF13412   7.014   1.266   7.022  0.0491 -1.0085 -2.4132
  126OSM    C2S13413   6.828   1.320   6.936 -0.3387  0.1250  0.7108
  126OSM    H2S13414   6.765   1.410   6.956 -1.0214 -0.3727  0.8490
  126OSM    C3S13415   6.770   1.198   7.010 -0.2377  0.3836 -0.3809
  126OSM    H3S13416   6.835   1.110   6.992  0.0767  0.6709 -0.6528
  126OSM     O313417   6.639   1.144   6.973 -0.1809 -0.0361 -0.4533
  126OSM    HO313418   6.626   1.172   6.882 -0.4975 -0.3988 -0.5208
  126OSM    C4S13419   6.784   1.222   7.158  1.0360  0.4486 -0.1853
  126OSM    H4S13420   6.884   1.211   7.202  0.8903  0.9958  0.2982
  126OSM    C5S13421   6.692   1.253   7.248 -0.4458 -0.3136  0.8662
  126OSM    H5S13422   6.591   1.261   7.204  0.5600 -2.2926 -2.0530
  126OSM    C6S13423   6.712   1.267   7.397 -0.5107  0.4420 -0.1227
  126OSM    H6S13424   6.646   1.191   7.447 -2.5491  0.3425 -2.7551
  126OSM    H6T13425   6.680   1.369   7.427 -2.2884  0.4042 -1.6999
  126OSM    C7S13426   6.851   1.258   7.457 -0.9407 -0.3856  0.3467
  126OSM    H7S13427   6.846   1.311   7.555  2.1473  0.6981  0.0478
  126OSM    H7T13428   6.921   1.317   7.393 -0.6621 -1.1020 -0.0128
  126OSM    C8S13429   6.910   1.114   7.462  0.4615 -0.2149  0.1852
  126OSM    H8S13430   7.018   1.117   7.491  0.2959  0.8812  0.7436
  126OSM    H8T13431   6.905   1.071   7.360 -0.6287  1.8176 -0.6755
  126OSM    C9S13432   6.837   1.037   7.572  0.1304 -0.3513  0.6020
  126OSM    H9S13433   6.744   0.989   7.535 -0.5978  0.7974  0.8877
  126OSM    H9T13434   6.810   1.106   7.655  1.7630 -0.7373  1.5116
  126OSM   C10S13435   6.929   0.927   7.631 -0.0730  0.0747  0.4420
  126OSM   H10S13436   6.961   0.851   7.557 -2.8229 -1.3714  0.5914
  126OSM   H10T13437   6.863   0.867   7.698 -2.1207  1.1305 -0.5314
  126OSM   C11S13438   7.051   0.979   7.708 -0.3934  0.1372 -0.1431
  126OSM   H11S13439   7.049   1.090   7.700 -0.5888  0.1736  0.3824
  126OSM   H11T13440   7.142   0.934   7.662  1.0080  3.1085 -0.5665
  126OSM   C12S13441   7.044   0.951   7.860 -0.6101 -0.3790  0.6989
  126OSM   H12S13442   6.946   0.984   7.899 -0.4438  0.6180  0.3137
  126OSM   H12T13443   7.116   1.018   7.911 -2.5579  0.7534  2.0626
  126OSM   C13S13444   7.087   0.813   7.894 -0.0019  0.9373 -0.5239
  126OSM   H13S13445   7.161   0.783   7.817 -0.8003 -0.8581 -0.6369
  126OSM   H13T13446   7.014   0.730   7.884 -0.3741  0.7850  2.5230
  126OSM   C14S13447   7.177   0.796   8.017  0.2233 -0.0526 -0.1609
  126OSM   H14S13448   7.131   0.831   8.112 -2.0295  0.6572 -1.4701
  126OSM   H14T13449   7.273   0.851   8.006  0.6111 -0.3461  1.4594
  126OSM   C15S13450   7.228   0.655   8.026  0.5424 -0.0572  0.2276
  126OSM   H15S13451   7.277   0.628   7.931  0.6592  0.3723  0.1642
  126OSM   H15T13452   7.144   0.584   8.041  1.2142 -0.6133  1.4884
  126OSM   C16S13453   7.327   0.631   8.145  0.4949 -0.0498 -0.6513
  126OSM   H16S13454   7.425   0.672   8.113  0.0827  0.3478 -1.4461
  126OSM   H16T13455   7.353   0.524   8.157 -0.5298 -0.1300  1.1962
  126OSM   C17S13456   7.283   0.687   8.282  0.3842  0.1459  0.0445
  126OSM   H17S13457   7.173   0.686   8.296  0.2215  0.6504 -1.0950
  126OSM   H17T13458   7.316   0.793   8.284  1.1363 -0.0838  0.3967
  126OSM   C18S13459   7.340   0.603   8.395 -1.1529 -1.1196 -0.5455
  126OSM   H18S13460   7.283   0.507   8.400  0.1856 -1.9131 -0.0549
  126OSM   H18T13461   7.341   0.659   8.491 -1.4667  0.1118 -1.2363
  126OSM   H18U13462   7.446   0.580   8.373 -0.7994 -0.8145  0.7611
  126OSM    C1F13463   7.035   1.445   6.940  0.6712 -0.7666 -0.0426
  126OSM     OF13464   6.978   1.540   6.883 -0.6062 -0.2366 -0.2731
  126OSM    C2F13465   7.182   1.458   6.980 -0.3631  0.7669 -0.4619
  126OSM    H2F13466   7.239   1.431   6.889  0.0022  0.9945 -0.3011
  126OSM    H2G13467   7.205   1.379   7.054 -1.0228  0.9982  0.0029
  126OSM    C3F13468   7.234   1.591   7.030 -0.1109 -0.2216 -0.1081
  126OSM    H3F13469   7.186   1.620   7.126  1.4832  0.9339  0.3854
  126OSM    H3G13470   7.212   1.668   6.953 -0.6025 -0.6422 -0.3911
  126OSM    C4F13471   7.385   1.585   7.060 -0.2034 -0.0628 -0.3476
  126OSM    H4F13472   7.427   1.545   6.966  0.5772 -1.3179  0.5013
  126OSM    H4G13473   7.422   1.510   7.133  2.3317  0.7677 -0.6737
  126OSM    C5F13474   7.441   1.722   7.100  1.4482  0.0534 -0.7593
  126OSM    H5F13475   7.354   1.789   7.117  0.6839 -1.4750  1.7828
  126OSM    H5G13476   7.506   1.762   7.019  1.0295  1.2578 -0.5285
  126OSM    C6F13477   7.527   1.705   7.229  0.1602  0.3310 -0.1197
  126OSM    H6F13478   7.596   1.625   7.197  0.5510  1.2022 -1.5261
  126OSM    H6G13479   7.471   1.675   7.321 -0.0976  0.5217 -0.2118
  126OSM    C7F13480   7.599   1.835   7.266 -0.1094  0.0857  0.1324
  126OSM    H7F13481   7.642   1.878   7.173  2.9941 -0.4748  1.2027
  126OSM    H7G13482   7.684   1.794   7.325 -0.6229 -3.0937 -1.1735
  126OSM    C8F13483   7.516   1.944   7.342  0.1073 -0.1270 -0.2618
  126OSM    H8F13484   7.460   1.886   7.419 -1.5387  2.9867  1.0535
  126OSM    H8G13485   7.440   1.983   7.271  0.5594 -0.9810 -1.2266
  126OSM    C9F13486   7.599   2.050   7.407  0.1190 -0.2077 -0.6702
  126OSM    H9F13487   7.669   2.091   7.332 -0.7829  2.4129 -0.2032
  126OSM   C10F13488   7.591   2.087   7.534  0.3123 -0.1655 -0.3484
  126OSM   H10F13489   7.660   2.164   7.572  0.1091 -1.7757  3.7692
  126OSM   C11F13490   7.488   2.036   7.638  0.2851 -0.2501  0.2611
  126OSM   H11F13491   7.431   1.949   7.597  1.3923 -0.9859  0.2164
  126OSM   H11G13492   7.427   2.126   7.660  4.3331  2.0159  3.6776
  126OSM   C12F13493   7.543   1.999   7.769  0.0736  0.0063 -0.0919
  126OSM   H12F13494   7.592   2.089   7.813  1.9748 -0.0731 -1.9243
  126OSM   H12G13495   7.625   1.925   7.761 -1.3435 -1.8697  1.5137
  126OSM   C13F13496   7.446   1.955   7.882 -0.8403  0.0750  0.3329
  126OSM   H13F13497   7.387   1.864   7.856 -0.3729  0.3256 -1.7571
  126OSM   H13G13498   7.389   2.041   7.922  0.7265  1.0061  0.6213
  126OSM   C14F13499   7.519   1.908   8.011 -0.3892 -0.0619  0.5972
  126OSM   H14F13500   7.580   1.991   8.052  1.8013 -0.4995 -1.5384
  126OSM   H14G13501   7.589   1.823   7.996 -0.8323 -0.6569  1.7695
  126OSM   C15F13502   7.430   1.870   8.127  0.3450  0.2963  0.6285
  126OSM   H15F13503   7.361   1.785   8.107  0.5884 -0.1870  1.7786
  126OSM   H15G13504   7.360   1.954   8.146 -0.5055 -0.3028  0.1725
  126OSM   C16F13505   7.516   1.826   8.250  0.7702  0.1199  0.1293
  126OSM   H16F13506   7.447   1.829   8.336  1.5414 -1.0296  0.8162
  126OSM   H16G13507   7.590   1.907   8.267  1.1564 -0.0486 -0.6987
  126OSM   C17F13508   7.577   1.681   8.258  0.6548  0.3540  0.3357
  126OSM   H17F13509   7.664   1.660   8.193 -0.2990  1.0578 -1.2381
  126OSM   H17G13510   7.506   1.596   8.248 -0.1011  0.9939  0.0619
  126OSM   C18F13511   7.625   1.678   8.404  0.0068  0.2912  0.4499
  126OSM   H18F13512   7.550   1.707   8.481 -0.5812  0.2675 -0.0996
  126OSM   H18G13513   7.719   1.736   8.409  0.9108 -1.1579  1.0696
  126OSM   H18H13514   7.653   1.573   8.429 -1.8065  0.1935  2.3757
  127OSM      N13515   6.398   2.770   6.456 -0.0306 -0.4663 -0.1119
  127OSM    C1513516   6.455   2.735   6.589 -0.2543 -0.6050  0.0084
  127OSM   H15A13517   6.384   2.719   6.668 -1.6958  1.1359 -0.8459
  127OSM   H15B13518   6.514   2.815   6.631 -0.4286 -0.3543 -0.2200
  127OSM   H15C13519   6.523   2.652   6.580  0.1891 -0.3783  1.0961
  127OSM    C1413520   6.509   2.784   6.360  0.0346 -0.4283 -0.0922
  127OSM   H14A13521   6.461   2.806   6.266 -0.2060  1.2115  0.3816
  127OSM   H14B13522   6.560   2.689   6.364 -1.5409 -1.2903  2.7798
  127OSM   H14C13523   6.559   2.876   6.388  1.1048 -1.2166  0.6770
  127OSM    C1313524   6.309   2.663   6.409 -0.3615  0.3428  0.1494
  127OSM   H13A13525   6.274   2.682   6.308  1.0307  1.9508 -0.0814
  127OSM   H13B13526   6.227   2.664   6.480 -0.5524 -3.1475  0.1309
  127OSM   H13C13527   6.358   2.567   6.407 -0.8054  0.1199 -0.3509
  127OSM    C1213528   6.318   2.893   6.461 -0.3266  0.1067  0.4133
  127OSM   H12A13529   6.301   2.934   6.363 -0.2288 -2.7657 -0.9124
  127OSM   H12B13530   6.374   2.973   6.506  1.4588  0.1443 -1.7019
  127OSM    C1113531   6.181   2.900   6.534 -0.2895  0.1500 -0.2734
  127OSM   H11A13532   6.164   3.007   6.560  0.5598  0.3410 -0.4573
  127OSM   H11B13533   6.187   2.847   6.632 -2.6401 -1.6477 -1.0066
  127OSM      P13534   6.017   2.907   6.327 -0.1141  0.4049  0.0675
  127OSM    O1313535   6.100   3.022   6.291  0.6161  0.1283 -0.4676
  127OSM    O1413536   6.003   2.805   6.224  0.3871  0.0786  0.0381
  127OSM    O1113537   5.872   2.955   6.361 -0.0133 -0.1776 -0.7898
  127OSM    O1213538   6.077   2.827   6.460  0.5495  0.1582 -0.3690
  127OSM    C1S13539   5.766   2.866   6.408  0.1709  0.4128  0.3485
  127OSM    H1S13540   5.802   2.761   6.404  0.7825  0.6560 -1.4606
  127OSM    H1T13541   5.680   2.880   6.340  0.6929  0.2693 -0.3553
  127OSM     NF13542   5.626   2.801   6.611 -0.4848  0.0819 -0.1388
  127OSM    HNF13543   5.533   2.835   6.612 -0.3818  0.3924 -0.8553
  127OSM    C2S13544   5.724   2.896   6.558 -0.1057 -0.5588 -0.4358
  127OSM    H2S13545   5.811   2.896   6.627 -0.0978  1.8442 -0.3542
  127OSM    C3S13546   5.681   3.049   6.557  0.2032 -0.7984 -0.5169
  127OSM    H3S13547   5.589   3.043   6.496 -0.6720  1.0710  0.5615
  127OSM     O313548   5.771   3.150   6.507  0.0360 -0.1421 -0.6924
  127OSM    HO313549   5.857   3.107   6.497  0.5684  0.2144  1.6846
  127OSM    C4S13550   5.632   3.100   6.695  0.1430 -0.1791  0.7960
  127OSM    H4S13551   5.525   3.082   6.709  0.0827 -1.6443 -1.1712
  127OSM    C5S13552   5.702   3.166   6.794  0.0999 -0.0583  1.1543
  127OSM    H5S13553   5.809   3.181   6.774 -0.4793 -0.0567 -2.5320
  127OSM    C6S13554   5.652   3.218   6.925 -0.0131  0.6366  0.5651
  127OSM    H6S13555   5.545   3.248   6.918  0.1588  1.3085  0.8492
  127OSM    H6T13556   5.714   3.305   6.954  0.2071  0.6878 -0.0333
  127OSM    C7S13557   5.664   3.115   7.043  0.3265  0.7635 -1.1401
  127OSM    H7S13558   5.772   3.102   7.068  0.2074  3.4532  1.3588
  127OSM    H7T13559   5.627   3.012   7.024  0.7018  0.6393 -1.2099
  127OSM    C8S13560   5.619   3.168   7.181 -0.4077 -0.0671 -1.0745
  127OSM    H8S13561   5.510   3.150   7.193  0.1366 -3.1197  0.3840
  127OSM    H8T13562   5.638   3.277   7.186  0.0452 -0.1606 -0.7183
  127OSM    C9S13563   5.699   3.106   7.305  0.5914 -0.2377 -0.0519
  127OSM    H9S13564   5.809   3.116   7.292  0.5500 -2.3575 -2.9726
  127OSM    H9T13565   5.684   2.996   7.308  0.0860 -0.1943 -0.8257
  127OSM   C10S13566   5.654   3.157   7.442 -0.2772  0.2476  0.1009
  127OSM   H10S13567   5.662   3.268   7.436 -1.3933  0.6354  3.6334
  127OSM   H10T13568   5.729   3.129   7.519 -0.1731  0.7610  0.1874
  127OSM   C11S13569   5.516   3.113   7.486 -0.8152  0.1162  0.7567
  127OSM   H11S13570   5.528   3.003   7.497  0.2931  0.0148 -1.0007
  127OSM   H11T13571   5.436   3.132   7.411 -2.4198 -0.1064  2.3611
  127OSM   C12S13572   5.476   3.157   7.623 -0.1325  0.3636  0.1366
  127OSM   H12S13573   5.465   3.268   7.621 -0.6134  0.3444  0.9526
  127OSM   H12T13574   5.560   3.132   7.691  0.5158  0.7218 -0.5278
  127OSM   C13S13575   5.344   3.095   7.678  0.1081  0.8167 -0.2748
  127OSM   H13S13576   5.342   2.985   7.693 -1.0342  1.0591  1.8105
  127OSM   H13T13577   5.262   3.121   7.608  1.8028  2.9360 -1.6059
  127OSM   C14S13578   5.299   3.156   7.810  0.2425 -0.2089  0.5789
  127OSM   H14S13579   5.281   3.265   7.798 -1.2943 -0.3712  1.1772
  127OSM   H14T13580   5.382   3.144   7.883  1.3971  0.3608 -0.5980
  127OSM   C15S13581   5.166   3.086   7.855  0.3673 -0.4268  0.3414
  127OSM   H15S13582   5.156   2.978   7.832 -1.1363 -0.3182  0.3827
  127OSM   H15T13583   5.078   3.138   7.811 -0.8183 -2.6517 -0.0473
  127OSM   C16S13584   5.145   3.089   8.008 -0.1826 -0.3981 -0.6008
  127OSM   H16S13585   5.160   3.194   8.041  0.8762 -1.2458  1.7894
  127OSM   H16T13586   5.224   3.036   8.064  2.2501  1.0048 -2.4792
  127OSM   C17S13587   4.999   3.069   8.046 -1.1556 -0.1308  0.4492
  127OSM   H17S13588   4.925   3.127   7.987  0.1185  0.7856 -0.3049
  127OSM   H17T13589   4.987   3.084   8.156  1.6343  2.6597  0.5275
  127OSM   C18S13590   4.967   2.921   8.024 -0.4811 -0.0033  0.0846
  127OSM   H18S13591   4.873   2.884   8.071  0.6468 -3.0022  0.2303
  127OSM   H18T13592   5.037   2.853   8.076  0.3042  0.0873 -0.8350
  127OSM   H18U13593   4.979   2.884   7.920  3.3535  1.0558 -0.0148
  127OSM    C1F13594   5.657   2.675   6.633  0.2260 -0.4497 -0.6082
  127OSM     OF13595   5.773   2.640   6.629 -0.1188  0.4605 -0.4667
  127OSM    C2F13596   5.541   2.582   6.650  0.2179 -0.3086  0.6364
  127OSM    H2F13597   5.562   2.494   6.585  0.4389 -1.1341  1.7978
  127OSM    H2G13598   5.449   2.630   6.611 -0.4728 -1.7813  0.3657
  127OSM    C3F13599   5.528   2.540   6.795 -0.9193  0.2155 -0.8224
  127OSM    H3F13600   5.499   2.630   6.854 -2.0911 -0.6778  0.0181
  127OSM    H3G13601   5.629   2.508   6.829 -1.7505 -0.1736  1.4626
  127OSM    C4F13602   5.430   2.421   6.812  0.2655  0.1650  0.5657
  127OSM    H4F13603   5.469   2.340   6.747 -0.3487  2.0049 -2.2809
  127OSM    H4G13604   5.328   2.442   6.772  0.1040 -1.8613 -0.2096
  127OSM    C5F13605   5.414   2.375   6.952  0.4454 -0.2774  0.1472
  127OSM    H5F13606   5.509   2.375   7.009 -0.7346  3.8136  2.4750
  127OSM    H5G13607   5.375   2.271   6.960  1.9606 -0.8968 -0.1784
  127OSM    C6F13608   5.325   2.472   7.035 -0.2012  0.0479 -0.2147
  127OSM    H6F13609   5.238   2.515   6.981 -0.8284 -0.4048  0.4138
  127OSM    H6G13610   5.397   2.548   7.073 -2.4350  1.7177  0.9206
  127OSM    C7F13611   5.264   2.418   7.172  0.1497  0.1849  0.5237
  127OSM    H7F13612   5.357   2.378   7.218  1.4503 -1.3270 -3.0159
  127OSM    H7G13613   5.189   2.338   7.160  2.0848 -1.6677  0.0884
  127OSM    C8F13614   5.209   2.528   7.254  0.2956  0.3028 -0.7369
  127OSM    H8F13615   5.110   2.567   7.221 -0.6500  0.5234  2.0662
  127OSM    H8G13616   5.288   2.606   7.263 -1.0878  1.6231  0.6764
  127OSM    C9F13617   5.183   2.478   7.394 -0.2008  0.5504 -0.5173
  127OSM    H9F13618   5.160   2.370   7.400 -0.7358  0.6102 -1.3063
  127OSM   C10F13619   5.206   2.550   7.505  0.0762  0.2197 -0.2216
  127OSM   H10F13620   5.223   2.501   7.601  0.8509  0.6176 -0.1505
  127OSM   C11F13621   5.251   2.693   7.507 -0.2159  0.7671 -0.3728
  127OSM   H11F13622   5.300   2.722   7.412  0.0034  0.3221 -0.3980
  127OSM   H11G13623   5.328   2.705   7.586  0.9649 -1.3337 -1.1123
  127OSM   C12F13624   5.127   2.780   7.531  0.3832 -0.1272 -0.4134
  127OSM   H12F13625   5.162   2.883   7.557 -0.2916  0.1777 -0.6918
  127OSM   H12G13626   5.081   2.741   7.624  4.0439  0.1682  1.7515
  127OSM   C13F13627   5.011   2.805   7.425 -0.1951 -0.1263 -0.1517
  127OSM   H13F13628   4.938   2.876   7.469  0.3631 -0.6343  1.6436
  127OSM   H13G13629   4.957   2.707   7.416  0.5508 -0.8025  2.2183
  127OSM   C14F13630   5.057   2.856   7.282  0.4679 -0.6996 -0.1469
  127OSM   H14F13631   4.970   2.856   7.213  1.0205  0.8202 -0.8911
  127OSM   H14G13632   5.131   2.785   7.240  0.5818 -0.7824  0.1935
  127OSM   C15F13633   5.103   3.003   7.286 -1.2658  0.3427  0.4036
  127OSM   H15F13634   5.210   3.022   7.311 -1.2904 -0.8285  1.4837
  127OSM   H15G13635   5.048   3.052   7.369 -0.3177  1.8663  0.1822
  127OSM   C16F13636   5.060   3.071   7.157 -0.3083 -0.1353 -0.2030
  127OSM   H16F13637   5.060   3.181   7.169 -1.2730 -0.1464  0.0093
  127OSM   H16G13638   4.952   3.047   7.146 -0.2519 -0.8633  0.6941
  127OSM   C17F13639   5.144   3.040   7.027 -1.1655  0.1793 -0.5419
  127OSM   H17F13640   5.150   2.933   6.998 -2.0390 -0.1024  0.2496
  127OSM   H17G13641   5.249   3.063   7.057 -0.4831 -0.5499 -2.2520
  127OSM   C18F13642   5.138   3.143   6.924  0.3114 -0.5414  0.6872
  127OSM   H18F13643   5.036   3.141   6.880 -0.2750 -2.4106  1.9990
  127OSM   H18G13644   5.218   3.127   6.849 -0.3229 -1.5389  0.1950
  127OSM   H18H13645   5.154   3.243   6.968 -0.1670  0.6128 -1.5867
  128OSM      N13646   0.819   4.887   6.203 -1.0696  0.5379  0.2044
  128OSM    C1513647   0.701   4.802   6.234  0.2930  0.9299  0.1381
  128OSM   H15A13648   0.728   4.719   6.297 -2.6868 -0.9407 -0.8393
  128OSM   H15B13649   0.654   4.759   6.147  0.2915 -0.4640  0.8138
  128OSM   H15C13650   0.639   4.866   6.295  2.0966  1.5985  1.3801
  128OSM    C1413651   0.935   4.789   6.177  0.5887  0.5365  0.0143
  128OSM   H14A13652   1.029   4.843   6.185  1.3192 -0.7368  0.4395
  128OSM   H14B13653   0.929   4.732   6.086 -1.0767  1.1318 -0.2834
  128OSM   H14C13654   0.941   4.724   6.263 -1.6080  1.4028  0.8750
  128OSM    C1313655   0.791   4.956   6.070  0.2992  0.0808 -0.4956
  128OSM   H13A13656   0.878   5.010   6.036  1.0259 -0.5764  0.2897
  128OSM   H13B13657   0.711   5.027   6.079  0.6255  0.4693 -0.6575
  128OSM   H13C13658   0.774   4.887   5.988 -2.6561 -0.7962  0.7238
  128OSM    C1213659   0.857   4.984   6.316  0.1643 -0.4316  0.2217
  128OSM   H12A13660   0.948   5.035   6.289 -1.0917  0.7342 -2.1193
  128OSM   H12B13661   0.885   4.920   6.398  1.3376 -3.2158 -2.1983
  128OSM    C1113662   0.755   5.088   6.367  0.2596 -0.1619 -0.5022
  128OSM   H11A13663   0.801   5.133   6.458 -0.3287 -2.6137  1.0805
  128OSM   H11B13664   0.671   5.031   6.411  1.2751 -0.7410  0.7526
  128OSM      P13665   0.810   5.289   6.223 -0.4215 -0.2394  0.0852
  128OSM    O1313666   0.951   5.236   6.226 -0.1680 -0.2530  0.8531
  128OSM    O1413667   0.763   5.346   6.094  0.3597 -0.2500 -0.1830
  128OSM    O1113668   0.802   5.388   6.340 -0.0308  0.2286 -0.0510
  128OSM    O1213669   0.715   5.176   6.259  0.2099 -0.2763  0.1135
  128OSM    C1S13670   0.685   5.417   6.424  0.1656  0.4763 -0.2981
  128OSM    H1S13671   0.597   5.355   6.397  0.8835 -1.2283  1.0849
  128OSM    H1T13672   0.652   5.523   6.417 -1.3255  0.3891  3.1650
  128OSM     NF13673   0.608   5.421   6.658  0.0820 -0.4446 -0.0271
  128OSM    HNF13674   0.600   5.498   6.721 -4.6424 -1.2366  0.7443
  128OSM    C2S13675   0.723   5.387   6.577  0.1939 -0.4037 -0.2057
  128OSM    H2S13676   0.738   5.277   6.581 -1.8552 -0.6734  0.9336
  128OSM    C3S13677   0.852   5.451   6.622 -0.0107 -0.1768 -0.0212
  128OSM    H3S13678   0.851   5.562   6.610  0.5555 -0.0162  1.2286
  128OSM     O313679   0.973   5.399   6.559  0.0007 -0.1653  0.3275
  128OSM    HO313680   0.940   5.348   6.484 -0.1834 -1.1649  1.0593
  128OSM    C4S13681   0.881   5.417   6.770  0.3480  0.6375  0.3149
  128OSM    H4S13682   0.926   5.322   6.803  2.6294  2.8855  4.5572
  128OSM    C5S13683   0.848   5.505   6.869 -0.8387 -0.2766 -0.3182
  128OSM    H5S13684   0.799   5.603   6.853 -0.2148  0.5190  2.3168
  128OSM    C6S13685   0.881   5.472   7.015 -0.1419  0.8269 -0.1428
  128OSM    H6S13686   0.909   5.367   7.038 -0.7676  1.2775  3.3214
  128OSM    H6T13687   0.789   5.474   7.078  0.2105 -0.3540  0.4537
  128OSM    C7S13688   0.971   5.575   7.072 -0.2264  0.3143 -0.4514
  128OSM    H7S13689   0.940   5.681   7.056  1.5020  0.6538 -1.9348
  128OSM    H7T13690   1.071   5.575   7.022  0.4951 -1.4656  0.8842
  128OSM    C8S13691   0.998   5.557   7.226  0.7749 -0.0418 -0.4068
  128OSM    H8S13692   0.909   5.583   7.287  0.7500 -1.1500  0.0594
  128OSM    H8T13693   1.076   5.623   7.268 -0.7972  0.7905  1.3229
  128OSM    C9S13694   1.040   5.415   7.259  0.2558  0.1562  0.3823
  128OSM    H9S13695   1.132   5.395   7.200 -0.4017 -2.0702  0.0393
  128OSM    H9T13696   0.969   5.336   7.229  0.6347  0.1982 -0.6756
  128OSM   C10S13697   1.083   5.396   7.401  0.0481 -0.1710 -0.0293
  128OSM   H10S13698   1.162   5.471   7.426  0.7521 -1.3142  1.3342
  128OSM   H10T13699   1.142   5.302   7.414  2.5822  1.4910  1.3400
  128OSM   C11S13700   0.969   5.406   7.503  0.2965  0.0402  0.0206
  128OSM   H11S13701   0.904   5.315   7.497 -1.4072  1.1247  1.0999
  128OSM   H11T13702   0.910   5.495   7.473  1.1974 -0.1460 -2.5519
  128OSM   C12S13703   1.014   5.411   7.654 -0.2467 -0.0927 -0.2848
  128OSM   H12S13704   0.931   5.430   7.724  1.4626  3.5105  1.0148
  128OSM   H12T13705   1.092   5.490   7.666  0.4259 -0.4217 -2.1414
  128OSM   C13S13706   1.087   5.283   7.691 -0.7436  0.4449  0.0115
  128OSM   H13S13707   1.183   5.261   7.639 -0.0397  0.1469  1.3884
  128OSM   H13T13708   1.029   5.194   7.658 -0.3047  0.6479 -1.4036
  128OSM   C14S13709   1.123   5.272   7.838  0.1858 -0.6383 -0.2707
  128OSM   H14S13710   1.172   5.369   7.862  0.7338 -0.7455 -0.9119
  128OSM   H14T13711   1.183   5.180   7.852  2.8148  1.0640  0.3733
  128OSM   C15S13712   0.989   5.268   7.921 -0.7505  0.6726 -0.3749
  128OSM   H15S13713   0.925   5.195   7.867 -1.0306 -0.5655  1.5341
  128OSM   H15T13714   0.938   5.366   7.923 -3.5957 -0.7124 -0.8638
  128OSM   C16S13715   1.009   5.226   8.066  0.3876 -0.6488 -0.3448
  128OSM   H16S13716   1.055   5.309   8.123 -0.1045  2.2246 -3.7905
  128OSM   H16T13717   1.067   5.132   8.076  0.2609 -0.7149 -0.2221
  128OSM   C17S13718   0.876   5.205   8.147  0.3800  0.1840 -0.5586
  128OSM   H17S13719   0.793   5.163   8.085 -0.2841 -1.1015  1.1439
  128OSM   H17T13720   0.840   5.303   8.186  0.2552 -0.0469 -0.0929
  128OSM   C18S13721   0.889   5.113   8.263 -0.7960  0.3271  0.1762
  128OSM   H18S13722   0.919   5.008   8.243  0.2255  0.2587  1.9175
  128OSM   H18T13723   0.790   5.103   8.313 -1.5234 -0.6223 -1.3503
  128OSM   H18U13724   0.958   5.156   8.338  0.8080 -0.2378 -0.9142
  128OSM    C1F13725   0.499   5.347   6.645  0.5984 -0.2246 -0.4284
  128OSM     OF13726   0.501   5.242   6.585 -0.3895 -0.0269  0.0905
  128OSM    C2F13727   0.375   5.384   6.719  0.3605 -0.6861  0.5288
  128OSM    H2F13728   0.327   5.299   6.771 -0.1806 -1.8310 -1.7045
  128OSM    H2G13729   0.305   5.438   6.652  2.1381 -0.2038 -1.0596
  128OSM    C3F13730   0.398   5.491   6.830  0.1010 -0.4155  0.5378
  128OSM    H3F13731   0.297   5.526   6.861  0.8622  2.6607 -0.0748
  128OSM    H3G13732   0.455   5.578   6.790  2.0242 -1.4699  0.8976
  128OSM    C4F13733   0.465   5.424   6.953  0.3125 -0.3693  0.9839
  128OSM    H4F13734   0.573   5.433   6.929 -0.1762  3.6138 -0.4470
  128OSM    H4G13735   0.432   5.318   6.954 -0.5833 -0.1130 -0.0179
  128OSM    C5F13736   0.441   5.509   7.080 -0.3388  0.2891 -0.6783
  128OSM    H5F13737   0.332   5.511   7.101 -0.4058 -1.4926 -0.6929
  128OSM    H5G13738   0.464   5.616   7.060 -0.3019  0.2427 -0.8884
  128OSM    C6F13739   0.515   5.469   7.213 -0.2992 -0.3602  0.0940
  128OSM    H6F13740   0.467   5.536   7.287 -1.7907 -1.9947  0.6623
  128OSM    H6G13741   0.622   5.496   7.207 -0.8778  1.9419 -0.9417
  128OSM    C7F13742   0.499   5.332   7.276 -0.0709  1.0512 -0.5046
  128OSM    H7F13743   0.538   5.264   7.198  0.7284  0.8386  0.0669
  128OSM    H7G13744   0.392   5.301   7.273  0.6000 -1.3369 -2.0003
  128OSM    C8F13745   0.586   5.312   7.406 -0.2644  0.8471 -0.5579
  128OSM    H8F13746   0.693   5.316   7.376 -0.6414  1.9988 -1.8928
  128OSM    H8G13747   0.561   5.209   7.439  0.3315  0.8396 -0.1150
  128OSM    C9F13748   0.554   5.412   7.512 -0.1902 -0.0699 -0.5448
  128OSM    H9F13749   0.584   5.515   7.489 -1.4958  0.7616  1.1921
  128OSM   C10F13750   0.486   5.390   7.627  0.1842 -0.4694 -0.1302
  128OSM   H10F13751   0.475   5.468   7.704  0.1914 -2.2187  1.7367
  128OSM   C11F13752   0.434   5.250   7.656 -0.3088 -0.5480 -0.8985
  128OSM   H11F13753   0.516   5.176   7.660  0.6279  0.3867 -1.9790
  128OSM   H11G13754   0.372   5.213   7.571 -0.7035  1.2885 -1.4732
  128OSM   C12F13755   0.361   5.241   7.796 -0.5090  0.4112  0.5153
  128OSM   H12F13756   0.321   5.137   7.800 -0.2159  0.2146 -0.9208
  128OSM   H12G13757   0.276   5.313   7.797 -0.1404  0.8895 -0.6197
  128OSM   C13F13758   0.462   5.278   7.907  0.3216  0.4442 -0.1194
  128OSM   H13F13759   0.486   5.386   7.916  0.0538  0.5173 -0.2669
  128OSM   H13G13760   0.560   5.233   7.883  1.1687  0.7435  2.5541
  128OSM   C14F13761   0.404   5.218   8.042 -0.2138  0.4989  0.0799
  128OSM   H14F13762   0.492   5.227   8.110  0.6122  1.0416 -1.0401
  128OSM   H14G13763   0.381   5.110   8.039 -0.2935  0.5450 -1.2252
  128OSM   C15F13764   0.304   5.314   8.105  0.7875  0.9042  0.6426
  128OSM   H15F13765   0.214   5.312   8.041  0.4950  1.0518  1.0448
  128OSM   H15G13766   0.350   5.416   8.101 -1.4520  1.9210 -1.9832
  128OSM   C16F13767   0.271   5.272   8.242 -0.1171 -0.1159  0.0615
  128OSM   H16F13768   0.360   5.267   8.308 -0.8807  0.1248  1.1366
  128OSM   H16G13769   0.221   5.173   8.239 -2.3414  0.9661 -0.6978
  128OSM   C17F13770   0.157   5.355   8.297  0.5114  0.5425  0.2924
  128OSM   H17F13771   0.078   5.364   8.219 -1.1352 -1.4626  1.6389
  128OSM   H17G13772   0.201   5.456   8.309  0.2443  0.6543  0.3346
  128OSM   C18F13773   0.094   5.311   8.430 -0.2203  0.2989  0.3599
  128OSM   H18F13774   0.027   5.225   8.408 -0.9337  1.3541 -1.9039
  128OSM   H18G13775   0.020   5.392   8.454 -0.3415 -0.0774  1.3076
  128OSM   H18H13776   0.161   5.296   8.517  0.4313 -0.3366 -0.2429
  129OSM      N13777   5.281   0.774   6.037  0.3551 -0.1861  0.4631
  129OSM    C1513778   5.224   0.899   6.092 -0.5250 -0.4278  0.0238
  129OSM   H15A13779   5.272   0.926   6.185 -0.8354 -1.0484  0.3680
  129OSM   H15B13780   5.117   0.886   6.106 -0.9159  2.2855  0.1863
  129OSM   H15C13781   5.226   0.991   6.035 -0.2166 -0.0618  0.6221
  129OSM    C1413782   5.243   0.772   5.893  0.2632  0.1694  0.0332
  129OSM   H14A13783   5.136   0.779   5.883  0.2806  2.5774  0.9025
  129OSM   H14B13784   5.280   0.678   5.856  1.2058  0.1766  0.9104
  129OSM   H14C13785   5.270   0.858   5.834  0.5999 -1.6280 -2.6177
  129OSM    C1313786   5.428   0.779   6.037 -0.2718 -0.0686  0.3620
  129OSM   H13A13787   5.470   0.869   5.997  1.4199 -0.6351  0.7783
  129OSM   H13B13788   5.475   0.708   5.970  0.1719  0.8703 -0.3453
  129OSM   H13C13789   5.476   0.737   6.125  0.6804  0.4451  0.0979
  129OSM    C1213790   5.228   0.643   6.088  0.6482  0.0241 -0.6782
  129OSM   H12A13791   5.272   0.560   6.035 -2.5369 -2.9345  0.9039
  129OSM   H12B13792   5.121   0.631   6.076  0.3712  0.3844  1.0396
  129OSM    C1113793   5.250   0.604   6.235 -0.3829 -0.4427 -0.1444
  129OSM   H11A13794   5.201   0.505   6.243 -2.0279  0.4677  1.8284
  129OSM   H11B13795   5.196   0.662   6.312 -0.3098  0.2261 -0.5974
  129OSM      P13796   5.491   0.490   6.214 -0.2376  0.0729  0.1361
  129OSM    O1313797   5.422   0.386   6.129  0.0322 -0.3779 -0.5129
  129OSM    O1413798   5.609   0.555   6.150  0.1770 -0.3806 -0.4244
  129OSM    O1113799   5.524   0.419   6.358  0.1909  0.1560 -0.3538
  129OSM    O1213800   5.391   0.599   6.261 -0.3832 -0.2206 -0.4162
  129OSM    C1S13801   5.502   0.491   6.486  0.9821  0.2502 -0.3414
  129OSM    H1S13802   5.476   0.598   6.470 -0.2114 -0.0873 -0.7362
  129OSM    H1T13803   5.587   0.494   6.557 -0.5916 -0.5926  1.6906
  129OSM     NF13804   5.347   0.503   6.688 -0.7162  0.1053 -0.1482
  129OSM    HNF13805   5.396   0.476   6.770  1.4314 -1.1147 -1.7340
  129OSM    C2S13806   5.378   0.427   6.563 -0.2105  0.0237  0.7110
  129OSM    H2S13807   5.297   0.447   6.490  0.9517  0.8070 -0.4149
  129OSM    C3S13808   5.398   0.277   6.588 -0.0944 -0.2310  0.6813
  129OSM    H3S13809   5.500   0.262   6.630 -0.0142 -0.4829  0.4021
  129OSM     O313810   5.396   0.199   6.459 -0.5091  0.0984 -0.1616
  129OSM    HO313811   5.406   0.262   6.388 -0.7036 -0.6183 -0.8299
  129OSM    C4S13812   5.308   0.217   6.698  0.0166 -0.0300  0.1688
  129OSM    H4S13813   5.345   0.224   6.801 -1.3438 -0.2017  0.6908
  129OSM    C5S13814   5.193   0.151   6.676 -0.2103 -0.0430  0.3618
  129OSM    H5S13815   5.167   0.133   6.571 -0.1787 -3.9687  0.8639
  129OSM    C6S13816   5.117   0.083   6.783 -0.0356 -0.4802 -1.0129
  129OSM    H6S13817   5.139  -0.025   6.769  0.0149 -0.5697 -0.2880
  129OSM    H6T13818   5.007   0.095   6.775 -0.1839 -1.1121 -0.0879
  129OSM    C7S13819   5.157   0.123   6.926 -0.2192 -0.2394 -0.7559
  129OSM    H7S13820   5.150   0.233   6.944 -0.1504 -0.3024 -0.3154
  129OSM    H7T13821   5.255   0.074   6.946 -1.8075 -3.6952 -0.7022
  129OSM    C8S13822   5.055   0.067   7.026 -0.6748 -1.1256 -0.1591
  129OSM    H8S13823   5.045  -0.043   7.009 -3.6116 -0.6859 -2.1215
  129OSM    H8T13824   4.954   0.113   7.015 -0.2004 -0.3428 -1.3438
  129OSM    C9S13825   5.103   0.081   7.178 -0.2666  0.5790  0.7399
  129OSM    H9S13826   5.140   0.185   7.170  0.3089  0.4217  1.2464
  129OSM    H9T13827   5.194   0.018   7.193  0.5166  1.2779 -0.8381
  129OSM   C10S13828   5.004   0.054   7.284 -0.5089  0.1756 -0.1382
  129OSM   H10S13829   4.976  -0.053   7.286  0.7244 -0.1738  3.0854
  129OSM   H10T13830   4.915   0.119   7.267 -1.4560 -0.9474  0.4370
  129OSM   C11S13831   5.042   0.074   7.430  0.1437 -0.5754 -0.1146
  129OSM   H11S13832   5.133   0.011   7.425  0.0124 -0.6741 -2.6970
  129OSM   H11T13833   4.974   0.027   7.503 -1.9160  2.3020  0.0077
  129OSM   C12S13834   5.078   0.222   7.465  0.2143  0.0915 -0.0496
  129OSM   H12S13835   4.985   0.279   7.444  0.1746  1.0862  2.4645
  129OSM   H12T13836   5.152   0.256   7.389 -2.3799  3.0977 -1.4678
  129OSM   C13S13837   5.138   0.230   7.609  0.6843  0.2682 -0.0582
  129OSM   H13S13838   5.234   0.174   7.604  0.4517 -0.0552 -1.0725
  129OSM   H13T13839   5.077   0.185   7.691  1.6274 -2.2264 -0.6344
  129OSM   C14S13840   5.170   0.377   7.654  0.7594 -0.6471  0.9422
  129OSM   H14S13841   5.083   0.440   7.629  0.4557 -1.6636 -0.6760
  129OSM   H14T13842   5.255   0.410   7.590  0.4377 -1.0093  0.3265
  129OSM   C15S13843   5.197   0.391   7.806 -0.5368  0.3411 -0.1334
  129OSM   H15S13844   5.269   0.315   7.842 -1.9111  0.6089  3.6595
  129OSM   H15T13845   5.100   0.368   7.856 -0.8945 -3.1858 -2.1493
  129OSM   C16S13846   5.237   0.530   7.850  0.1991  0.6134 -0.5399
  129OSM   H16S13847   5.149   0.597   7.844 -1.0146 -0.7885  0.8900
  129OSM   H16T13848   5.326   0.563   7.792  1.3076 -1.0200  0.1547
  129OSM   C17S13849   5.268   0.547   8.002 -0.1561 -0.0843  0.2052
  129OSM   H17S13850   5.315   0.646   8.019 -1.0550  0.3995 -0.0642
  129OSM   H17T13851   5.348   0.474   8.026 -1.0307 -0.8856  0.7384
  129OSM   C18S13852   5.143   0.534   8.094 -0.5374 -0.6735 -0.3075
  129OSM   H18S13853   5.077   0.447   8.075 -0.0908 -0.9361 -0.6736
  129OSM   H18T13854   5.086   0.629   8.092  0.8920  0.2271 -0.0597
  129OSM   H18U13855   5.177   0.526   8.200  2.3064 -1.5038 -1.1767
  129OSM    C1F13856   5.294   0.628   6.685  0.8084 -0.7068  0.7071
  129OSM     OF13857   5.245   0.683   6.583  0.6173 -0.0044  0.0505
  129OSM    C2F13858   5.277   0.693   6.818  0.5999  0.9493 -0.2085
  129OSM    H2F13859   5.313   0.627   6.901  0.6210 -0.8416 -1.5806
  129OSM    H2G13860   5.172   0.728   6.828 -0.2044 -1.5863  1.4237
  129OSM    C3F13861   5.376   0.811   6.838 -0.1816 -0.4634  0.2305
  129OSM    H3F13862   5.341   0.893   6.773 -1.2797 -1.5089 -0.5496
  129OSM    H3G13863   5.479   0.773   6.822 -0.0723 -0.8026  1.6002
  129OSM    C4F13864   5.367   0.865   6.983 -0.0212 -0.4923 -0.2370
  129OSM    H4F13865   5.381   0.773   7.044  1.2331  0.2357  0.6121
  129OSM    H4G13866   5.269   0.913   7.006  0.2367  0.2450 -0.6330
  129OSM    C5F13867   5.473   0.966   7.020 -0.3233 -0.6929  0.7736
  129OSM    H5F13868   5.433   1.068   6.998 -1.5754 -1.1083  1.0742
  129OSM    H5G13869   5.562   0.954   6.954 -1.6784  0.0944 -1.3134
  129OSM    C6F13870   5.521   0.963   7.162  0.2463 -0.6833 -0.1601
  129OSM    H6F13871   5.560   0.861   7.183  1.3583 -0.6016 -1.6481
  129OSM    H6G13872   5.431   0.974   7.226  0.0496 -0.8843 -0.3974
  129OSM    C7F13873   5.629   1.061   7.187  0.4906 -0.1019 -0.8264
  129OSM    H7F13874   5.605   1.150   7.125 -0.4366  0.7208  0.6543
  129OSM    H7G13875   5.726   1.017   7.154  2.1660  1.2079  1.9719
  129OSM    C8F13876   5.646   1.105   7.336 -0.3813 -0.1117  0.1460
  129OSM    H8F13877   5.706   1.027   7.389 -0.5812  0.3560  1.0716
  129OSM    H8G13878   5.547   1.111   7.387  0.2049  0.8967  1.2015
  129OSM    C9F13879   5.700   1.244   7.345  0.3264  0.2342  0.1219
  129OSM    H9F13880   5.644   1.319   7.286  1.8492  0.9891 -0.4118
  129OSM   C10F13881   5.807   1.288   7.407 -0.2555  1.0600  0.3657
  129OSM   H10F13882   5.820   1.398   7.401  0.5599  0.9369 -0.3157
  129OSM   C11F13883   5.909   1.214   7.488 -0.1868  0.1782  0.3615
  129OSM   H11F13884   5.988   1.283   7.522  0.6918 -0.8038  0.3722
  129OSM   H11G13885   5.951   1.130   7.427 -0.1227  0.0048  0.6415
  129OSM   C12F13886   5.870   1.150   7.621  0.2471 -0.0266 -0.1725
  129OSM   H12F13887   5.944   1.076   7.656 -0.2979 -1.2136 -1.4214
  129OSM   H12G13888   5.776   1.092   7.606 -0.5189  1.3495 -1.0320
  129OSM   C13F13889   5.835   1.254   7.730 -0.8885 -0.4260  0.1599
  129OSM   H13F13890   5.736   1.305   7.718 -1.6150 -1.3317  1.9377
  129OSM   H13G13891   5.914   1.332   7.732 -1.9823  0.8392 -2.0551
  129OSM   C14F13892   5.831   1.190   7.875 -0.1807  0.5212 -0.4221
  129OSM   H14F13893   5.812   1.272   7.947 -0.1535 -0.5924  0.8924
  129OSM   H14G13894   5.925   1.140   7.906 -1.2578 -2.3260 -1.3930
  129OSM   C15F13895   5.725   1.079   7.891  0.0297 -0.2536  0.1319
  129OSM   H15F13896   5.762   0.990   7.836  1.2164  0.6351 -0.5499
  129OSM   H15G13897   5.634   1.115   7.839  1.9953  1.9759 -2.0158
  129OSM   C16F13898   5.697   1.028   8.031  0.3170 -0.5387 -0.0673
  129OSM   H16F13899   5.686   1.106   8.110 -1.4472  0.6584 -1.4185
  129OSM   H16G13900   5.789   0.973   8.059 -0.9474 -2.5401  0.3378
  129OSM   C17F13901   5.576   0.935   8.063  0.5324  0.5602 -0.2441
  129OSM   H17F13902   5.473   0.976   8.054 -1.0047 -2.7628  0.6896
  129OSM   H17G13903   5.596   0.897   8.165  0.4497 -1.1867 -0.8354
  129OSM   C18F13904   5.568   0.812   7.967 -0.8819  0.2186  0.5671
  129OSM   H18F13905   5.511   0.729   8.015  1.8806 -1.9716  0.2999
  129OSM   H18G13906   5.673   0.781   7.947 -0.4661  2.0940 -0.3400
  129OSM   H18H13907   5.525   0.832   7.866 -0.4928  1.9480  0.7125
  130OSM      N13908   5.893   4.873   5.924 -0.0445 -0.0031  0.3863
  130OSM    C1513909   5.840   4.737   5.882  0.5921  0.3744  0.4504
  130OSM   H15A13910   5.760   4.697   5.942 -1.5608 -0.4076 -2.7195
  130OSM   H15B13911   5.913   4.658   5.871 -0.9095 -1.0328  0.2068
  130OSM   H15C13912   5.791   4.756   5.788 -2.7675  1.0824  2.2078
  130OSM    C1413913   5.981   4.924   5.820  0.9098 -0.1902 -0.4176
  130OSM   H14A13914   6.037   5.012   5.848  0.6428 -0.2745  0.4267
  130OSM   H14B13915   5.930   4.952   5.729 -0.4184  3.0505  1.1826
  130OSM   H14C13916   6.047   4.844   5.789  1.7777  1.0653 -1.9443
  130OSM    C1313917   5.767   4.957   5.940 -0.6288 -0.6161 -0.1445
  130OSM   H13A13918   5.718   4.969   5.845 -1.1508  0.9078  0.3000
  130OSM   H13B13919   5.795   5.057   5.968  1.8383 -2.0989  3.4945
  130OSM   H13C13920   5.707   4.924   6.023  0.9540 -0.2346  1.2159
  130OSM    C1213921   5.964   4.859   6.058  0.2016 -0.1908 -0.5135
  130OSM   H12A13922   6.005   4.952   6.096 -1.0436  0.9194 -1.7865
  130OSM   H12B13923   6.047   4.791   6.050  2.8998  2.8782 -0.8076
  130OSM    C1113924   5.881   4.803   6.174  0.4250 -0.5509 -0.1037
  130OSM   H11A13925   5.945   4.774   6.261  1.6611  0.6508 -0.5662
  130OSM   H11B13926   5.824   4.714   6.141 -2.3447  0.8344  0.6750
  130OSM      P13927   5.818   5.042   6.279  0.1137 -0.0938 -0.3459
  130OSM    O1313928   5.931   5.100   6.203 -0.3620  0.5179 -0.5551
  130OSM    O1413929   5.690   5.117   6.278 -0.1824 -0.0523 -0.3712
  130OSM    O1113930   5.856   5.001   6.425  0.2872 -0.1060 -0.0249
  130OSM    O1213931   5.786   4.902   6.219 -0.4919  0.5592  0.2010
  130OSM    C1S13932   5.750   4.931   6.497 -0.1240 -0.4426 -0.2707
  130OSM    H1S13933   5.750   4.827   6.456  0.5884 -0.9610  0.9971
  130OSM    H1T13934   5.653   4.984   6.488  0.0271 -0.0909  0.1799
  130OSM     NF13935   5.682   4.834   6.708  0.1918  0.5131  0.1942
  130OSM    HNF13936   5.624   4.862   6.784 -1.1389  0.2461 -0.6940
  130OSM    C2S13937   5.782   4.913   6.649 -0.2992  0.4553 -0.1789
  130OSM    H2S13938   5.880   4.860   6.655 -0.3778 -0.1070 -2.8000
  130OSM    C3S13939   5.803   5.045   6.721 -0.1700 -0.8033  0.8908
  130OSM    H3S13940   5.707   5.097   6.699 -0.1215 -1.7010 -1.7268
  130OSM     O313941   5.894   5.129   6.652  0.1604  1.0899 -0.4898
  130OSM    HO313942   5.894   5.088   6.565  3.0458  0.5653 -0.3224
  130OSM    C4S13943   5.834   5.037   6.870  0.5066 -0.1378  0.2671
  130OSM    H4S13944   5.742   5.033   6.931 -1.0648  1.9269 -1.7767
  130OSM    C5S13945   5.957   5.045   6.922  0.0931  0.6556  0.2637
  130OSM    H5S13946   6.034   5.057   6.845  0.6556 -1.2763  0.4737
  130OSM    C6S13947   6.017   5.017   7.057  0.4978  0.4663 -0.2696
  130OSM    H6S13948   6.045   5.119   7.094 -0.7642  0.9766 -0.6882
  130OSM    H6T13949   6.110   4.958   7.074 -1.3836 -1.9934  2.3024
  130OSM    C7S13950   5.897   4.976   7.156  0.1233 -0.2950  0.8565
  130OSM    H7S13951   5.874   4.868   7.138 -0.4263 -0.0319 -0.1042
  130OSM    H7T13952   5.810   5.044   7.162 -1.2439 -1.6466 -1.7489
  130OSM    C8S13953   5.949   4.964   7.301  0.0134  0.4091 -0.7703
  130OSM    H8S13954   5.968   5.070   7.330  1.2126  0.0080 -0.0519
  130OSM    H8T13955   6.042   4.908   7.323 -0.3883 -0.6394 -1.6405
  130OSM    C9S13956   5.849   4.905   7.405 -0.1913  0.0613  0.8395
  130OSM    H9S13957   5.828   4.804   7.363  0.4306 -0.4382  1.7237
  130OSM    H9T13958   5.753   4.960   7.395 -1.3644 -2.1288 -0.9494
  130OSM   C10S13959   5.890   4.889   7.550 -0.9937 -0.6301 -0.2937
  130OSM   H10S13960   5.927   4.989   7.580 -0.2069 -1.3739  1.3040
  130OSM   H10T13961   5.971   4.814   7.562 -2.2961 -2.1682 -0.8878
  130OSM   C11S13962   5.780   4.843   7.640  0.8924 -0.1248 -0.1655
  130OSM   H11S13963   5.751   4.743   7.600  0.5099  0.7973 -2.2724
  130OSM   H11T13964   5.687   4.904   7.632  1.0605 -0.0357 -1.6628
  130OSM   C12S13965   5.831   4.819   7.788  0.1063 -0.2567  0.0557
  130OSM   H12S13966   5.929   4.767   7.787  0.7716  0.8301 -3.2094
  130OSM   H12T13967   5.754   4.761   7.843  0.2770 -0.2410  0.3111
  130OSM   C13S13968   5.844   4.943   7.881 -0.0613  0.6206  0.0333
  130OSM   H13S13969   5.758   5.013   7.876  1.5687  3.0290  2.6535
  130OSM   H13T13970   5.930   5.000   7.842  1.0406 -1.4869 -0.7589
  130OSM   C14S13971   5.875   4.891   8.023  0.4071  0.1484  0.7816
  130OSM   H14S13972   5.962   4.823   8.010  0.0504 -0.0243 -1.0310
  130OSM   H14T13973   5.792   4.820   8.047  1.5849 -2.0579 -1.2407
  130OSM   C15S13974   5.881   5.006   8.120 -0.1843 -1.0520 -0.4830
  130OSM   H15S13975   5.791   5.071   8.111  1.2678  1.0156 -0.6586
  130OSM   H15T13976   5.965   5.076   8.101 -1.0631 -0.0981 -0.9166
  130OSM   C16S13977   5.883   4.950   8.263  0.8466  0.7569 -0.4833
  130OSM   H16S13978   5.799   4.878   8.273  0.0597  1.3425 -2.4623
  130OSM   H16T13979   5.852   5.026   8.338 -0.0242 -0.1469  0.1057
  130OSM   C17S13980   6.011   4.879   8.300 -0.3418 -0.0687  0.6624
  130OSM   H17S13981   6.096   4.950   8.291 -0.7973  0.7693  2.5776
  130OSM   H17T13982   6.031   4.796   8.229 -0.2308  0.2157  0.3591
  130OSM   C18S13983   6.013   4.832   8.446  0.4249 -0.0421  0.3713
  130OSM   H18S13984   6.104   4.770   8.464  0.8686  0.4028 -0.2966
  130OSM   H18T13985   5.916   4.781   8.465  1.5491 -1.8663  1.5227
  130OSM   H18U13986   6.016   4.910   8.525  0.0862  1.4424 -1.0217
  130OSM    C1F13987   5.689   4.700   6.681 -0.5594  0.7792  0.0178
  130OSM     OF13988   5.770   4.646   6.609  0.5611  0.4738  0.2671
  130OSM    C2F13989   5.607   4.618   6.772  0.8343 -0.0467  0.0070
  130OSM    H2F13990   5.498   4.637   6.760  0.7418 -0.2975  0.4341
  130OSM    H2G13991   5.632   4.633   6.879 -0.1836  1.1120  0.1038
  130OSM    C3F13992   5.630   4.461   6.758 -0.0119 -0.1238 -1.1507
  130OSM    H3F13993   5.737   4.442   6.781  0.0202  1.8098  0.6785
  130OSM    H3G13994   5.605   4.426   6.656 -3.5873  1.6228 -1.0550
  130OSM    C4F13995   5.561   4.356   6.848  0.5759  0.0371 -0.5215
  130OSM    H4F13996   5.580   4.253   6.813 -0.6021 -0.5210  0.4067
  130OSM    H4G13997   5.451   4.368   6.835  0.3729  1.3199  1.8710
  130OSM    C5F13998   5.601   4.365   6.995  0.2800  0.1926 -0.1668
  130OSM    H5F13999   5.575   4.464   7.039 -1.2976 -0.9745  1.6917
  130OSM    H5G14000   5.711   4.346   6.999  0.4871  1.1198 -1.0334
  130OSM    C6F14001   5.530   4.273   7.100  0.5504 -0.4565  0.5614
  130OSM    H6F14002   5.424   4.268   7.068  0.0131  3.0982  1.4545
  130OSM    H6G14003   5.532   4.310   7.204 -1.3941  0.3273  0.3484
  130OSM    C7F14004   5.582   4.133   7.104 -0.4800  0.2254  1.0782
  130OSM    H7F14005   5.693   4.130   7.109 -0.2359  0.8666 -1.8717
  130OSM    H7G14006   5.562   4.081   7.008 -0.9232  1.4769  0.4643
  130OSM    C8F14007   5.528   4.048   7.217  0.4492  0.4445 -0.5702
  130OSM    H8F14008   5.544   4.086   7.320 -2.6699 -0.1475  0.2481
  130OSM    H8G14009   5.588   3.955   7.207 -1.4431 -1.0879  1.3643
  130OSM    C9F14010   5.384   4.008   7.195  0.2541  0.4000  0.0685
  130OSM    H9F14011   5.369   3.970   7.093  0.6911 -0.0417  0.1633
  130OSM   C10F14012   5.280   4.012   7.278 -0.5486 -0.4450  0.3937
  130OSM   H10F14013   5.182   3.974   7.247 -0.4027  0.7147 -1.6563
  130OSM   C11F14014   5.287   4.053   7.421  0.0489  0.6513  0.0751
  130OSM   H11F14015   5.219   4.140   7.430 -1.2754 -0.3422 -0.0623
  130OSM   H11G14016   5.390   4.079   7.453  0.6557  0.8396 -1.9057
  130OSM   C12F14017   5.236   3.949   7.527 -0.0021 -0.1916 -0.9143
  130OSM   H12F14018   5.299   3.858   7.523 -0.2885 -0.3451 -2.4392
  130OSM   H12G14019   5.133   3.919   7.499  0.4808 -0.8864 -2.0503
  130OSM   C13F14020   5.236   4.011   7.671 -0.1807  0.3939  0.3065
  130OSM   H13F14021   5.168   4.098   7.659 -1.4812 -0.4030  1.5806
  130OSM   H13G14022   5.333   4.053   7.705 -0.9331  1.5049  1.1458
  130OSM   C14F14023   5.190   3.923   7.783  0.1651  0.8186 -0.3995
  130OSM   H14F14024   5.268   3.849   7.812 -3.0889 -3.0169 -0.4705
  130OSM   H14G14025   5.105   3.856   7.757  1.4990 -1.1358 -0.0016
  130OSM   C15F14026   5.158   3.987   7.913 -0.0656 -0.0221  0.1042
  130OSM   H15F14027   5.097   4.078   7.895 -0.3555  0.3308  2.5056
  130OSM   H15G14028   5.248   4.001   7.977  1.5199  3.8396 -2.6214
  130OSM   C16F14029   5.073   3.899   8.007 -0.0854 -0.7770  0.3711
  130OSM   H16F14030   5.115   3.869   8.105 -0.5250  1.5495  1.3453
  130OSM   H16G14031   5.058   3.809   7.944 -0.3485 -0.7724  0.4287
  130OSM   C17F14032   4.933   3.951   8.041 -0.6807  0.1545  0.1623
  130OSM   H17F14033   4.878   3.873   8.098 -2.0561  1.6768  1.0174
  130OSM   H17G14034   4.882   3.967   7.943  0.8080  0.6558 -0.5543
  130OSM   C18F14035   4.934   4.074   8.130  0.9819  0.0427 -0.1331
  130OSM   H18F14036   4.836   4.119   8.158  1.4262 -0.8057  3.1649
  130OSM   H18G14037   5.000   4.155   8.092 -0.4350  1.9120  1.2021
  130OSM   H18H14038   4.979   4.057   8.230 -0.5018  0.9096  0.7267
  131OSM      N14039   5.815   3.300   6.184 -0.1561 -0.3137  0.1465
  131OSM    C1514040   5.965   3.287   6.186 -0.1451  0.2580  0.3797
  131OSM   H15A14041   5.995   3.246   6.091 -0.8184 -2.8742  1.3968
  131OSM   H15B14042   6.002   3.236   6.275 -1.1605 -1.6260 -0.2321
  131OSM   H15C14043   5.995   3.390   6.191  0.1444  0.1443  1.4162
  131OSM    C1414044   5.782   3.387   6.293 -0.3528 -0.6674  0.3309
  131OSM   H14A14045   5.817   3.352   6.389 -2.1277  0.5007  1.4543
  131OSM   H14B14046   5.676   3.401   6.303 -0.4771 -1.5109  0.2397
  131OSM   H14C14047   5.832   3.482   6.276 -0.0879 -0.9876 -0.7744
  131OSM    C1314048   5.784   3.353   6.046 -0.3291 -0.4469  0.5732
  131OSM   H13A14049   5.786   3.461   6.034 -0.0251 -0.1674  2.7334
  131OSM   H13B14050   5.689   3.319   6.009  0.7009 -0.4387 -2.2946
  131OSM   H13C14051   5.868   3.314   5.990 -0.5392 -1.8708  1.2062
  131OSM    C1214052   5.752   3.164   6.204  0.0134  0.0539 -0.3990
  131OSM   H12A14053   5.783   3.116   6.296 -1.8626 -1.4709 -0.5005
  131OSM   H12B14054   5.790   3.096   6.129  1.8447 -0.2616  0.7470
  131OSM    C1114055   5.600   3.157   6.194  0.2429  0.4009  1.2208
  131OSM   H11A14056   5.559   3.212   6.282 -0.4283  0.8148  0.6590
  131OSM   H11B14057   5.567   3.052   6.206 -1.2054  0.5839 -0.7234
  131OSM      P14058   5.403   3.234   6.044  0.1653 -0.0221  0.2317
  131OSM    O1314059   5.385   3.323   5.924 -0.1919 -0.5109  0.2657
  131OSM    O1414060   5.322   3.111   6.057 -0.0897 -0.1409 -0.5967
  131OSM    O1114061   5.370   3.330   6.167  0.1872  0.9622  0.2830
  131OSM    O1214062   5.556   3.212   6.064  0.6449  0.6294 -0.1421
  131OSM    C1S14063   5.264   3.300   6.259  0.4824  0.0774  0.1944
  131OSM    H1S14064   5.223   3.197   6.250  0.4618  0.1447 -0.5576
  131OSM    H1T14065   5.187   3.377   6.238  1.8262  0.8259 -2.2850
  131OSM     NF14066   5.189   3.281   6.491 -0.4448 -0.0174 -0.3051
  131OSM    HNF14067   5.139   3.348   6.546  3.0557  0.1179  3.2300
  131OSM    C2S14068   5.308   3.311   6.409  0.2294  0.3208 -0.0475
  131OSM    H2S14069   5.385   3.233   6.430 -1.0324 -1.1904 -0.7937
  131OSM    C3S14070   5.372   3.449   6.436  0.0824 -0.1378  0.4509
  131OSM    H3S14071   5.297   3.526   6.407  0.9092 -0.1379 -1.9178
  131OSM     O314072   5.476   3.484   6.341  1.0307  0.0985  0.5855
  131OSM    HO314073   5.455   3.414   6.278 -1.6239 -1.2567  2.7477
  131OSM    C4S14074   5.431   3.457   6.570 -0.2555 -0.4279  0.7149
  131OSM    H4S14075   5.521   3.399   6.594  1.0020  2.0147  2.3521
  131OSM    C5S14076   5.380   3.533   6.671  0.4798 -0.2559  0.3189
  131OSM    H5S14077   5.282   3.580   6.651  1.3415  0.9046 -1.3836
  131OSM    C6S14078   5.437   3.533   6.810 -1.0882  0.6273 -0.0905
  131OSM    H6S14079   5.464   3.635   6.844  0.7817  0.9667 -2.3295
  131OSM    H6T14080   5.533   3.477   6.813 -1.9938 -0.9353  2.1858
  131OSM    C7S14081   5.355   3.450   6.904  0.8551  0.0165 -0.3253
  131OSM    H7S14082   5.370   3.342   6.884  0.4057 -0.5759  2.1901
  131OSM    H7T14083   5.248   3.479   6.892  1.7969  3.8525 -0.6625
  131OSM    C8S14084   5.404   3.473   7.052 -0.3746  0.0495  0.5131
  131OSM    H8S14085   5.419   3.581   7.072  0.8700 -0.6346  3.9513
  131OSM    H8T14086   5.503   3.423   7.057  0.2935  1.1404 -0.9642
  131OSM    C9S14087   5.298   3.421   7.152 -0.3314  0.0385 -0.1668
  131OSM    H9S14088   5.284   3.311   7.147 -1.9244  0.2698 -1.6355
  131OSM    H9T14089   5.197   3.462   7.128 -0.2052  0.3636 -0.1407
  131OSM   C10S14090   5.345   3.466   7.300  0.0507 -0.0417  0.7316
  131OSM   H10S14091   5.345   3.577   7.300  2.2715  0.0061  0.1490
  131OSM   H10T14092   5.445   3.436   7.339  0.6226  1.9505  0.8833
  131OSM   C11S14093   5.223   3.432   7.393 -1.1751  0.0504  0.2150
  131OSM   H11S14094   5.218   3.327   7.430 -0.9518  0.3459  1.1083
  131OSM   H11T14095   5.128   3.468   7.349  0.3352  2.0432 -1.6499
  131OSM   C12S14096   5.227   3.519   7.522 -0.1436 -0.2412 -0.1014
  131OSM   H12S14097   5.214   3.629   7.511 -0.6099  0.0775  2.8160
  131OSM   H12T14098   5.320   3.488   7.574 -0.6422 -0.6135  0.5739
  131OSM   C13S14099   5.114   3.472   7.621  0.9045 -0.5457 -0.2059
  131OSM   H13S14100   5.131   3.372   7.665 -1.9683 -0.5847  1.0393
  131OSM   H13T14101   5.016   3.475   7.568  1.4856  1.3303 -1.2947
  131OSM   C14S14102   5.110   3.552   7.755 -0.4920 -0.0720  1.0234
  131OSM   H14S14103   5.086   3.657   7.731 -2.1935 -0.3797  1.2777
  131OSM   H14T14104   5.218   3.537   7.780  0.2470  1.6690 -0.8206
  131OSM   C15S14105   5.006   3.494   7.860  0.2838 -0.1592 -0.2332
  131OSM   H15S14106   4.985   3.385   7.850 -1.8147  0.2313 -0.4996
  131OSM   H15T14107   4.905   3.535   7.843  0.0103 -1.1274 -1.1133
  131OSM   C16S14108   5.055   3.507   7.998  0.0321 -0.3108 -0.5626
  131OSM   H16S14109   5.052   3.615   8.022  0.9790 -0.3887 -0.0546
  131OSM   H16T14110   5.156   3.460   8.006  1.2025  2.1765  0.0487
  131OSM   C17S14111   4.954   3.442   8.094 -0.2598 -0.0438  0.1918
  131OSM   H17S14112   4.923   3.340   8.064  0.0609 -0.6333  1.7298
  131OSM   H17T14113   4.858   3.495   8.083  0.1581  0.6012 -0.3884
  131OSM   C18S14114   4.995   3.452   8.240  0.5282  0.6412  0.5645
  131OSM   H18S14115   5.069   3.372   8.262  0.0556 -0.3433 -1.1809
  131OSM   H18T14116   4.910   3.447   8.311  1.1228  3.3437  1.5591
  131OSM   H18U14117   5.043   3.550   8.258 -1.3275  1.7588 -0.2103
  131OSM    C1F14118   5.146   3.155   6.495 -0.1385  0.1771  0.1309
  131OSM     OF14119   5.219   3.062   6.463 -0.1577  0.3526  0.4441
  131OSM    C2F14120   5.006   3.132   6.543 -0.5445 -0.5149  0.1486
  131OSM    H2F14121   4.947   3.151   6.451 -0.0388  1.3569  0.1661
  131OSM    H2G14122   4.972   3.193   6.630 -2.1322 -2.9866  1.3904
  131OSM    C3F14123   4.986   2.987   6.589 -0.3873 -0.1202 -0.5009
  131OSM    H3F14124   5.076   2.967   6.651 -0.2061  0.4346 -0.5802
  131OSM    H3G14125   4.987   2.911   6.508  2.2848  0.5003 -1.1487
  131OSM    C4F14126   4.869   2.979   6.682  0.0811 -0.4767  0.0009
  131OSM    H4F14127   4.777   3.026   6.640 -0.2353  0.7995  1.9866
  131OSM    H4G14128   4.877   3.033   6.779 -1.1058 -0.4975  0.1266
  131OSM    C5F14129   4.832   2.831   6.717 -0.2200 -0.2798 -0.6161
  131OSM    H5F14130   4.925   2.774   6.739  0.0427  0.6915  0.9364
  131OSM    H5G14131   4.796   2.794   6.618 -0.3859 -1.5148 -0.1122
  131OSM    C6F14132   4.727   2.830   6.827  0.3451  0.0137 -0.3722
  131OSM    H6F14133   4.681   2.733   6.800  0.8606 -0.0903 -0.8949
  131OSM    H6G14134   4.650   2.910   6.823  0.2633 -0.0658 -0.3940
  131OSM    C7F14135   4.771   2.819   6.979 -0.0897 -0.3098  0.1109
  131OSM    H7F14136   4.841   2.902   7.001 -2.9801  1.8971  1.6950
  131OSM    H7G14137   4.822   2.722   6.996 -2.5949 -1.2410  3.6135
  131OSM    C8F14138   4.657   2.839   7.076  0.6826  0.1840 -0.0418
  131OSM    H8F14139   4.606   2.936   7.056 -5.5001 -2.2048  1.6141
  131OSM    H8G14140   4.701   2.847   7.178  2.7796 -2.8685 -0.5587
  131OSM    C9F14141   4.549   2.733   7.083 -1.0541 -0.3560 -1.0283
  131OSM    H9F14142   4.464   2.744   7.013 -1.9053  0.1359  0.0598
  131OSM   C10F14143   4.547   2.633   7.168  0.2805 -0.7499  0.2049
  131OSM   H10F14144   4.464   2.561   7.161 -2.2858  2.1015 -1.0016
  131OSM   C11F14145   4.646   2.593   7.278  0.4264 -0.6925  0.5090
  131OSM   H11F14146   4.582   2.540   7.352 -1.8609 -0.0541 -0.9134
  131OSM   H11G14147   4.700   2.684   7.310 -1.2593  0.8273 -0.7719
  131OSM   C12F14148   4.747   2.495   7.217 -1.0038 -0.4010  0.8372
  131OSM   H12F14149   4.800   2.555   7.140  1.4001 -0.6207  2.2183
  131OSM   H12G14150   4.695   2.414   7.161 -0.1430 -0.0197 -0.5779
  131OSM   C13F14151   4.831   2.416   7.310  0.2136 -0.0023  0.2023
  131OSM   H13F14152   4.905   2.486   7.354 -0.7883  1.0514  0.2636
  131OSM   H13G14153   4.889   2.340   7.254 -0.9298  0.7743 -2.1863
  131OSM   C14F14154   4.767   2.340   7.431  0.4011 -0.1886  0.1008
  131OSM   H14F14155   4.680   2.284   7.390  1.6282 -1.5989 -0.6587
  131OSM   H14G14156   4.733   2.405   7.514  0.4529 -0.7466  0.5570
  131OSM   C15F14157   4.865   2.247   7.491 -0.6672 -0.6164 -0.4423
  131OSM   H15F14158   4.956   2.308   7.512  0.0266 -1.1825 -1.6807
  131OSM   H15G14159   4.898   2.172   7.415  0.0486 -1.2878  0.4990
  131OSM   C16F14160   4.800   2.173   7.612 -0.8711  0.7178 -0.4770
  131OSM   H16F14161   4.702   2.128   7.583  0.0060 -2.9768  1.6613
  131OSM   H16G14162   4.775   2.242   7.695  0.2309 -1.5563  1.9095
  131OSM   C17F14163   4.895   2.072   7.670  0.2665  0.5507 -0.1675
  131OSM   H17F14164   4.994   2.120   7.685  1.4302 -1.9637  0.9721
  131OSM   H17G14165   4.924   1.994   7.596  0.4569 -2.0166  2.4345
  131OSM   C18F14166   4.856   2.007   7.803 -1.4396  0.2901  0.0749
  131OSM   H18F14167   4.763   1.955   7.772 -0.6948  0.0197 -1.8754
  131OSM   H18G14168   4.851   2.081   7.886  0.3500  0.0068  0.4530
  131OSM   H18H14169   4.927   1.925   7.824 -0.9772  0.4215 -0.8980
  132OSM      N14170   0.587   1.282   6.352  0.8201 -0.5008  0.0958
  132OSM    C1514171   0.506   1.150   6.320  0.1059 -0.4231 -0.1009
  132OSM   H15A14172   0.576   1.067   6.316 -1.8110 -2.1246 -0.0838
  132OSM   H15B14173   0.469   1.165   6.220 -1.1261  1.9728  0.6441
  132OSM   H15C14174   0.433   1.139   6.399 -0.0730  0.5892 -0.1152
  132OSM    C1414175   0.687   1.321   6.244 -0.4332  0.4019  0.7689
  132OSM   H14A14176   0.649   1.288   6.149 -0.8640 -0.6653  1.2988
  132OSM   H14B14177   0.782   1.272   6.262  1.3445  3.1663 -0.3382
  132OSM   H14C14178   0.697   1.429   6.244  0.9619  0.2907  0.8599
  132OSM    C1314179   0.487   1.396   6.361  0.0576 -0.2930  0.0790
  132OSM   H13A14180   0.456   1.426   6.261 -1.0539 -0.0270  0.4894
  132OSM   H13B14181   0.537   1.479   6.408 -1.2239 -0.2070  1.3467
  132OSM   H13C14182   0.398   1.362   6.412 -0.7364  0.2771 -0.8872
  132OSM    C1214183   0.665   1.271   6.483  0.5917  0.5088 -0.2443
  132OSM   H12A14184   0.596   1.250   6.564  0.5871 -0.9421 -0.5882
  132OSM   H12B14185   0.704   1.367   6.511  1.2953 -0.2355  1.5470
  132OSM    C1114186   0.779   1.169   6.492  0.0559 -0.4130  0.3902
  132OSM   H11A14187   0.748   1.084   6.428 -0.8603 -0.6907  1.1991
  132OSM   H11B14188   0.791   1.140   6.598 -0.4227  0.0399  0.5664
  132OSM      P14189   0.970   1.365   6.503 -0.4573  0.1378 -0.2386
  132OSM    O1314190   1.092   1.394   6.426  0.0616  0.3569 -0.2537
  132OSM    O1414191   0.867   1.470   6.503 -0.2229 -0.4790 -0.6750
  132OSM    O1114192   1.005   1.308   6.642  0.2079  0.0897 -0.8997
  132OSM    O1214193   0.903   1.235   6.436  0.5310  0.0121 -0.4229
  132OSM    C1S14194   1.087   1.193   6.664 -0.3335  0.4831  0.0838
  132OSM    H1S14195   1.186   1.204   6.614 -0.8899  0.8442 -0.9607
  132OSM    H1T14196   1.040   1.101   6.625  0.0825 -0.3144  1.3830
  132OSM     NF14197   1.230   1.063   6.820 -0.3916 -1.0397 -0.6073
  132OSM    HNF14198   1.192   0.971   6.825 -1.5297 -0.7586 -2.7750
  132OSM    C2S14199   1.133   1.173   6.811 -0.6754 -0.3684  0.1421
  132OSM    H2S14200   1.187   1.265   6.843 -0.5872  0.2071 -1.5997
  132OSM    C3S14201   1.002   1.150   6.896 -0.2317 -0.1969 -0.9332
  132OSM    H3S14202   0.945   1.062   6.859 -1.4114  0.4370 -0.6903
  132OSM     O314203   0.905   1.253   6.874 -0.4126  0.7538 -0.5839
  132OSM    HO314204   0.951   1.300   6.804 -0.0600 -1.9953 -2.3590
  132OSM    C4S14205   1.037   1.152   7.044 -0.1202  0.0771  0.3499
  132OSM    H4S14206   1.083   1.244   7.085  0.6699  0.0748 -0.5080
  132OSM    C5S14207   1.009   1.046   7.127  0.1781 -0.0130 -0.3756
  132OSM    H5S14208   0.962   0.955   7.088  0.7425 -0.8010  0.7193
  132OSM    C6S14209   1.045   1.038   7.274  0.4872 -0.0830  0.5573
  132OSM    H6S14210   1.123   1.113   7.297  1.9044 -0.8336 -1.4629
  132OSM    H6T14211   1.075   0.932   7.286 -3.9605 -2.0311 -2.6871
  132OSM    C7S14212   0.908   1.072   7.348 -0.4152  0.1242 -0.3260
  132OSM    H7S14213   0.818   1.046   7.288 -0.7720  1.4222 -0.3867
  132OSM    H7T14214   0.911   1.183   7.355  0.3130  0.1146 -0.4336
  132OSM    C8S14215   0.901   1.003   7.485  0.6204 -0.5209 -0.1544
  132OSM    H8S14216   0.984   1.029   7.554 -2.6489  1.5982  3.3936
  132OSM    H8T14217   0.892   0.895   7.462  0.6128 -0.6028  0.2240
  132OSM    C9S14218   0.787   1.055   7.570  0.5094  0.1781 -0.0018
  132OSM    H9S14219   0.685   1.051   7.527 -0.4403  3.4419  1.6729
  132OSM    H9T14220   0.809   1.163   7.582 -0.3934  0.3594  0.0654
  132OSM   C10S14221   0.781   0.990   7.713  0.0139 -0.0126  0.2433
  132OSM   H10S14222   0.701   1.038   7.774 -0.3251  0.1718 -0.3438
  132OSM   H10T14223   0.868   1.031   7.768  2.0091 -1.8489 -1.3547
  132OSM   C11S14224   0.782   0.839   7.726 -0.1184 -0.2077 -0.5885
  132OSM   H11S14225   0.874   0.790   7.688  0.8330  0.6510  0.5418
  132OSM   H11T14226   0.709   0.787   7.660 -0.0766 -0.9795 -0.0494
  132OSM   C12S14227   0.755   0.783   7.868 -0.8143 -0.6674  0.7518
  132OSM   H12S14228   0.728   0.677   7.849 -1.9030 -0.3710  0.5835
  132OSM   H12T14229   0.679   0.845   7.920  0.6722  0.5055  1.6213
  132OSM   C13S14230   0.872   0.790   7.959  0.6485 -0.2304 -0.6761
  132OSM   H13S14231   0.926   0.887   7.946  0.0041  0.4209  1.1317
  132OSM   H13T14232   0.944   0.709   7.934  0.6318 -0.8840  1.2737
  132OSM   C14S14233   0.847   0.774   8.108 -0.1272  1.0576  0.0268
  132OSM   H14S14234   0.827   0.667   8.129 -0.5713  1.1615  0.1589
  132OSM   H14T14235   0.763   0.839   8.143 -1.7176 -1.5362  1.3151
  132OSM   C15S14236   0.977   0.809   8.179 -0.3649  0.4307 -0.5661
  132OSM   H15S14237   0.998   0.917   8.164 -1.6941  0.9858  1.2321
  132OSM   H15T14238   1.062   0.755   8.132 -1.7132 -1.4471 -0.9785
  132OSM   C16S14239   0.970   0.781   8.335  0.2162  0.0209  0.5915
  132OSM   H16S14240   0.979   0.671   8.341 -2.0782 -0.1796  1.2910
  132OSM   H16T14241   0.874   0.818   8.377  0.9106 -0.1993  2.4868
  132OSM   C17S14242   1.084   0.847   8.417 -0.2064 -0.2430  0.3846
  132OSM   H17S14243   1.056   0.834   8.524  1.0743 -1.9240  0.5581
  132OSM   H17T14244   1.072   0.956   8.401  0.1326 -0.3073 -0.3512
  132OSM   C18S14245   1.221   0.800   8.388 -0.5866  0.4041 -0.2146
  132OSM   H18S14246   1.234   0.695   8.422 -1.8452  0.4710  0.5294
  132OSM   H18T14247   1.291   0.870   8.439  0.9720 -0.3002 -1.2957
  132OSM   H18U14248   1.238   0.807   8.278 -0.1001 -0.4695 -0.2047
  132OSM    C1F14249   1.361   1.079   6.789  0.3143  0.3240 -0.1541
  132OSM     OF14250   1.404   1.192   6.771  0.1969 -0.2914  0.2869
  132OSM    C2F14251   1.455   0.969   6.774 -0.5696  0.3647 -0.1286
  132OSM    H2F14252   1.492   0.968   6.669 -0.2744  1.2391 -0.0392
  132OSM    H2G14253   1.404   0.873   6.797  0.4068 -0.2302 -0.3510
  132OSM    C3F14254   1.569   0.984   6.878 -0.2842  0.4090 -0.0280
  132OSM    H3F14255   1.643   1.065   6.864 -0.1648  0.2116 -0.5303
  132OSM    H3G14256   1.629   0.891   6.869  0.5170  1.0007 -0.9203
  132OSM    C4F14257   1.523   0.973   7.026  0.9989 -0.0202 -1.1136
  132OSM    H4F14258   1.612   0.943   7.086 -1.3280  1.4552  3.5578
  132OSM    H4G14259   1.448   0.892   7.037  0.7641  0.1923 -1.1363
  132OSM    C5F14260   1.467   1.096   7.104  0.2338  0.2581  0.2060
  132OSM    H5F14261   1.386   1.159   7.060 -0.6487 -0.9028  0.1347
  132OSM    H5G14262   1.553   1.162   7.129 -0.7047  0.3857  3.4537
  132OSM    C6F14263   1.437   1.048   7.252  0.3195 -0.4096  0.5832
  132OSM    H6F14264   1.505   0.973   7.296  1.2405  0.0754  0.0357
  132OSM    H6G14265   1.337   1.006   7.231  0.4232  0.1233 -1.1090
  132OSM    C7F14266   1.436   1.170   7.349 -0.5094  0.0561 -0.4188
  132OSM    H7F14267   1.387   1.260   7.306  2.3922  1.6662 -0.6470
  132OSM    H7G14268   1.543   1.195   7.369 -1.0895  2.4433  0.0332
  132OSM    C8F14269   1.380   1.116   7.479 -0.2405  0.0824 -0.0590
  132OSM    H8F14270   1.452   1.044   7.524 -1.4260 -2.0278 -1.3770
  132OSM    H8G14271   1.284   1.066   7.455 -0.0671  0.9359 -2.8178
  132OSM    C9F14272   1.371   1.229   7.574 -0.6335  0.2489  0.4970
  132OSM    H9F14273   1.394   1.326   7.528 -0.0186 -0.6712 -1.2158
  132OSM   C10F14274   1.329   1.221   7.698 -0.4371 -0.1029  0.1754
  132OSM   H10F14275   1.335   1.306   7.767  2.0377  0.7830 -1.0061
  132OSM   C11F14276   1.305   1.089   7.768 -0.5761  0.0531  0.0690
  132OSM   H11F14277   1.402   1.036   7.762 -0.7926 -0.3401  0.0240
  132OSM   H11G14278   1.226   1.028   7.720  0.0947  1.8293 -3.5857
  132OSM   C12F14279   1.265   1.106   7.917  0.0591 -0.5541 -1.2072
  132OSM   H12F14280   1.279   1.011   7.974  0.9000  0.3639  0.1832
  132OSM   H12G14281   1.157   1.130   7.925  0.3722  1.1957 -1.7571
  132OSM   C13F14282   1.356   1.208   8.008  0.3629  0.6000 -0.0476
  132OSM   H13F14283   1.347   1.312   7.968 -2.0717  0.9822  1.2904
  132OSM   H13G14284   1.458   1.173   7.982  0.2486  1.3006 -1.5915
  132OSM   C14F14285   1.345   1.198   8.159 -0.1817 -0.1676 -0.2138
  132OSM   H14F14286   1.328   1.090   8.178  0.2656 -0.5237 -1.7179
  132OSM   H14G14287   1.256   1.258   8.188 -0.3722 -1.6351  2.6473
  132OSM   C15F14288   1.466   1.256   8.233 -0.5145  0.5261  0.9093
  132OSM   H15F14289   1.477   1.361   8.201 -0.5751  0.0054 -0.9371
  132OSM   H15G14290   1.560   1.213   8.193 -0.9910  2.0645 -2.1589
  132OSM   C16F14291   1.450   1.257   8.386 -0.8667  0.4300 -0.5898
  132OSM   H16F14292   1.464   1.157   8.432  1.3158  0.0907 -1.8333
  132OSM   H16G14293   1.358   1.310   8.417  1.5212  2.7240  3.3238
  132OSM   C17F14294   1.545   1.358   8.453 -0.8965 -0.5915 -0.0302
  132OSM   H17F14295   1.521   1.362   8.562 -2.7485 -2.8445 -0.2755
  132OSM   H17G14296   1.528   1.455   8.403  0.0236 -1.2923 -1.7816
  132OSM   C18F14297   1.699   1.324   8.440  0.0020  0.0171 -0.0383
  132OSM   H18F14298   1.721   1.324   8.331  0.1099 -2.4258 -0.0693
  132OSM   H18G14299   1.726   1.223   8.478 -0.3204  0.2104  0.7287
  132OSM   H18H14300   1.750   1.399   8.505 -3.5660  0.6835  2.2586
  133SAPE     N14301   1.491   6.494  10.733 -0.3545 -0.3637 -0.5769
  133SAPE   HN114302   1.483   6.390  10.745 -1.7752 -0.0866  1.4201
  133SAPE   HN214303   1.397   6.522  10.699 -0.7731 -0.2191  0.6554
  133SAPE   HN314304   1.566   6.526  10.669 -1.0065 -0.5946 -1.4701
  133SAPE   C1214305   1.517   6.558  10.876  0.0231  0.1437  0.5353
  133SAPE  H12A14306   1.590   6.498  10.935 -1.0703 -2.1412 -0.3162
  133SAPE  H12B14307   1.421   6.542  10.929  0.8352 -2.9564  1.3024
  133SAPE   C1114308   1.550   6.709  10.872  0.4525  0.7032 -0.1553
  133SAPE  H11A14309   1.555   6.739  10.979  1.3470 -0.1106  0.0445
  133SAPE  H11B14310   1.463   6.763  10.829 -0.7002  0.8457  2.1575
  133SAPE     P14311   1.709   6.879  10.762 -0.4925 -0.2654 -0.1764
  133SAPE   O1314312   1.598   6.938  10.685  0.6918  0.4159  0.1732
  133SAPE   O1414313   1.756   6.949  10.883  0.4778 -0.2096 -0.7024
  133SAPE   O1214314   1.672   6.725  10.798 -0.0114 -0.4563  0.3368
  133SAPE   O1114315   1.831   6.867  10.658 -0.0003 -0.9770  0.2180
  133SAPE    C114316   1.835   6.750  10.577 -0.0728  0.2879 -0.0972
  133SAPE    HA14317   1.938   6.748  10.534  0.3256 -0.0341  0.8412
  133SAPE    HB14318   1.834   6.655  10.635  1.6771  0.9163  1.0415
  133SAPE    C214319   1.747   6.757  10.452 -0.4935  0.3073  0.1587
  133SAPE    HS14320   1.642   6.755  10.488 -0.0085 -1.0900  1.6223
  133SAPE   O2114321   1.769   6.642  10.378 -0.3527 -0.5546  0.4044
  133SAPE   C2114322   1.702   6.535  10.414  0.6853  0.1180  0.3346
  133SAPE   O2214323   1.630   6.525  10.515 -0.3805 -0.5642  0.3525
  133SAPE   C2214324   1.729   6.409  10.317  0.2182  0.1388  0.2143
  133SAPE   H2R14325   1.783   6.438  10.225  0.9752  1.3648  1.0078
  133SAPE   H2S14326   1.795   6.344  10.379  3.3322  3.1722  0.3927
  133SAPE    C314327   1.777   6.878  10.370 -0.2440  0.0256  0.5136
  133SAPE    HX14328   1.884   6.879  10.341 -1.0555 -2.8167 -3.3531
  133SAPE    HY14329   1.742   6.965  10.429  0.3090  1.0035 -0.5746
  133SAPE   O3114330   1.699   6.879  10.249  0.1770  0.0177 -0.1972
  133SAPE   C3114331   1.755   6.845  10.137 -0.0027  0.9124  0.0651
  133SAPE   O3214332   1.874   6.806  10.120 -0.1718  0.7167 -0.3808
  133SAPE   C3214333   1.665   6.878  10.022  0.2998  0.2084 -0.5176
  133SAPE   H2X14334   1.630   6.982  10.038 -1.8848 -0.5908  0.2958
  133SAPE   H2Y14335   1.577   6.811  10.032  0.1825  0.5221  0.7150
  133SAPE   C2314336   1.606   6.323  10.292 -0.3993 -0.7855  0.6947
  133SAPE   H3R14337   1.539   6.328  10.381  0.2412 -0.6759  1.1794
  133SAPE   H3S14338   1.632   6.215  10.286 -1.3043 -1.0060  0.5448
  133SAPE   C2414339   1.546   6.360  10.156 -0.1091 -0.3634 -0.3767
  133SAPE   H4R14340   1.632   6.379  10.087  0.2947  0.5216  0.3448
  133SAPE   H4S14341   1.489   6.453  10.180 -1.2681 -1.2191  0.2683
  133SAPE   C2514342   1.452   6.271  10.084  0.7052  0.3346  0.4417
  133SAPE   H5R14343   1.386   6.209  10.146  0.3995 -0.9503 -1.0996
  133SAPE   C2614344   1.455   6.232   9.956  0.1718 -0.4035  0.3650
  133SAPE   H6R14345   1.377   6.161   9.923 -2.1799  2.0284  0.3874
  133SAPE   C2714346   1.545   6.273   9.846 -0.1556 -0.0600  0.2466
  133SAPE   H7R14347   1.561   6.186   9.779 -0.0444 -0.1328  0.3666
  133SAPE   H7S14348   1.647   6.296   9.885 -0.5385  1.0224  0.6310
  133SAPE   C2814349   1.498   6.397   9.779  0.4555 -0.1525 -0.2445
  133SAPE   H8R14350   1.429   6.462   9.835  0.8111  0.6952 -0.7812
  133SAPE   C2914351   1.522   6.436   9.656  0.3190  0.0786 -0.3915
  133SAPE   H9R14352   1.488   6.534   9.619 -1.3718 -0.7352 -1.1017
  133SAPE  C21014353   1.606   6.365   9.556  0.0562 -0.1995 -0.0120
  133SAPE  H10R14354   1.539   6.335   9.472  1.5246 -1.0521 -0.9340
  133SAPE  H10S14355   1.643   6.269   9.598  1.1544  1.0324  1.9878
  133SAPE  C21114356   1.719   6.442   9.505  0.0697  0.1948 -0.1451
  133SAPE  H11R14357   1.777   6.491   9.585  1.9887 -1.6707 -0.2850
  133SAPE  C21214358   1.759   6.457   9.380  0.0450  0.5854 -0.7299
  133SAPE  H12R14359   1.830   6.540   9.366 -0.3197  0.8210 -1.1984
  133SAPE  C21314360   1.699   6.399   9.253 -0.1326 -0.9744  0.2037
  133SAPE  H13R14361   1.695   6.478   9.174  1.7348 -1.0846 -0.0365
  133SAPE  H13S14362   1.596   6.366   9.277  0.3194 -0.1415  3.8130
  133SAPE  C21414363   1.776   6.280   9.214 -0.1395  0.2660 -0.1744
  133SAPE  H14R14364   1.780   6.196   9.285 -0.0934  0.1966 -0.2586
  133SAPE  C21514365   1.831   6.259   9.093 -0.2435 -0.1787 -0.0189
  133SAPE  H15R14366   1.878   6.165   9.059 -1.0696 -0.6298  0.0426
  133SAPE  C21614367   1.824   6.346   8.971 -0.4049 -0.7966  0.1130
  133SAPE  H16R14368   1.766   6.439   8.988  2.9041  1.6954 -1.0523
  133SAPE  H16S14369   1.772   6.296   8.887 -0.5389 -0.1930 -0.1684
  133SAPE  C21714370   1.964   6.406   8.936 -0.3669  0.0447  0.3013
  133SAPE  H17R14371   1.947   6.446   8.833 -0.7260 -0.8660 -0.0090
  133SAPE  H17S14372   2.049   6.334   8.936 -2.0066 -1.9745 -0.4320
  133SAPE  C21814373   2.002   6.540   9.018  0.0576  0.5478  0.2110
  133SAPE  H18R14374   2.018   6.505   9.122  0.9280 -0.0703 -0.1150
  133SAPE  H18S14375   1.913   6.607   9.018  0.9537  1.8390  1.9373
  133SAPE  C21914376   2.127   6.623   8.975  0.3375  0.1796  0.1722
  133SAPE  H19R14377   2.217   6.565   9.003 -0.6514 -1.1289  0.7653
  133SAPE  H19S14378   2.122   6.718   9.032  0.9570  1.6281 -2.0566
  133SAPE  C22014379   2.121   6.659   8.826  0.1547 -0.1004 -0.3584
  133SAPE  H20R14380   2.183   6.585   8.771  1.2965 -0.3319  1.1976
  133SAPE  H20S14381   2.147   6.760   8.788  0.1583  0.1584  0.3271
  133SAPE  H20T14382   2.012   6.658   8.803 -0.1744  0.9160  1.0553
  133SAPE   C3314383   1.722   6.861   9.879  0.8882  0.0179 -0.5099
  133SAPE   H3X14384   1.742   6.756   9.847  1.4451 -0.1433  0.3416
  133SAPE   H3Y14385   1.815   6.922   9.875  1.9813 -1.2340  2.6821
  133SAPE   C3414386   1.629   6.918   9.777  0.8800 -0.2599 -0.3902
  133SAPE   H4X14387   1.606   7.022   9.807 -1.1687 -0.5316 -0.8308
  133SAPE   H4Y14388   1.532   6.864   9.792 -0.1382  1.5077 -0.3561
  133SAPE   C3514389   1.677   6.903   9.636 -0.8703 -0.2688 -0.0734
  133SAPE   H5X14390   1.615   6.947   9.555  2.4716  1.0966 -2.1306
  133SAPE   H5Y14391   1.663   6.796   9.606 -0.0210 -0.6665  0.9006
  133SAPE   C3614392   1.816   6.960   9.625 -0.4301 -0.1581  0.5102
  133SAPE   H6X14393   1.884   6.873   9.625 -3.3042 -2.6695  2.8958
  133SAPE   H6Y14394   1.841   7.036   9.702 -1.9984  0.9192  0.0104
  133SAPE   C3714395   1.833   7.029   9.489  0.7138 -0.6356 -0.2280
  133SAPE   H7X14396   1.924   7.091   9.506 -1.5101  2.5159  1.3906
  133SAPE   H7Y14397   1.767   7.115   9.464  2.2370 -0.0227 -2.4902
  133SAPE   C3814398   1.844   6.921   9.386 -0.4634 -0.3477  0.5533
  133SAPE   H8X14399   1.774   6.837   9.404  1.7456 -2.2813  0.5355
  133SAPE   H8Y14400   1.946   6.879   9.391 -0.4052 -0.1719  0.8163
  133SAPE   C3914401   1.814   6.977   9.244 -0.1499 -0.2448 -0.6706
  133SAPE   H9X14402   1.896   7.048   9.215 -0.7939  1.1452  0.7418
  133SAPE   H9Y14403   1.719   7.034   9.238 -0.1260 -0.1413 -0.0773
  133SAPE  C31014404   1.802   6.858   9.144 -0.1889  0.5047 -0.0908
  133SAPE  H10X14405   1.719   6.789   9.170  0.8788 -1.2589 -1.1336
  133SAPE  H10Y14406   1.897   6.800   9.140 -0.6490 -0.2366 -0.3617
  133SAPE  C31114407   1.775   6.914   8.999  0.0211 -0.3373  0.4816
  133SAPE  H11X14408   1.863   6.967   8.959  0.3621 -1.4331 -0.2786
  133SAPE  H11Y14409   1.686   6.979   9.016 -0.4867 -0.9193  0.1310
  133SAPE  C31214410   1.738   6.805   8.895  0.1289  0.0201  0.2612
  133SAPE  H12X14411   1.657   6.741   8.937 -2.2068  2.0041 -0.9677
  133SAPE  H12Y14412   1.825   6.738   8.882  1.8110  2.0120  0.7639
  133SAPE  C31314413   1.686   6.858   8.762  0.9190 -0.6174 -0.3827
  133SAPE  H13X14414   1.751   6.937   8.721 -0.7592  0.2579 -1.4961
  133SAPE  H13Y14415   1.585   6.903   8.777 -0.0805 -2.5225 -0.9585
  133SAPE  C31414416   1.674   6.761   8.645  0.0598 -0.0565 -0.6286
  133SAPE  H14X14417   1.604   6.803   8.570 -3.0314 -1.4874  1.2310
  133SAPE  H14Y14418   1.619   6.675   8.689 -2.1561  3.0243  3.3312
  133SAPE  C31514419   1.803   6.710   8.588  0.0946  0.4289  0.0629
  133SAPE  H15X14420   1.783   6.621   8.525  0.6763 -0.5994  1.2717
  133SAPE  H15Y14421   1.888   6.695   8.657  0.1384 -0.6152 -0.2081
  133SAPE  C31614422   1.855   6.805   8.475  0.3482  0.6425 -0.5028
  133SAPE  H16X14423   1.868   6.900   8.530  2.6111 -0.8563  1.7366
  133SAPE  H16Y14424   1.781   6.811   8.392  0.9280  1.7481 -0.9519
  133SAPE  C31714425   1.987   6.753   8.409  0.6419 -0.0937 -0.0756
  133SAPE  H17X14426   1.975   6.656   8.356  0.1893 -0.0997  0.0401
  133SAPE  H17Y14427   2.060   6.740   8.491 -0.3077  0.3448  0.8619
  133SAPE  C31814428   2.032   6.847   8.297  0.6026  0.7531  0.3550
  133SAPE  H18X14429   2.124   6.806   8.250  0.9030  2.0235 -0.2105
  133SAPE  H18Y14430   2.055   6.951   8.328  2.1401  1.0743 -1.7016
  133SAPE  H18Z14431   1.951   6.852   8.221 -1.1614 -1.9727  1.8710
  134SAPE     N14432   5.875   1.533  10.812 -0.2557 -0.1688  1.2501
  134SAPE   HN114433   5.837   1.472  10.887 -2.9875  0.1284  0.2148
  134SAPE   HN214434   5.913   1.625  10.841  2.6939  0.2292 -2.9913
  134SAPE   HN314435   5.800   1.563  10.747  1.1919 -0.3441 -0.5947
  134SAPE   C1214436   5.991   1.481  10.729  0.0499 -0.2735 -0.3665
  134SAPE  H12A14437   6.065   1.432  10.795 -1.1924 -1.9559 -0.1752
  134SAPE  H12B14438   6.045   1.569  10.687 -3.1436  2.5990  1.0003
  134SAPE   C1114439   5.940   1.393  10.615  0.1105 -0.4205  0.4168
  134SAPE  H11A14440   6.028   1.358  10.557  0.0551 -2.4464  1.4669
  134SAPE  H11B14441   5.871   1.456  10.555  0.3817  1.3883  1.9118
  134SAPE     P14442   5.950   1.149  10.731  0.3284 -0.1787  0.2171
  134SAPE   O1314443   6.094   1.181  10.746  0.6385 -0.4490  0.5444
  134SAPE   O1414444   5.879   1.120  10.852 -0.0995  0.7432  0.2637
  134SAPE   O1214445   5.878   1.277  10.674 -0.2579  0.6375 -0.4163
  134SAPE   O1114446   5.936   1.038  10.620  0.2807 -0.8317 -0.1330
  134SAPE    C114447   5.910   1.071  10.483  0.1579  0.2521 -0.1323
  134SAPE    HA14448   5.911   1.180  10.461  1.5398  0.1945 -0.4408
  134SAPE    HB14449   5.994   1.024  10.427 -0.9319 -0.2555 -1.4087
  134SAPE    C214450   5.779   1.012  10.417 -0.4288 -0.2121  0.1763
  134SAPE    HS14451   5.692   1.049  10.475 -0.0368  2.6774 -0.9223
  134SAPE   O2114452   5.791   0.867  10.410 -0.3676 -0.6520  0.5170
  134SAPE   C2114453   5.712   0.799  10.496  0.2135 -0.9392 -0.9506
  134SAPE   O2214454   5.636   0.857  10.573 -0.1127 -0.2827  0.1672
  134SAPE   C2214455   5.741   0.643  10.492 -0.0991 -0.8450 -0.0863
  134SAPE   H2R14456   5.815   0.644  10.409  0.7050  2.8753  0.5012
  134SAPE   H2S14457   5.788   0.618  10.590  2.2112  0.1097 -0.8887
  134SAPE    C314458   5.760   1.060  10.273  0.0869 -1.2760  0.2555
  134SAPE    HX14459   5.662   1.024  10.234 -0.5739  0.7092 -0.0365
  134SAPE    HY14460   5.849   1.020  10.219  0.4080  0.1077 -0.2785
  134SAPE   O3114461   5.765   1.204  10.266  0.1340  0.2908 -0.3734
  134SAPE   C3114462   5.718   1.259  10.157 -0.5744 -0.0102  0.3231
  134SAPE   O3214463   5.667   1.195  10.064  0.4150  0.0803  0.6692
  134SAPE   C3214464   5.723   1.407  10.170 -0.6188  0.0526  0.3073
  134SAPE   H2X14465   5.829   1.429  10.197  0.3097 -1.9584 -1.4076
  134SAPE   H2Y14466   5.661   1.447  10.253 -0.7137  2.7316 -0.9620
  134SAPE   C2314467   5.619   0.561  10.460  0.8458 -0.2390  0.5376
  134SAPE   H3R14468   5.534   0.596  10.521  0.1945 -0.9236  0.0347
  134SAPE   H3S14469   5.632   0.456  10.496  0.3526  0.1970  2.0818
  134SAPE   C2414470   5.576   0.558  10.309  0.4525 -0.7879  0.2004
  134SAPE   H4R14471   5.513   0.469  10.291 -0.1397 -0.7916  2.1060
  134SAPE   H4S14472   5.672   0.545  10.254  0.9276 -1.4037  1.1457
  134SAPE   C2514473   5.490   0.679  10.279  0.0585  0.2143 -0.1902
  134SAPE   H5R14474   5.426   0.721  10.357  2.4521 -1.2631  2.7958
  134SAPE   C2614475   5.500   0.742  10.160  0.4901  0.0484 -0.3726
  134SAPE   H6R14476   5.452   0.841  10.156  2.9365  1.2627 -2.1670
  134SAPE   C2714477   5.593   0.698  10.046 -0.0804 -0.0015  0.3521
  134SAPE   H7R14478   5.574   0.592  10.021  0.3837  0.0792 -0.3666
  134SAPE   H7S14479   5.700   0.694  10.073  0.2052  1.4777 -0.4669
  134SAPE   C2814480   5.593   0.779   9.917 -0.0167 -0.1664 -0.4219
  134SAPE   H8R14481   5.654   0.870   9.923  0.2170 -0.3883  0.8538
  134SAPE   C2914482   5.531   0.737   9.798  0.1488  0.5669 -0.5482
  134SAPE   H9R14483   5.531   0.813   9.718 -1.1885  0.9566 -0.1963
  134SAPE  C21014484   5.464   0.604   9.768  0.0362 -0.7282  0.3268
  134SAPE  H10R14485   5.437   0.548   9.861 -0.3106 -0.1557  0.5814
  134SAPE  H10S14486   5.520   0.549   9.691 -0.5789 -0.6395 -0.1907
  134SAPE  C21114487   5.327   0.642   9.706  0.0212 -0.0744  0.6265
  134SAPE  H11R14488   5.250   0.682   9.773 -0.3978  1.8663 -0.9248
  134SAPE  C21214489   5.291   0.628   9.576  0.2384 -0.3712 -0.1782
  134SAPE  H12R14490   5.194   0.672   9.550 -0.2305 -1.2139  0.1207
  134SAPE  C21314491   5.374   0.592   9.456  0.1184 -0.9050  0.1644
  134SAPE  H13R14492   5.308   0.581   9.367  0.2467  3.2861 -0.6518
  134SAPE  H13S14493   5.421   0.494   9.481  1.7793 -0.2449 -0.2208
  134SAPE  C21414494   5.482   0.689   9.419  0.1356  0.3923  0.7088
  134SAPE  H14R14495   5.554   0.732   9.490 -0.5119  0.7894  1.1325
  134SAPE  C21514496   5.515   0.721   9.286 -0.3657  0.5618 -0.3910
  134SAPE  H15R14497   5.595   0.793   9.264  0.1720 -0.8904 -3.7238
  134SAPE  C21614498   5.435   0.679   9.159 -0.2849  0.4914 -0.0263
  134SAPE  H16R14499   5.423   0.569   9.156  2.3714  0.1659 -0.3849
  134SAPE  H16S14500   5.492   0.700   9.066  2.0665  0.1198  1.2617
  134SAPE  C21714501   5.305   0.752   9.139 -0.0135  0.3127 -0.2559
  134SAPE  H17R14502   5.314   0.860   9.163 -2.9172  0.4410  0.6779
  134SAPE  H17S14503   5.230   0.716   9.213 -3.0631  3.6324 -1.4235
  134SAPE  C21814504   5.249   0.740   8.998 -0.3023  0.3690  0.4539
  134SAPE  H18R14505   5.341   0.745   8.935  1.1883 -2.0767  2.2631
  134SAPE  H18S14506   5.173   0.816   8.972  0.1886  0.1774 -1.7420
  134SAPE  C21914507   5.185   0.603   8.962  0.7057  0.0147  0.6350
  134SAPE  H19R14508   5.095   0.593   9.026  1.6279  1.2466  2.2330
  134SAPE  H19S14509   5.251   0.520   8.995  0.2771 -0.8808 -0.7166
  134SAPE  C22014510   5.150   0.589   8.818 -0.3994 -0.2622  0.0564
  134SAPE  H20R14511   5.095   0.680   8.785 -1.4791 -0.1190  2.1334
  134SAPE  H20S14512   5.090   0.499   8.793  1.0894 -0.9574 -1.1836
  134SAPE  H20T14513   5.250   0.592   8.770  0.1104 -2.0978  0.9229
  134SAPE   C3314514   5.675   1.492  10.047  1.0126 -0.3601 -0.6891
  134SAPE   H3X14515   5.747   1.461   9.968  0.7697 -1.1992 -0.5914
  134SAPE   H3Y14516   5.678   1.597  10.081 -2.4203  0.0171 -1.1401
  134SAPE   C3414517   5.531   1.483  10.003 -0.1443  0.3982  0.6110
  134SAPE   H4X14518   5.463   1.522  10.082 -0.4985  1.8057 -0.3640
  134SAPE   H4Y14519   5.516   1.375   9.983  2.0522  0.1509  0.0405
  134SAPE   C3514520   5.510   1.565   9.875  0.5707 -0.3128 -0.0569
  134SAPE   H5X14521   5.600   1.543   9.814  0.8715 -0.0448  0.2897
  134SAPE   H5Y14522   5.503   1.675   9.890 -1.0104  0.1657 -3.2760
  134SAPE   C3614523   5.375   1.530   9.799 -0.4523 -0.1081 -0.1317
  134SAPE   H6X14524   5.305   1.563   9.878 -0.0526  1.1169 -0.2750
  134SAPE   H6Y14525   5.368   1.419   9.802  1.2795 -0.2443  3.4960
  134SAPE   C3714526   5.364   1.594   9.665  0.3618  0.1192 -0.2570
  134SAPE   H7X14527   5.420   1.689   9.659  0.8682 -0.2617 -2.2833
  134SAPE   H7Y14528   5.255   1.613   9.652  0.3380 -1.1840 -2.4604
  134SAPE   C3814529   5.400   1.506   9.543 -0.0273 -0.5419 -0.9003
  134SAPE   H8X14530   5.337   1.416   9.554  0.2542 -0.7148 -0.6727
  134SAPE   H8Y14531   5.499   1.460   9.564 -0.6386 -1.5287 -0.0743
  134SAPE   C3914532   5.389   1.574   9.408  0.0489  0.1872 -0.2023
  134SAPE   H9X14533   5.468   1.650   9.397 -0.9051  1.3535  0.7641
  134SAPE   H9Y14534   5.292   1.628   9.400 -0.4603 -0.6440  0.2261
  134SAPE  C31014535   5.385   1.476   9.287 -0.3955 -0.5173 -0.2014
  134SAPE  H10X14536   5.320   1.391   9.317 -3.8056  1.2074 -2.0414
  134SAPE  H10Y14537   5.487   1.433   9.271 -0.4939 -0.9935  0.3822
  134SAPE  C31114538   5.326   1.533   9.157  0.2153  0.1619  0.0660
  134SAPE  H11X14539   5.373   1.633   9.163 -1.5101  0.9785  0.8976
  134SAPE  H11Y14540   5.215   1.545   9.160  0.2369  0.2674  0.6119
  134SAPE  C31214541   5.372   1.456   9.029  0.3159 -0.3682 -0.4591
  134SAPE  H12X14542   5.482   1.445   9.019  0.4839  0.8091 -0.1143
  134SAPE  H12Y14543   5.333   1.502   8.936 -0.5220 -2.2569 -1.0862
  134SAPE  C31314544   5.319   1.313   9.023 -0.2298  0.2668 -0.4502
  134SAPE  H13X14545   5.211   1.326   9.048  0.2416 -0.4607  2.3781
  134SAPE  H13Y14546   5.349   1.252   9.111 -2.0864  1.0882  0.8164
  134SAPE  C31414547   5.330   1.246   8.885 -0.5970 -0.8450 -0.3272
  134SAPE  H14X14548   5.400   1.315   8.833 -1.1908 -0.4217 -0.5773
  134SAPE  H14Y14549   5.234   1.244   8.829 -1.3344 -1.7782  0.9116
  134SAPE  C31514550   5.383   1.099   8.891  0.2851 -0.5176 -0.0037
  134SAPE  H15X14551   5.300   1.044   8.939 -0.5473  0.7308  0.0428
  134SAPE  H15Y14552   5.468   1.097   8.963 -0.3470 -0.1357  0.7620
  134SAPE  C31614553   5.418   1.049   8.747  0.2423 -1.3214 -0.0355
  134SAPE  H16X14554   5.454   0.945   8.763 -0.8003 -1.4763  1.4805
  134SAPE  H16Y14555   5.485   1.123   8.698 -2.0316  1.1575  0.3658
  134SAPE  C31714556   5.293   1.041   8.653 -0.1732 -0.4896 -0.5400
  134SAPE  H17X14557   5.268   1.145   8.622 -1.7905 -0.1322  1.6713
  134SAPE  H17Y14558   5.201   1.000   8.700  0.0506  0.3939  0.7244
  134SAPE  C31814559   5.330   0.968   8.525  0.4342 -0.9865  0.7965
  134SAPE  H18X14560   5.407   1.028   8.471 -0.7565 -0.2606 -0.1324
  134SAPE  H18Y14561   5.249   0.950   8.452  0.3780  1.5911  0.1425
  134SAPE  H18Z14562   5.377   0.871   8.552  0.9561 -0.4056  2.0687
  135SAPE     N14563   3.938   1.627  10.812 -0.4223 -0.0948  0.3842
  135SAPE   HN114564   3.956   1.649  10.912 -0.9283  1.9364  0.0746
  135SAPE   HN214565   4.006   1.691  10.765 -0.2700 -1.0509 -0.7506
  135SAPE   HN314566   3.838   1.646  10.791 -0.2028 -0.0486 -0.6851
  135SAPE   C1214567   3.983   1.486  10.791  0.3474  0.1867 -0.3256
  135SAPE  H12A14568   3.926   1.417  10.857 -1.1311  0.9116 -0.8157
  135SAPE  H12B14569   4.090   1.491  10.824 -0.1022 -0.6893  1.4073
  135SAPE   C1114570   3.979   1.443  10.637  0.5726 -0.2761 -0.5240
  135SAPE  H11A14571   4.013   1.338  10.630  2.4295  0.3229 -1.0941
  135SAPE  H11B14572   4.048   1.510  10.581 -1.2512  1.7429 -0.4722
  135SAPE     P14573   3.739   1.343  10.590 -0.7285  0.3016 -0.2070
  135SAPE   O1314574   3.792   1.225  10.665 -0.2267 -0.4026  0.3349
  135SAPE   O1414575   3.615   1.411  10.635  0.4172 -0.0075  0.5408
  135SAPE   O1214576   3.850   1.459  10.575  0.0015 -0.1877  0.1859
  135SAPE   O1114577   3.713   1.289  10.444 -0.5060  0.6325 -0.1277
  135SAPE    C114578   3.803   1.310  10.331  0.4141  0.1830 -0.4328
  135SAPE    HA14579   3.817   1.419  10.311 -1.6943  0.6737  0.5075
  135SAPE    HB14580   3.901   1.267  10.360  0.1228  0.2203  0.6692
  135SAPE    C214581   3.738   1.245  10.203  0.9752 -1.1805  0.1592
  135SAPE    HS14582   3.808   1.265  10.120 -0.6063  0.4616 -0.8445
  135SAPE   O2114583   3.600   1.303  10.179  0.0830  0.3875  0.0598
  135SAPE   C2114584   3.598   1.423  10.130 -0.4927 -0.1466  0.9972
  135SAPE   O2214585   3.693   1.498  10.107 -0.0083  0.6110  0.1648
  135SAPE   C2214586   3.459   1.476  10.145  0.2468 -0.1908  0.6258
  135SAPE   H2R14587   3.409   1.409  10.218  2.4528  0.0198  2.4564
  135SAPE   H2S14588   3.463   1.574  10.195 -1.7538 -0.1489  0.7692
  135SAPE    C314589   3.735   1.087  10.207 -0.2651  0.1694  0.6328
  135SAPE    HX14590   3.708   1.051  10.309  0.2483  0.7545  0.9777
  135SAPE    HY14591   3.842   1.059  10.197 -0.2097  0.9278 -1.3361
  135SAPE   O3114592   3.655   1.034  10.104 -0.1931 -0.5106 -0.1569
  135SAPE   C3114593   3.536   0.988  10.139 -0.4087  0.4174 -0.2583
  135SAPE   O3214594   3.486   0.996  10.249  0.0372 -0.5241  0.3496
  135SAPE   C3214595   3.484   0.902  10.019 -0.1819 -0.7059  0.5734
  135SAPE   H2X14596   3.385   0.934   9.981  0.1010  1.3215  1.3849
  135SAPE   H2Y14597   3.475   0.800  10.062 -0.3139 -0.4227  1.2186
  135SAPE   C2314598   3.393   1.491  10.010 -0.0329 -0.2721  0.3248
  135SAPE   H3R14599   3.456   1.558   9.946  0.2292 -0.5581  0.2811
  135SAPE   H3S14600   3.294   1.540  10.015 -1.0823 -2.2774  0.1506
  135SAPE   C2414601   3.360   1.359   9.942 -0.2010  0.5358  0.3500
  135SAPE   H4R14602   3.455   1.311   9.911  1.2724  1.5962  2.8594
  135SAPE   H4S14603   3.298   1.392   9.856  1.2490  0.8247 -0.6333
  135SAPE   C2514604   3.282   1.258  10.016 -0.2198 -0.4482 -0.2024
  135SAPE   H5R14605   3.317   1.226  10.115 -1.9963 -0.1900  0.5463
  135SAPE   C2614606   3.166   1.208   9.983 -0.3648 -0.0946  0.6114
  135SAPE   H6R14607   3.127   1.130  10.051 -3.0547  0.9722  0.4259
  135SAPE   C2714608   3.086   1.226   9.852  0.4257  0.3453 -0.6779
  135SAPE   H7R14609   3.067   1.334   9.840 -0.7508 -0.0482 -2.8557
  135SAPE   H7S14610   2.991   1.174   9.880  0.7993  0.8070  1.6885
  135SAPE   C2814611   3.161   1.168   9.733 -0.8429  0.4562 -0.8322
  135SAPE   H8R14612   3.225   1.082   9.759 -0.9738  0.6029 -0.0010
  135SAPE   C2914613   3.136   1.194   9.605  0.2879  0.2501 -0.1339
  135SAPE   H9R14614   3.199   1.154   9.523 -2.3768  1.6113 -3.0874
  135SAPE  C21014615   3.030   1.291   9.557 -0.4133 -1.1205 -0.0720
  135SAPE  H10R14616   2.953   1.307   9.636 -1.2498  1.6070 -1.3062
  135SAPE  H10S14617   2.969   1.239   9.480 -0.8434  0.1979 -0.6576
  135SAPE  C21114618   3.078   1.429   9.527  0.5602  0.9135 -0.1619
  135SAPE  H11R14619   3.109   1.477   9.621  0.4036  0.2996  0.2117
  135SAPE  C21214620   3.101   1.483   9.406 -0.4016 -0.4732 -0.5263
  135SAPE  H12R14621   3.148   1.582   9.398 -1.1056 -0.0121  0.7858
  135SAPE  C21314622   3.078   1.402   9.283 -0.8098  0.2225  0.4485
  135SAPE  H13R14623   3.019   1.308   9.293 -0.5417  0.1487  1.4349
  135SAPE  H13S14624   3.178   1.364   9.251 -1.3328 -0.0690 -0.8950
  135SAPE  C21414625   3.016   1.483   9.179 -0.1346  0.4033 -0.0014
  135SAPE  H14R14626   2.906   1.488   9.176 -0.1613  0.1734  0.4945
  135SAPE  C21514627   3.068   1.550   9.073 -0.3314 -0.9280  0.1701
  135SAPE  H15R14628   3.000   1.605   9.007 -0.7154 -1.7456 -0.1151
  135SAPE  C21614629   3.214   1.558   9.043  0.7089  0.1987 -0.7454
  135SAPE  H16R14630   3.271   1.522   9.131 -0.6974  0.9887  0.5340
  135SAPE  H16S14631   3.239   1.666   9.037  3.9125 -0.4622 -0.8920
  135SAPE  C21714632   3.267   1.486   8.917  0.4188  0.2297  0.6314
  135SAPE  H17R14633   3.220   1.531   8.827 -1.3006  0.9584  1.8354
  135SAPE  H17S14634   3.224   1.383   8.912  3.4629 -1.0811 -1.6201
  135SAPE  C21814635   3.422   1.483   8.903  0.3189  0.8100 -0.3682
  135SAPE  H18R14636   3.446   1.377   8.879 -0.3450  0.8331 -1.1814
  135SAPE  H18S14637   3.475   1.494   9.000  2.3083 -2.6178 -0.9010
  135SAPE  C21914638   3.486   1.581   8.800  0.0486 -0.7302  0.2766
  135SAPE  H19R14639   3.596   1.595   8.809  0.1531 -1.2240 -0.1822
  135SAPE  H19S14640   3.442   1.681   8.819 -0.9896 -1.2809  0.8785
  135SAPE  C22014641   3.461   1.533   8.659  0.6483 -0.2817 -0.4608
  135SAPE  H20R14642   3.352   1.516   8.644  0.5768 -0.7122  0.4568
  135SAPE  H20S14643   3.504   1.431   8.644 -0.3159 -1.0768  1.7596
  135SAPE  H20T14644   3.499   1.605   8.583 -0.2492  0.6118 -0.0783
  135SAPE   C3314645   3.578   0.892   9.898 -0.3780 -0.1108  0.1719
  135SAPE   H3X14646   3.683   0.864   9.919 -0.1661 -0.1210 -0.8374
  135SAPE   H3Y14647   3.597   0.993   9.856 -0.3214 -1.0855 -2.2970
  135SAPE   C3414648   3.519   0.794   9.798 -0.8735 -0.3664  0.1658
  135SAPE   H4X14649   3.431   0.845   9.754 -0.2636  1.8424  1.3350
  135SAPE   H4Y14650   3.483   0.702   9.849 -1.7110 -0.1704 -0.0514
  135SAPE   C3514651   3.617   0.752   9.685 -0.2106 -0.5160 -0.2764
  135SAPE   H5X14652   3.700   0.685   9.717 -2.8145 -4.0025 -0.2603
  135SAPE   H5Y14653   3.669   0.839   9.640 -2.4432  0.2847 -1.4612
  135SAPE   C3614654   3.540   0.698   9.562 -0.2514 -0.0666  0.9126
  135SAPE   H6X14655   3.461   0.773   9.541 -1.9859 -1.5269  1.9301
  135SAPE   H6Y14656   3.492   0.602   9.590  0.9390 -0.9855 -0.0916
  135SAPE   C3714657   3.638   0.675   9.437 -0.3434 -0.0834 -0.0642
  135SAPE   H7X14658   3.700   0.586   9.458 -0.2975 -0.6887 -2.3915
  135SAPE   H7Y14659   3.698   0.767   9.420  1.6347 -1.7614 -3.1029
  135SAPE   C3814660   3.553   0.641   9.315  0.8683 -0.0748 -0.6395
  135SAPE   H8X14661   3.460   0.701   9.318  1.1063  0.3301 -1.1690
  135SAPE   H8Y14662   3.525   0.533   9.315 -0.2460  0.1482  1.7230
  135SAPE   C3914663   3.626   0.660   9.183 -0.8462 -0.7366 -0.9341
  135SAPE   H9X14664   3.729   0.618   9.182 -0.1278  0.9437 -1.2483
  135SAPE   H9Y14665   3.631   0.771   9.172 -0.9202 -0.7053 -0.6483
  135SAPE  C31014666   3.553   0.604   9.063  0.6205  0.3892  0.4680
  135SAPE  H10X14667   3.575   0.646   8.963 -2.9719  1.0628 -0.1704
  135SAPE  H10Y14668   3.445   0.616   9.083  0.9341 -0.8934  3.4881
  135SAPE  C31114669   3.573   0.447   9.065  0.0337 -0.2335  0.4742
  135SAPE  H11X14670   3.510   0.395   9.140  1.8317 -1.8319  0.9522
  135SAPE  H11Y14671   3.678   0.417   9.083 -0.0728 -0.1481  1.2348
  135SAPE  C31214672   3.540   0.380   8.928  0.1136 -0.5539 -0.6047
  135SAPE  H12X14673   3.599   0.445   8.859 -2.3719  2.9979  0.3264
  135SAPE  H12Y14674   3.430   0.384   8.910 -0.0365 -1.3423  0.0913
  135SAPE  C31314675   3.576   0.239   8.919 -0.1473 -0.3386  0.1035
  135SAPE  H13X14676   3.542   0.180   9.006 -1.2226  1.3153  0.8609
  135SAPE  H13Y14677   3.687   0.235   8.915 -0.1192  0.1556  0.2448
  135SAPE  C31414678   3.515   0.166   8.797 -0.1503  0.2533 -0.5873
  135SAPE  H14X14679   3.536   0.225   8.706 -1.5244  0.7954 -0.5680
  135SAPE  H14Y14680   3.405   0.158   8.803 -0.3126  2.3377 -0.2862
  135SAPE  C31514681   3.594   0.032   8.781  0.2338  0.5851 -0.1839
  135SAPE  H15X14682   3.594  -0.022   8.878 -1.5505 -0.7692 -0.8761
  135SAPE  H15Y14683   3.700   0.044   8.752  0.0931 -1.3970 -1.6846
  135SAPE  C31614684   3.531  -0.069   8.679 -0.3990 -0.1236  0.6680
  135SAPE  H16X14685   3.501  -0.016   8.586  0.5683 -0.4279  0.1710
  135SAPE  H16Y14686   3.440  -0.104   8.731 -0.6318 -0.5293  0.0046
  135SAPE  C31714687   3.620  -0.179   8.632  0.1097 -0.0588  0.2366
  135SAPE  H17X14688   3.688  -0.158   8.547  0.4829  0.4008  0.6386
  135SAPE  H17Y14689   3.558  -0.266   8.602  0.8293 -0.2232 -0.8450
  135SAPE  C31814690   3.711  -0.237   8.742  0.6971  0.1472  0.6328
  135SAPE  H18X14691   3.786  -0.165   8.781  0.3004  0.3429  1.0464
  135SAPE  H18Y14692   3.766  -0.321   8.695 -0.7914 -0.3413 -0.3003
  135SAPE  H18Z14693   3.640  -0.262   8.824 -0.8465  1.0382 -0.3823
  136SAPE     N14694   6.016   5.490  10.888  0.0449 -0.0579  0.1697
  136SAPE   HN114695   5.978   5.529  10.976  0.0885 -2.9429  1.6060
  136SAPE   HN214696   6.116   5.515  10.896  0.3382 -1.4812  1.4840
  136SAPE   HN314697   5.962   5.528  10.807  1.1772  0.5252 -0.3295
  136SAPE   C1214698   6.021   5.336  10.878  0.0806 -0.3434  0.0256
  136SAPE  H12A14699   6.022   5.297  10.982 -1.3483  1.9001  0.9782
  136SAPE  H12B14700   6.118   5.304  10.835  0.3088 -0.4670  0.6270
  136SAPE   C1114701   5.902   5.277  10.800  0.1720 -0.4610  0.3831
  136SAPE  H11A14702   5.935   5.194  10.734  0.5404  0.7168 -0.9561
  136SAPE  H11B14703   5.856   5.352  10.733  1.2318 -0.7350 -0.6756
  136SAPE     P14704   5.752   5.095  10.910 -0.0526 -0.1765 -0.4841
  136SAPE   O1314705   5.856   5.027  10.988  0.1251 -0.2754  0.2626
  136SAPE   O1414706   5.620   5.097  10.979  0.2561  0.1283  0.4071
  136SAPE   O1214707   5.804   5.238  10.895 -0.0460 -0.7401  0.1394
  136SAPE   O1114708   5.738   5.041  10.765 -0.4687 -0.1327 -0.0396
  136SAPE    C114709   5.660   5.095  10.664  0.0056 -0.0887  0.3821
  136SAPE    HA14710   5.552   5.089  10.692  0.3352 -0.2211  1.6889
  136SAPE    HB14711   5.680   5.201  10.639  1.4435  0.0459  1.9290
  136SAPE    C214712   5.669   5.006  10.539 -0.0179 -0.1688  0.2647
  136SAPE    HS14713   5.669   5.072  10.450 -0.7578  0.7196  0.9105
  136SAPE   O2114714   5.559   4.911  10.530 -0.4076  0.3353 -0.0855
  136SAPE   C2114715   5.455   4.953  10.480  0.4226 -0.2657 -0.2024
  136SAPE   O2214716   5.433   5.068  10.445  0.7629  0.6146  0.0056
  136SAPE   C2214717   5.349   4.842  10.468  0.6893  0.3259 -0.2484
  136SAPE   H2R14718   5.350   4.774  10.556  0.2140  1.6043  0.7781
  136SAPE   H2S14719   5.248   4.887  10.471  0.6571  0.1904  1.8194
  136SAPE    C314720   5.805   4.932  10.535 -0.6747 -0.0391  0.1333
  136SAPE    HX14721   5.780   4.842  10.594  1.1758 -1.1411 -0.6755
  136SAPE    HY14722   5.893   4.989  10.573 -1.1872  0.6725  0.2792
  136SAPE   O3114723   5.835   4.875  10.405  0.5702  0.0572  0.1013
  136SAPE   C3114724   5.920   4.947  10.334  0.4868 -0.1032  0.2543
  136SAPE   O3214725   5.961   5.059  10.367  0.0074  0.4617  0.3483
  136SAPE   C3214726   5.952   4.879  10.200  0.5292  0.5603 -0.4854
  136SAPE   H2X14727   6.050   4.829  10.216  0.2747 -0.1538 -1.1278
  136SAPE   H2Y14728   5.961   4.940  10.108 -0.1382 -1.0820 -1.6933
  136SAPE   C2314729   5.379   4.741  10.347 -0.0840 -0.5492  0.8610
  136SAPE   H3R14730   5.364   4.640  10.390 -2.9169 -0.5742  0.0146
  136SAPE   H3S14731   5.485   4.752  10.315  0.3686 -1.8383  1.8496
  136SAPE   C2414732   5.279   4.747  10.230 -0.0815  0.0035 -0.0821
  136SAPE   H4R14733   5.178   4.725  10.270  0.2656  1.3185  1.6046
  136SAPE   H4S14734   5.314   4.658  10.173  1.5291 -0.2502  1.2079
  136SAPE   C2514735   5.302   4.876  10.147  0.6414 -0.2162 -0.6088
  136SAPE   H5R14736   5.268   4.968  10.197  0.0539 -0.8990  0.2696
  136SAPE   C2614737   5.372   4.891  10.035  0.4018  0.1508  0.7827
  136SAPE   H6R14738   5.381   4.986   9.980  1.3590 -0.4151 -0.0690
  136SAPE   C2714739   5.435   4.774   9.963  0.0585  0.2094  0.6842
  136SAPE   H7R14740   5.371   4.684   9.947  0.4431  0.2953 -1.7442
  136SAPE   H7S14741   5.518   4.742  10.030 -1.0747 -0.6628  1.7168
  136SAPE   C2814742   5.496   4.816   9.831  0.3131  0.5351  0.1354
  136SAPE   H8R14743   5.550   4.912   9.839 -1.9346  1.6861  2.9116
  136SAPE   C2914744   5.478   4.760   9.707 -0.2812 -0.1444 -0.3500
  136SAPE   H9R14745   5.528   4.812   9.623 -0.2686  0.5273  0.0629
  136SAPE  C21014746   5.386   4.641   9.691 -0.6839  0.3183  0.0669
  136SAPE  H10R14747   5.340   4.658   9.591 -0.9503  1.5437  0.3955
  136SAPE  H10S14748   5.303   4.647   9.763 -2.7835  0.7837 -2.2533
  136SAPE  C21114749   5.450   4.505   9.694 -0.3554 -0.5951 -0.0174
  136SAPE  H11R14750   5.457   4.458   9.793  0.4462  0.3250  0.3721
  136SAPE  C21214751   5.489   4.434   9.585 -0.1370 -0.7243  0.7802
  136SAPE  H12R14752   5.522   4.330   9.599 -1.9467 -1.2180  1.6340
  136SAPE  C21314753   5.488   4.480   9.442 -0.6366  0.2871  0.1203
  136SAPE  H13R14754   5.386   4.521   9.428 -1.0513 -0.9033 -0.5340
  136SAPE  H13S14755   5.490   4.399   9.365  1.1496  1.8941 -1.6449
  136SAPE  C21414756   5.597   4.576   9.417 -0.1207  0.0115  0.0580
  136SAPE  H14R14757   5.670   4.582   9.498 -1.3609  1.1191  1.1342
  136SAPE  C21514758   5.600   4.657   9.308  0.2621 -0.9815 -0.5441
  136SAPE  H15R14759   5.689   4.721   9.295 -0.1156 -0.5638 -1.0900
  136SAPE  C21614760   5.492   4.658   9.198 -0.2194 -0.0345 -0.9561
  136SAPE  H16R14761   5.459   4.762   9.180  1.8566  0.7535 -0.4622
  136SAPE  H16S14762   5.407   4.593   9.229  0.6777 -0.7256  0.1488
  136SAPE  C21714763   5.546   4.607   9.063 -0.4722 -0.2725  0.1691
  136SAPE  H17R14764   5.624   4.530   9.081 -0.2861 -0.0918  0.1456
  136SAPE  H17S14765   5.609   4.684   9.013 -2.1469 -0.6552 -2.7807
  136SAPE  C21814766   5.443   4.568   8.956 -0.6711 -0.1194 -0.4622
  136SAPE  H18R14767   5.376   4.656   8.949 -1.4991 -0.5289  1.4659
  136SAPE  H18S14768   5.381   4.493   9.011 -1.8517  0.8051 -0.4991
  136SAPE  C21914769   5.497   4.517   8.823 -0.1364 -0.2439 -0.2891
  136SAPE  H19R14770   5.562   4.430   8.850  1.0542  0.5355 -0.5945
  136SAPE  H19S14771   5.551   4.597   8.769  0.8801 -1.9282 -1.8708
  136SAPE  C22014772   5.393   4.454   8.731 -0.4478 -0.2903 -0.0272
  136SAPE  H20R14773   5.436   4.421   8.634  0.6543 -1.9377  0.9852
  136SAPE  H20S14774   5.310   4.525   8.709 -1.3260 -1.8192 -1.9552
  136SAPE  H20T14775   5.349   4.372   8.791  0.6513  0.5767  2.0663
  136SAPE   C3314776   5.850   4.765  10.160 -0.4493  0.0812  0.1880
  136SAPE   H3X14777   5.762   4.801  10.102 -0.3231 -0.5937 -0.4373
  136SAPE   H3Y14778   5.812   4.691  10.234  1.0355 -0.5715  0.3230
  136SAPE   C3414779   5.928   4.671  10.058  0.0159 -0.3257 -0.5872
  136SAPE   H4X14780   5.868   4.578  10.056 -0.9590  0.2913 -0.8829
  136SAPE   H4Y14781   6.033   4.650  10.087  0.2685  1.0684 -0.3865
  136SAPE   C3514782   5.921   4.723   9.914  0.1496 -0.3281 -0.3666
  136SAPE   H5X14783   5.995   4.805   9.905 -0.2687  0.2336  1.0598
  136SAPE   H5Y14784   5.821   4.763   9.888  0.7409  1.4275 -0.0814
  136SAPE   C3614785   5.961   4.626   9.815  0.7886  0.0279  0.7504
  136SAPE   H6X14786   5.881   4.552   9.793 -0.8343  2.3836 -1.9678
  136SAPE   H6Y14787   6.047   4.563   9.844 -0.7423 -1.5052  2.2591
  136SAPE   C3714788   5.980   4.695   9.677  0.5210 -0.2254 -0.9186
  136SAPE   H7X14789   6.062   4.769   9.688 -0.1188  0.4597 -0.7174
  136SAPE   H7Y14790   5.883   4.743   9.654 -1.0432 -0.7748  3.5719
  136SAPE   C3814791   6.020   4.593   9.564  0.7645 -0.2455 -0.7295
  136SAPE   H8X14792   5.948   4.508   9.561 -0.2811  0.3576  2.6706
  136SAPE   H8Y14793   6.120   4.551   9.591 -0.4657 -1.3469  2.7730
  136SAPE   C3914794   6.030   4.654   9.426 -0.1701  0.2659 -1.1788
  136SAPE   H9X14795   6.099   4.741   9.418 -0.0256  0.4327  1.2287
  136SAPE   H9Y14796   5.928   4.686   9.398 -0.1604 -1.3301 -3.3269
  136SAPE  C31014797   6.076   4.542   9.329  0.2863  0.0344  0.2351
  136SAPE  H10X14798   6.008   4.455   9.326  1.0754 -0.6166  0.8985
  136SAPE  H10Y14799   6.173   4.514   9.375  1.2947  0.6851 -1.4085
  136SAPE  C31114800   6.094   4.590   9.182 -0.1167 -0.4927 -0.4608
  136SAPE  H11X14801   6.178   4.660   9.167 -1.5575  0.9162 -2.7261
  136SAPE  H11Y14802   6.013   4.664   9.166 -1.0867 -0.7821  2.4768
  136SAPE  C31214803   6.105   4.480   9.073  0.2264 -0.3813  0.4998
  136SAPE  H12X14804   6.009   4.427   9.090  0.4470 -0.8113  0.4184
  136SAPE  H12Y14805   6.189   4.412   9.097  0.1776  0.2279  2.5687
  136SAPE  C31314806   6.104   4.533   8.935  0.2253  0.8230 -0.5767
  136SAPE  H13X14807   6.180   4.613   8.925  1.7298 -0.4730 -0.0381
  136SAPE  H13Y14808   6.006   4.585   8.929  0.6991  2.1684  2.0085
  136SAPE  C31414809   6.098   4.413   8.833 -0.4727 -0.7138  0.2022
  136SAPE  H14X14810   6.191   4.352   8.840  1.9060  2.7040  0.7937
  136SAPE  H14Y14811   6.124   4.467   8.740  0.2394  0.1625  0.8864
  136SAPE  C31514812   5.968   4.334   8.828  0.7242 -0.1455  0.5816
  136SAPE  H15X14813   5.882   4.403   8.813  0.9672 -0.2879 -1.8983
  136SAPE  H15Y14814   5.941   4.289   8.926 -0.1861  0.4043  0.5937
  136SAPE  C31614815   5.962   4.240   8.714  0.4313  0.1047  0.1791
  136SAPE  H16X14816   6.051   4.175   8.726 -0.8175 -1.6885  0.1285
  136SAPE  H16Y14817   5.976   4.284   8.613 -0.8888 -4.4892 -2.3236
  136SAPE  C31714818   5.841   4.147   8.712 -0.1811  0.1167  0.8208
  136SAPE  H17X14819   5.781   4.147   8.806  1.4709  2.7690  1.9963
  136SAPE  H17Y14820   5.876   4.043   8.695  0.5253  0.2537  1.3656
  136SAPE  C31814821   5.747   4.188   8.600 -0.4125 -0.3663  0.5447
  136SAPE  H18X14822   5.699   4.286   8.622  1.5270  0.8708 -0.4347
  136SAPE  H18Y14823   5.673   4.107   8.587  1.0703 -1.9215  1.4086
  136SAPE  H18Z14824   5.806   4.201   8.507  0.3668 -1.0312  0.9332
  137SAPE     N14825   6.050   1.776  11.064  0.2447 -0.1205 -0.4469
  137SAPE   HN114826   5.979   1.757  10.990  1.4352 -0.6879 -1.4947
  137SAPE   HN214827   6.124   1.703  11.059 -1.0451 -1.6101  0.8630
  137SAPE   HN314828   6.006   1.753  11.155  3.1664 -2.3169  0.5405
  137SAPE   C1214829   6.088   1.928  11.076 -0.0436 -0.5001 -0.0483
  137SAPE  H12A14830   6.172   1.940  11.147  0.0680  2.3232 -0.5303
  137SAPE  H12B14831   5.994   1.972  11.115  0.3566 -1.3811  2.0604
  137SAPE   C1114832   6.118   1.985  10.935  0.6287  0.3059 -0.4555
  137SAPE  H11A14833   6.186   1.927  10.869 -1.1553 -2.8813  0.3203
  137SAPE  H11B14834   6.174   2.077  10.963 -0.7308  0.6393  1.3622
  137SAPE     P14835   5.924   1.931  10.773  0.2814  0.2905  0.3655
  137SAPE   O1314836   5.931   1.788  10.827  0.3504 -0.2082 -0.1061
  137SAPE   O1414837   5.793   1.995  10.727 -0.2944  0.2342 -0.2893
  137SAPE   O1214838   6.004   2.028  10.866  0.0241  0.2724  0.1391
  137SAPE   O1114839   6.022   1.931  10.640  0.0879  0.2530 -0.1782
  137SAPE    C114840   6.077   2.056  10.597 -0.6838  0.6528  0.3510
  137SAPE    HA14841   5.996   2.129  10.575 -1.8435 -0.2703  1.3792
  137SAPE    HB14842   6.148   2.095  10.673  0.8251 -2.0393  0.4684
  137SAPE    C214843   6.159   2.051  10.462  0.1847  0.5239 -0.1118
  137SAPE    HS14844   6.202   2.154  10.459  0.5549  0.3660 -0.2509
  137SAPE   O2114845   6.071   2.012  10.351  0.0333 -0.2360  0.8740
  137SAPE   C2114846   6.107   2.070  10.240 -0.4087 -0.0184  0.3344
  137SAPE   O2214847   6.194   2.152  10.239 -0.1734 -0.7342  0.0752
  137SAPE   C2214848   6.052   2.000  10.116  0.6672 -0.2878 -0.0501
  137SAPE   H2R14849   5.941   2.001  10.124  0.7233  0.0805  0.7015
  137SAPE   H2S14850   6.095   2.051  10.027  1.5560 -2.4096 -0.9189
  137SAPE    C314851   6.266   1.943  10.483  0.6123  0.1596 -0.1825
  137SAPE    HX14852   6.218   1.843  10.481  1.8059 -0.4595  0.6869
  137SAPE    HY14853   6.313   1.962  10.581 -1.1302 -0.5317  0.8217
  137SAPE   O3114854   6.364   1.929  10.371 -0.3427 -0.7683  0.2511
  137SAPE   C3114855   6.460   2.017  10.379  0.4858 -0.0639  0.2192
  137SAPE   O3214856   6.465   2.110  10.459 -0.6406  0.2006  0.0054
  137SAPE   C3214857   6.575   1.997  10.277 -0.5025 -0.3595  0.5079
  137SAPE   H2X14858   6.655   1.932  10.317 -1.1115 -0.7891  1.0631
  137SAPE   H2Y14859   6.616   2.100  10.275 -1.5257  0.0998  1.6912
  137SAPE   C2314860   6.096   1.846  10.120  0.2640  0.0037  0.7481
  137SAPE   H3R14861   6.032   1.795  10.196  2.0193 -4.0262 -0.2092
  137SAPE   H3S14862   6.204   1.842  10.145  0.8472  1.8927 -1.2011
  137SAPE   C2414863   6.062   1.758   9.996 -0.0165  0.1016  0.0836
  137SAPE   H4R14864   6.072   1.651  10.024  0.8046 -0.5049 -2.2776
  137SAPE   H4S14865   6.139   1.781   9.920  1.7391 -0.8236  1.4947
  137SAPE   C2514866   5.922   1.787   9.951 -0.3585 -0.4036  0.4889
  137SAPE   H5R14867   5.842   1.742  10.012 -0.6733  1.3090  1.4007
  137SAPE   C2614868   5.889   1.855   9.834  0.5336  0.3940 -0.3177
  137SAPE   H6R14869   5.785   1.880   9.810  0.4796  0.8701  0.3971
  137SAPE   C2714870   5.985   1.908   9.739 -0.3200  0.9618 -0.1987
  137SAPE   H7R14871   6.014   1.823   9.673 -0.0505  1.0343 -0.1755
  137SAPE   H7S14872   6.077   1.949   9.785 -0.4368  0.9566  0.0405
  137SAPE   C2814873   5.927   2.024   9.669 -0.0605  0.0906 -0.0258
  137SAPE   H8R14874   5.905   2.115   9.727 -0.2263  1.0943 -1.5939
  137SAPE   C2914875   5.903   2.028   9.536  0.2474  0.0963  0.0410
  137SAPE   H9R14876   5.839   2.109   9.501 -0.2418 -0.3316 -0.0643
  137SAPE  C21014877   5.935   1.926   9.433 -0.0479 -0.5079 -0.2298
  137SAPE  H10R14878   6.041   1.899   9.453  0.2364  0.5371 -0.2909
  137SAPE  H10S14879   5.945   1.984   9.338  0.2437 -2.2135 -1.2910
  137SAPE  C21114880   5.847   1.802   9.413 -0.6717  0.0200  0.0437
  137SAPE  H11R14881   5.843   1.745   9.507 -0.5444  1.0904  0.7157
  137SAPE  C21214882   5.777   1.772   9.309  0.3091 -0.5297  0.0592
  137SAPE  H12R14883   5.717   1.680   9.321 -0.2476 -0.2035 -0.1396
  137SAPE  C21314884   5.765   1.851   9.171 -0.7218 -0.4922 -0.1395
  137SAPE  H13R14885   5.793   1.956   9.198  1.5517 -1.0042 -0.2822
  137SAPE  H13S14886   5.660   1.840   9.138 -0.6524  0.9365 -0.9182
  137SAPE  C21414887   5.853   1.807   9.061  0.6433  0.5236 -0.0379
  137SAPE  H14R14888   5.956   1.782   9.089  0.5980  0.4112  0.0304
  137SAPE  C21514889   5.817   1.791   8.932 -0.8980 -0.3540  0.7818
  137SAPE  H15R14890   5.888   1.740   8.865  0.9265  1.6195  1.1116
  137SAPE  C21614891   5.684   1.816   8.867 -0.2839  0.9618 -0.6450
  137SAPE  H16R14892   5.666   1.926   8.873 -0.4999  0.8624  0.9686
  137SAPE  H16S14893   5.599   1.765   8.917  2.0205 -2.7251 -0.1064
  137SAPE  C21714894   5.668   1.778   8.719  0.4729 -0.1705  0.3744
  137SAPE  H17R14895   5.687   1.670   8.698  2.2843  0.7028 -3.3298
  137SAPE  H17S14896   5.751   1.824   8.660  0.1930 -0.1676 -0.0177
  137SAPE  C21814897   5.539   1.814   8.649 -0.4645  0.4894  0.2626
  137SAPE  H18R14898   5.457   1.750   8.687 -0.1590  0.4852  0.9155
  137SAPE  H18S14899   5.551   1.758   8.553 -1.2414  0.2543  0.2970
  137SAPE  C21914900   5.509   1.961   8.628 -0.0801  0.1231 -0.3201
  137SAPE  H19R14901   5.585   2.013   8.566  1.3855 -1.5590  0.0003
  137SAPE  H19S14902   5.531   2.017   8.722  0.2568  0.3958 -0.5587
  137SAPE  C22014903   5.369   1.981   8.574  0.2647 -0.1841 -0.0166
  137SAPE  H20R14904   5.356   1.908   8.492  1.5077  0.0247 -0.4298
  137SAPE  H20S14905   5.364   2.076   8.517 -0.2048 -1.4286 -2.1565
  137SAPE  H20T14906   5.287   1.963   8.646 -0.0128 -0.7386 -0.4700
  137SAPE   C3314907   6.538   1.944  10.138  0.1740  0.1298  0.2643
  137SAPE   H3X14908   6.462   1.866  10.161 -0.8978  1.3023  0.8134
  137SAPE   H3Y14909   6.628   1.890  10.100 -1.4624 -2.7320  0.2415
  137SAPE   C3414910   6.472   2.042  10.034 -0.0504 -0.1085 -0.2860
  137SAPE   H4X14911   6.548   2.120  10.013 -0.0717 -0.2075 -0.7238
  137SAPE   H4Y14912   6.384   2.088  10.084  0.0138  0.4080 -0.6424
  137SAPE   C3514913   6.424   1.971   9.909 -0.2562  0.0240  0.6855
  137SAPE   H5X14914   6.323   1.929   9.927  0.4356 -3.0140 -1.7506
  137SAPE   H5Y14915   6.492   1.884   9.893 -0.1588  0.3796 -1.0828
  137SAPE   C3614916   6.428   2.069   9.798 -0.4621 -0.1547 -0.1313
  137SAPE   H6X14917   6.528   2.117   9.797 -0.5258  0.0050  0.5783
  137SAPE   H6Y14918   6.356   2.151   9.819  2.2414  3.3073 -2.9875
  137SAPE   C3714919   6.395   2.001   9.669 -0.0212  0.3466  0.6827
  137SAPE   H7X14920   6.319   1.922   9.686  1.1520 -1.4748 -1.8684
  137SAPE   H7Y14921   6.485   1.955   9.623  0.3578  1.1353  0.6078
  137SAPE   C3814922   6.340   2.095   9.572  0.4100 -0.4116 -0.5868
  137SAPE   H8X14923   6.421   2.165   9.544 -1.3020  1.1069 -2.0155
  137SAPE   H8Y14924   6.260   2.157   9.618  0.2495 -0.4303 -0.8362
  137SAPE   C3914925   6.301   2.029   9.435 -1.0033 -0.9759 -0.3027
  137SAPE   H9X14926   6.229   1.952   9.471  0.6753 -1.9988  1.0072
  137SAPE   H9Y14927   6.381   1.972   9.383 -1.2136  0.5717 -2.4344
  137SAPE  C31014928   6.231   2.129   9.345 -0.2180 -0.6673  0.2310
  137SAPE  H10X14929   6.295   2.219   9.340 -0.4386 -0.5788 -1.2855
  137SAPE  H10Y14930   6.136   2.140   9.402 -0.0236 -1.3536  0.7164
  137SAPE  C31114931   6.200   2.068   9.209 -0.2092  0.1121  0.0800
  137SAPE  H11X14932   6.129   1.983   9.220  0.8682 -0.7120  0.8482
  137SAPE  H11Y14933   6.292   2.020   9.170  1.3671  3.7035 -1.0120
  137SAPE  C31214934   6.131   2.159   9.110 -0.2890 -0.4438  0.3765
  137SAPE  H12X14935   6.197   2.244   9.083 -1.8783  0.6082 -0.3404
  137SAPE  H12Y14936   6.044   2.214   9.152 -1.1148 -2.6690  1.7418
  137SAPE  C31314937   6.096   2.093   8.975  0.3943 -0.2949  0.2712
  137SAPE  H13X14938   6.023   2.018   9.012 -0.0726  0.6399  1.3343
  137SAPE  H13Y14939   6.182   2.041   8.929  0.7183  1.4093 -1.1585
  137SAPE  C31414940   6.013   2.182   8.886 -0.2037 -0.2218  0.5578
  137SAPE  H14X14941   5.952   2.246   8.953  0.3840 -1.9646  2.8885
  137SAPE  H14Y14942   5.953   2.121   8.815  2.1927 -0.1306 -1.7262
  137SAPE  C31514943   6.100   2.270   8.793  0.0186  0.2765  0.1331
  137SAPE  H15X14944   6.139   2.203   8.714  0.2067  0.1297  0.3499
  137SAPE  H15Y14945   6.181   2.317   8.853 -1.5459  3.5805 -0.1080
  137SAPE  C31614946   6.023   2.388   8.724 -0.0533  0.0264  0.2752
  137SAPE  H16X14947   5.984   2.446   8.810 -0.2079  0.7114 -0.2536
  137SAPE  H16Y14948   5.935   2.361   8.663  0.9748 -0.5594 -1.0115
  137SAPE  C31714949   6.116   2.477   8.641  0.3782  0.3546 -0.0650
  137SAPE  H17X14950   6.160   2.414   8.561  2.7708 -0.5534  1.8594
  137SAPE  H17Y14951   6.195   2.509   8.711  1.6764 -2.3019 -0.1905
  137SAPE  C31814952   6.059   2.598   8.571 -0.0912 -0.4367  0.0569
  137SAPE  H18X14953   6.079   2.699   8.611 -2.5899 -0.1197  0.6716
  137SAPE  H18Y14954   5.949   2.590   8.558 -0.3817 -1.7169  2.6508
  137SAPE  H18Z14955   6.100   2.595   8.468  1.4392 -0.9727  0.6401
  138SAPE     N14956   4.112   3.814  10.920  0.4431 -0.3742  0.4155
  138SAPE   HN114957   4.124   3.720  10.964  0.7472 -0.2604  0.5720
  138SAPE   HN214958   4.194   3.874  10.939  0.1919  0.6111 -1.3970
  138SAPE   HN314959   4.030   3.855  10.968 -0.7485 -2.3077  0.1768
  138SAPE   C1214960   4.085   3.795  10.771 -0.6673 -0.1364 -0.2778
  138SAPE  H12A14961   4.108   3.893  10.724 -0.5113  0.1308  0.3440
  138SAPE  H12B14962   3.981   3.770  10.743 -0.3986 -0.2724 -1.1783
  138SAPE   C1114963   4.181   3.689  10.719 -0.2077  0.1574  0.3780
  138SAPE  H11A14964   4.167   3.674  10.610  0.2593 -0.0941  0.3521
  138SAPE  H11B14965   4.147   3.602  10.779 -0.8501  0.4059  0.3815
  138SAPE     P14966   4.430   3.640  10.793 -0.0177 -0.0811 -0.0305
  138SAPE   O1314967   4.529   3.728  10.864  0.0359 -0.0245 -0.5760
  138SAPE   O1414968   4.373   3.518  10.860 -0.3864  0.1281  0.5820
  138SAPE   O1214969   4.308   3.733  10.755  0.4823 -0.0626 -0.2817
  138SAPE   O1114970   4.495   3.603  10.655 -0.3088  0.3372 -0.8492
  138SAPE    C114971   4.578   3.687  10.576 -0.4110  0.0903  0.6046
  138SAPE    HA14972   4.680   3.682  10.618  0.4822  1.2667 -1.2712
  138SAPE    HB14973   4.574   3.637  10.476  1.2793 -3.3029  2.0772
  138SAPE    C214974   4.532   3.839  10.556 -0.0558  0.4753 -0.1870
  138SAPE    HS14975   4.525   3.887  10.656 -2.2852 -1.6082  0.7539
  138SAPE   O2114976   4.404   3.850  10.492 -0.0569 -0.0051 -0.0590
  138SAPE   C2114977   4.328   3.955  10.529  0.0907 -0.5655 -0.1555
  138SAPE   O2214978   4.359   4.044  10.606 -0.3756 -0.3089  0.4192
  138SAPE   C2214979   4.199   3.955  10.455  0.3612  0.1948 -0.5866
  138SAPE   H2R14980   4.192   3.882  10.372  2.3082 -0.3561 -0.3012
  138SAPE   H2S14981   4.118   3.925  10.524  0.2303  0.5705 -0.5719
  138SAPE    C314982   4.631   3.917  10.475  0.0250 -0.4830  0.3407
  138SAPE    HX14983   4.737   3.889  10.492 -0.1089 -1.0211  0.3000
  138SAPE    HY14984   4.625   4.024  10.506 -0.7040 -0.5433  0.4376
  138SAPE   O3114985   4.607   3.892  10.337  0.2948 -0.0562 -0.2031
  138SAPE   C3114986   4.539   3.989  10.268 -0.1388  0.0350  0.2333
  138SAPE   O3214987   4.506   4.101  10.314 -0.2945 -0.0395  0.4416
  138SAPE   C3214988   4.505   3.935  10.127 -0.1163  0.5241  0.0445
  138SAPE   H2X14989   4.464   3.832  10.133  0.9143 -0.1131 -2.3436
  138SAPE   H2Y14990   4.596   3.934  10.063  0.4748 -1.3198  0.8406
  138SAPE   C2314991   4.170   4.098  10.395  0.3483 -0.4946  0.3199
  138SAPE   H3R14992   4.252   4.115  10.322 -1.5308 -0.6815 -1.9491
  138SAPE   H3S14993   4.168   4.178  10.473  3.0955 -0.2429  0.2437
  138SAPE   C2414994   4.031   4.104  10.322  0.6614 -0.8887  0.3714
  138SAPE   H4R14995   3.996   4.209  10.319 -0.7814 -1.3223  0.8988
  138SAPE   H4S14996   3.963   4.057  10.397 -0.6124  0.1435 -0.0962
  138SAPE   C2514997   4.026   4.032  10.189  0.9059  0.0600  0.1288
  138SAPE   H5R14998   4.079   3.935  10.188 -1.3156 -1.2170 -0.5636
  138SAPE   C2614999   3.982   4.082  10.069  0.1368  0.3769 -0.6023
  138SAPE   H6R15000   3.984   4.014   9.982 -0.3954 -1.9887  1.1521
  138SAPE   C2715001   3.937   4.219  10.043  0.7117  0.1406  0.2520
  138SAPE   H7R15002   4.015   4.276   9.988  0.3036  0.8600  0.4038
  138SAPE   H7S15003   3.920   4.272  10.139  0.1764 -0.4458  0.4831
  138SAPE   C2815004   3.807   4.226   9.962 -0.5167 -0.0344  0.9052
  138SAPE   H8R15005   3.719   4.211  10.027 -0.9370 -0.3406  0.2907
  138SAPE   C2915006   3.784   4.226   9.829  0.0996 -0.7106  0.4692
  138SAPE   H9R15007   3.681   4.230   9.788 -0.1668  1.7927  1.1747
  138SAPE  C21015008   3.885   4.240   9.717 -0.1120 -0.3115  0.6680
  138SAPE  H10R15009   3.985   4.231   9.763  0.8536  0.3767 -1.2061
  138SAPE  H10S15010   3.884   4.334   9.657  0.4912  0.7295  2.2271
  138SAPE  C21115011   3.872   4.120   9.628  0.3815  0.3906  0.3803
  138SAPE  H11R15012   3.886   4.019   9.671 -1.6222 -0.2754 -0.4315
  138SAPE  C21215013   3.841   4.123   9.495 -0.5604  0.4736 -0.5284
  138SAPE  H12R15014   3.838   4.025   9.445 -1.8301  1.2870 -2.1954
  138SAPE  C21315015   3.814   4.238   9.407  0.1501 -0.5335  0.3212
  138SAPE  H13R15016   3.889   4.318   9.422  0.6192 -1.3152  2.4719
  138SAPE  H13S15017   3.719   4.291   9.428  0.5709  0.8008 -0.9886
  138SAPE  C21415018   3.811   4.204   9.262 -0.0705  0.2842  0.3421
  138SAPE  H14R15019   3.763   4.110   9.231  1.5082  0.4132 -2.9419
  138SAPE  C21515020   3.873   4.276   9.170 -0.5997  0.3716  0.6759
  138SAPE  H15R15021   3.838   4.252   9.068  2.9676 -2.0174 -0.1596
  138SAPE  C21615022   3.941   4.407   9.191  0.1812  0.2414 -0.1878
  138SAPE  H16R15023   3.999   4.439   9.102 -0.2737  1.3104 -0.1146
  138SAPE  H16S15024   4.002   4.413   9.284  1.1630 -0.9792 -0.7140
  138SAPE  C21715025   3.830   4.514   9.195 -0.5965 -0.1464 -0.3591
  138SAPE  H17R15026   3.874   4.608   9.235 -2.5268  0.0637  1.4415
  138SAPE  H17S15027   3.753   4.476   9.265  0.7856  0.0810  1.3511
  138SAPE  C21815028   3.752   4.559   9.069 -1.3259  0.0146 -0.1604
  138SAPE  H18R15029   3.703   4.650   9.109 -0.1800  0.2868  0.6680
  138SAPE  H18S15030   3.699   4.466   9.040 -1.5795  0.4786 -1.2618
  138SAPE  C21915031   3.834   4.602   8.944  0.7713 -0.2919 -0.5531
  138SAPE  H19R15032   3.905   4.525   8.906  1.1635  0.3110 -1.0611
  138SAPE  H19S15033   3.894   4.694   8.962  1.0142  0.0132 -2.6102
  138SAPE  C22015034   3.734   4.642   8.834 -0.0202 -0.4794  0.3454
  138SAPE  H20R15035   3.645   4.576   8.842 -0.2065 -0.1649  0.8452
  138SAPE  H20S15036   3.778   4.638   8.732 -0.4347 -0.3990  0.1616
  138SAPE  H20T15037   3.689   4.743   8.841 -0.0486 -0.3838 -0.8711
  138SAPE   C3315038   4.393   4.023  10.055 -0.9202 -0.2768  0.0133
  138SAPE   H3X15039   4.442   4.123  10.053  1.2392 -1.2699 -1.0248
  138SAPE   H3Y15040   4.307   4.012  10.124 -0.0422 -0.7108  1.0733
  138SAPE   C3415041   4.344   3.973   9.925 -0.0191 -0.8053  0.4177
  138SAPE   H4X15042   4.265   3.895   9.935  0.2428 -1.2173 -0.5439
  138SAPE   H4Y15043   4.427   3.922   9.870 -0.8163 -0.9715 -0.6851
  138SAPE   C3515044   4.297   4.091   9.837 -0.1071 -0.0048 -0.3099
  138SAPE   H5X15045   4.386   4.157   9.844  0.9970 -1.4562 -0.0002
  138SAPE   H5Y15046   4.221   4.160   9.878  0.4014  0.0932  0.4920
  138SAPE   C3615047   4.253   4.045   9.703  0.5611  0.2775 -0.3214
  138SAPE   H6X15048   4.148   4.012   9.718  0.2600  0.8984 -1.0577
  138SAPE   H6Y15049   4.307   3.949   9.686 -1.7670 -1.4559  1.4096
  138SAPE   C3715050   4.276   4.143   9.587  0.3345  0.3314 -0.5869
  138SAPE   H7X15051   4.382   4.175   9.590  1.5019 -3.1430  0.4927
  138SAPE   H7Y15052   4.222   4.239   9.597  0.4448  0.2405  1.2675
  138SAPE   C3815053   4.244   4.084   9.449  0.4033  0.7691  1.5717
  138SAPE   H8X15054   4.138   4.052   9.435  0.9988 -0.2225 -1.6002
  138SAPE   H8Y15055   4.299   3.987   9.451 -1.6300 -0.4378  1.7850
  138SAPE   C3915056   4.280   4.181   9.329  0.5603 -0.3576  0.1574
  138SAPE   H9X15057   4.376   4.231   9.355 -0.9108  3.1709 -0.5878
  138SAPE   H9Y15058   4.208   4.266   9.328  1.5288  0.5048  1.1883
  138SAPE  C31015059   4.277   4.116   9.189  0.5388  0.7214  0.2054
  138SAPE  H10X15060   4.186   4.052   9.183  2.1134 -1.5259 -3.2322
  138SAPE  H10Y15061   4.367   4.054   9.171  1.3316  2.0742 -0.6277
  138SAPE  C31115062   4.272   4.226   9.079  0.7442  0.5693  0.0423
  138SAPE  H11X15063   4.359   4.295   9.082  1.7351 -0.6211 -0.2698
  138SAPE  H11Y15064   4.184   4.292   9.095  0.3373  0.8213 -2.7825
  138SAPE  C31215065   4.254   4.173   8.935  0.0471  0.1260  0.2487
  138SAPE  H12X15066   4.163   4.108   8.937  0.6019 -0.7128  3.5712
  138SAPE  H12Y15067   4.343   4.107   8.937  1.6738  2.0573 -2.0418
  138SAPE  C31315068   4.260   4.277   8.824 -0.0361  0.3214 -0.4458
  138SAPE  H13X15069   4.287   4.237   8.724  0.6831 -0.2266 -0.0427
  138SAPE  H13Y15070   4.351   4.338   8.839  0.3187 -0.4500  0.5997
  138SAPE  C31415071   4.139   4.372   8.826 -0.1736  0.3263  0.1771
  138SAPE  H14X15072   4.131   4.421   8.925 -3.0170  0.9832 -0.2738
  138SAPE  H14Y15073   4.042   4.318   8.825 -1.3011  2.0878  2.7888
  138SAPE  C31515074   4.147   4.460   8.705 -0.1680 -0.4080  0.4098
  138SAPE  H15X15075   4.054   4.519   8.688 -0.3603 -0.7844  0.1479
  138SAPE  H15Y15076   4.162   4.402   8.612 -1.2926 -1.2574  0.7403
  138SAPE  C31615077   4.259   4.566   8.709  0.0262  0.0151 -0.3247
  138SAPE  H16X15078   4.347   4.529   8.767 -1.4429  0.2596  2.1972
  138SAPE  H16Y15079   4.218   4.658   8.755  0.1463  0.2386 -0.6607
  138SAPE  C31715080   4.321   4.617   8.576 -0.0532  0.1515  0.0397
  138SAPE  H17X15081   4.386   4.704   8.601 -0.4649  0.2353  0.8824
  138SAPE  H17Y15082   4.246   4.656   8.504 -0.2163  0.7383  0.5154
  138SAPE  C31815083   4.416   4.519   8.500  0.4186  0.3790  0.2750
  138SAPE  H18X15084   4.385   4.515   8.393  0.6047  2.3620  0.1010
  138SAPE  H18Y15085   4.402   4.416   8.538 -0.1435 -0.0590 -1.0755
  138SAPE  H18Z15086   4.524   4.546   8.504  1.4093 -2.6686 -1.6865
  139SAPE     N15087   0.150   1.501  10.967  0.1495  0.0771 -0.1800
  139SAPE   HN115088   0.217   1.559  11.022  0.3254  0.4948 -0.8117
  139SAPE   HN215089   0.141   1.404  11.002 -3.1130  0.2607 -0.1950
  139SAPE   HN315090   0.187   1.490  10.870  0.2330 -3.9961  0.1507
  139SAPE   C1215091   0.005   1.546  10.973  0.1600 -0.3544 -0.5288
  139SAPE  H12A15092   0.004   1.657  10.967 -1.5164 -0.2581  0.6592
  139SAPE  H12B15093  -0.031   1.529  11.077 -0.5246  0.6408 -0.5777
  139SAPE   C1115094  -0.094   1.478  10.876  0.2164  0.7985  0.4835
  139SAPE  H11A15095  -0.082   1.508  10.770 -2.4178  1.6317  0.3512
  139SAPE  H11B15096  -0.200   1.498  10.902 -0.5626 -0.7617 -1.2601
  139SAPE     P15097  -0.162   1.241  10.776  0.0005 -0.1083  0.4541
  139SAPE   O1315098  -0.118   1.098  10.775 -0.2143  0.1780 -0.0286
  139SAPE   O1415099  -0.303   1.270  10.805  0.4344  0.6430 -0.4419
  139SAPE   O1215100  -0.070   1.330  10.870  0.1143 -0.3641  0.1845
  139SAPE   O1115101  -0.139   1.313  10.638 -0.0612  0.7312 -0.3294
  139SAPE    C115102  -0.028   1.285  10.552 -0.3351 -0.1858 -0.2301
  139SAPE    HA15103   0.062   1.269  10.615 -0.7419 -1.4609  0.0661
  139SAPE    HB15104  -0.041   1.197  10.486  0.3324  1.0459 -2.0951
  139SAPE    C215105  -0.003   1.422  10.476 -0.1138 -0.7299 -0.0432
  139SAPE    HS15106  -0.019   1.508  10.543  1.2628  0.0310 -0.6379
  139SAPE   O2115107  -0.100   1.425  10.366 -0.4975  0.0755 -0.2969
  139SAPE   C2115108  -0.133   1.548  10.324 -0.4808  0.3867  0.2433
  139SAPE   O2215109  -0.088   1.655  10.370  0.7227  0.1497  0.1743
  139SAPE   C2215110  -0.215   1.529  10.194  0.5605 -0.1569  0.5479
  139SAPE   H2R15111  -0.186   1.619  10.136  2.2481 -0.0012  1.5764
  139SAPE   H2S15112  -0.190   1.431  10.148 -2.0087 -0.4934 -0.3136
  139SAPE    C315113   0.140   1.430  10.422  0.1681 -0.0436  0.2413
  139SAPE    HX15114   0.200   1.443  10.515  0.4067 -0.3861  0.1354
  139SAPE    HY15115   0.162   1.517  10.357 -0.4561 -1.1941 -1.5750
  139SAPE   O3115116   0.180   1.309  10.365 -0.7586  0.1338 -0.0049
  139SAPE   C3115117   0.176   1.306  10.228 -0.0636 -0.3553 -0.0827
  139SAPE   O3215118   0.158   1.402  10.154  0.3259 -0.4376 -0.0044
  139SAPE   C3215119   0.196   1.159  10.180 -0.0601 -0.2740  0.6126
  139SAPE   H2X15120   0.233   1.087  10.256  0.7607 -1.8098 -1.1708
  139SAPE   H2Y15121   0.286   1.159  10.114  0.1417 -2.1813  0.8430
  139SAPE   C2315122  -0.368   1.538  10.217 -0.5775  0.0732  0.0684
  139SAPE   H3R15123  -0.392   1.630  10.275 -2.1576 -0.1749 -0.1360
  139SAPE   H3S15124  -0.404   1.441  10.257 -1.8397 -0.2421 -1.7128
  139SAPE   C2415125  -0.450   1.559  10.084 -0.1765  0.2188 -0.2027
  139SAPE   H4R15126  -0.396   1.642  10.033 -1.1126  1.6538  1.0653
  139SAPE   H4S15127  -0.553   1.593  10.106  0.4210  1.8251  0.2816
  139SAPE   C2515128  -0.450   1.428   9.996  0.3384 -0.3999  0.1553
  139SAPE   H5R15129  -0.485   1.346  10.061 -1.1021  0.9378  1.1512
  139SAPE   C2615130  -0.427   1.409   9.863  0.6462 -0.2677 -0.1610
  139SAPE   H6R15131  -0.431   1.312   9.811  0.0023 -1.5457  2.1160
  139SAPE   C2715132  -0.389   1.514   9.760  0.6014  0.3057 -0.2834
  139SAPE   H7R15133  -0.315   1.476   9.687 -1.4454  2.2043 -3.6160
  139SAPE   H7S15134  -0.329   1.592   9.813  1.3494  0.4143 -1.2685
  139SAPE   C2815135  -0.514   1.566   9.697  0.0279 -0.7787  0.6517
  139SAPE   H8R15136  -0.581   1.611   9.772  1.3694 -1.6964  2.4947
  139SAPE   C2915137  -0.537   1.576   9.566 -0.5745  0.3418  0.1560
  139SAPE   H9R15138  -0.636   1.616   9.540 -0.0072  1.6474 -0.0488
  139SAPE  C21015139  -0.445   1.532   9.455  0.3832  0.4978 -1.0754
  139SAPE  H10R15140  -0.508   1.485   9.376  0.1667  0.3833 -0.8321
  139SAPE  H10S15141  -0.382   1.452   9.500  2.6023  1.9148 -1.5225
  139SAPE  C21115142  -0.369   1.654   9.405  0.0401 -0.4409  0.7443
  139SAPE  H11R15143  -0.331   1.712   9.491  2.3817 -1.2142  0.3074
  139SAPE  C21215144  -0.345   1.696   9.274 -0.7450  0.8375 -0.7640
  139SAPE  H12R15145  -0.294   1.792   9.256 -0.5171  0.8892  0.1127
  139SAPE  C21315146  -0.379   1.627   9.142 -0.7644  0.8451 -0.3932
  139SAPE  H13R15147  -0.452   1.546   9.163  0.6114 -0.1229  0.8187
  139SAPE  H13S15148  -0.287   1.583   9.098 -0.4562  1.9139 -0.8616
  139SAPE  C21415149  -0.451   1.723   9.052  0.1335  0.2974  0.4710
  139SAPE  H14R15150  -0.543   1.760   9.100 -0.7617 -2.0724  0.7385
  139SAPE  C21515151  -0.419   1.755   8.928 -0.2360 -1.0619  0.2474
  139SAPE  H15R15152  -0.491   1.801   8.859  1.0747  0.9925  0.1658
  139SAPE  C21615153  -0.298   1.714   8.851 -0.4240 -0.5723 -0.8039
  139SAPE  H16R15154  -0.331   1.628   8.789 -3.1244  0.9765 -1.6665
  139SAPE  H16S15155  -0.220   1.689   8.927 -1.6557 -1.3369  0.2510
  139SAPE  C21715156  -0.246   1.825   8.756  0.4200  0.0387 -0.3188
  139SAPE  H17R15157  -0.195   1.907   8.812  0.9185  1.0383 -2.1403
  139SAPE  H17S15158  -0.331   1.860   8.694  1.2756  2.1512 -0.3937
  139SAPE  C21815159  -0.126   1.774   8.664  0.3228 -0.5643 -0.5725
  139SAPE  H18R15160  -0.177   1.704   8.595 -2.3522  0.5410  0.1616
  139SAPE  H18S15161  -0.054   1.724   8.733  1.0804  0.5142 -0.5443
  139SAPE  C21915162  -0.056   1.877   8.572  0.5730  0.4402  0.8241
  139SAPE  H19R15163  -0.032   1.982   8.601  0.2965  0.7733 -0.1255
  139SAPE  H19S15164  -0.129   1.890   8.490  2.2812 -0.3750 -0.9018
  139SAPE  C22015165   0.065   1.811   8.520 -0.2656  0.0393 -0.4847
  139SAPE  H20R15166   0.044   1.727   8.450  1.9337  1.2396 -2.7693
  139SAPE  H20S15167   0.140   1.788   8.599  2.3661  1.6670 -2.3779
  139SAPE  H20T15168   0.125   1.879   8.456  1.0331 -0.4213  0.2089
  139SAPE   C3315169   0.053   1.111  10.118 -0.2189 -0.3724 -0.3022
  139SAPE   H3X15170  -0.027   1.136  10.191  0.7472  0.5218  0.4855
  139SAPE   H3Y15171   0.057   1.001  10.109  2.0827 -0.6792  2.9281
  139SAPE   C3415172   0.011   1.173   9.986  0.4392  0.0343 -0.3545
  139SAPE   H4X15173   0.087   1.144   9.911  1.5153 -0.3758  0.8642
  139SAPE   H4Y15174   0.028   1.282   9.973  1.1945 -0.2310 -1.7120
  139SAPE   C3515175  -0.130   1.131   9.932 -0.3482 -0.4192 -0.3193
  139SAPE   H5X15176  -0.205   1.194   9.983 -0.1728 -0.4634 -0.0045
  139SAPE   H5Y15177  -0.160   1.026   9.954 -0.2613 -0.6961 -1.4608
  139SAPE   C3615178  -0.155   1.156   9.779 -0.1245 -0.2360  0.5505
  139SAPE   H6X15179  -0.061   1.139   9.721  0.0169  0.4090  0.5810
  139SAPE   H6Y15180  -0.187   1.261   9.759  1.4212 -0.0363 -1.1629
  139SAPE   C3715181  -0.253   1.049   9.720  0.1804  0.2631 -0.2356
  139SAPE   H7X15182  -0.350   1.068   9.771  1.5360  0.7981  2.3000
  139SAPE   H7Y15183  -0.204   0.953   9.748  0.0135  0.0343 -0.7118
  139SAPE   C3815184  -0.268   1.059   9.572  0.1913 -0.3192  0.3380
  139SAPE   H8X15185  -0.334   0.975   9.542 -0.3187 -0.6115  2.1838
  139SAPE   H8Y15186  -0.170   1.042   9.524  0.2913 -0.5210  0.6130
  139SAPE   C3915187  -0.329   1.187   9.526  0.2046 -0.4121  0.6524
  139SAPE   H9X15188  -0.241   1.255   9.519  0.3606 -0.7333 -1.1298
  139SAPE   H9Y15189  -0.403   1.226   9.599 -0.6645 -3.1180  1.3242
  139SAPE  C31015190  -0.389   1.179   9.388  0.9728  0.1179 -0.1219
  139SAPE  H10X15191  -0.424   1.279   9.353  0.1664 -0.6219 -1.4943
  139SAPE  H10Y15192  -0.474   1.108   9.392  0.7040  0.1490 -3.1560
  139SAPE  C31115193  -0.285   1.130   9.286  0.7519  0.4437  0.5129
  139SAPE  H11X15194  -0.278   1.019   9.298 -0.3584  0.4329  1.1926
  139SAPE  H11Y15195  -0.190   1.186   9.296  1.6833 -0.4732 -2.2235
  139SAPE  C31215196  -0.331   1.159   9.144  0.3175 -0.6014  0.0654
  139SAPE  H12X15197  -0.249   1.125   9.078  0.4594 -0.4563  0.1680
  139SAPE  H12Y15198  -0.338   1.269   9.128 -0.2011 -0.5431  0.6679
  139SAPE  C31315199  -0.456   1.079   9.095  0.1737  0.6059  0.4632
  139SAPE  H13X15200  -0.541   1.097   9.164  1.2789 -0.9170  2.3407
  139SAPE  H13Y15201  -0.426   0.973   9.107 -0.7344  0.0826 -1.5240
  139SAPE  C31415202  -0.497   1.094   8.949  0.0679 -1.0521  0.4359
  139SAPE  H14X15203  -0.555   1.005   8.917  0.0275 -0.7426 -0.3560
  139SAPE  H14Y15204  -0.406   1.101   8.887 -2.3077 -0.6743 -3.2911
  139SAPE  C31515205  -0.578   1.231   8.927  0.3924 -0.4995 -0.1403
  139SAPE  H15X15206  -0.517   1.309   8.977 -1.2615  0.4822  0.4092
  139SAPE  H15Y15207  -0.676   1.219   8.977  0.9294  3.2054  2.2261
  139SAPE  C31615208  -0.614   1.265   8.775 -0.0088 -0.0735 -0.5711
  139SAPE  H16X15209  -0.620   1.170   8.719 -1.6154 -1.9145  2.4543
  139SAPE  H16Y15210  -0.717   1.306   8.769 -0.7677 -1.7105  0.4872
  139SAPE  C31715211  -0.498   1.350   8.717  0.2637  0.3199 -0.2201
  139SAPE  H17X15212  -0.421   1.288   8.668  0.1031  0.7404 -1.0315
  139SAPE  H17Y15213  -0.456   1.399   8.807  3.3697  1.7171 -2.2621
  139SAPE  C31815214  -0.547   1.453   8.609  0.0331 -0.1677 -0.4431
  139SAPE  H18X15215  -0.596   1.408   8.520 -0.1420 -1.6911  0.3845
  139SAPE  H18Y15216  -0.461   1.506   8.563  0.1829  2.5781  2.6166
  139SAPE  H18Z15217  -0.622   1.524   8.650 -0.5597  0.5088 -2.5913
  140SAPE     N15218   2.383   5.012  10.754 -0.0502 -0.1255  0.1713
  140SAPE   HN115219   2.389   4.944  10.832 -1.5951 -4.2438 -2.9203
  140SAPE   HN215220   2.337   4.962  10.675 -0.5046  0.6822 -0.0867
  140SAPE   HN315221   2.481   5.041  10.735  0.4803 -1.1741  1.2211
  140SAPE   C1215222   2.299   5.126  10.804 -0.5505  0.1269  0.3576
  140SAPE  H12A15223   2.279   5.194  10.719 -0.9367 -1.0363 -0.5122
  140SAPE  H12B15224   2.361   5.179  10.880  1.8342  1.4510 -2.3303
  140SAPE   C1115225   2.164   5.085  10.856  0.0978  0.3033  0.0516
  140SAPE  H11A15226   2.089   5.065  10.777 -0.2523 -0.9292  0.6717
  140SAPE  H11B15227   2.127   5.177  10.907 -1.0888  0.2570 -0.6901
  140SAPE     P15228   2.085   4.852  10.925 -0.4120  0.1031  0.0510
  140SAPE   O1315229   2.123   4.753  11.029 -0.3489 -0.3085 -0.1327
  140SAPE   O1415230   1.941   4.886  10.916 -0.3457  0.3123 -0.0643
  140SAPE   O1215231   2.175   4.987  10.956  0.4900 -0.6333 -0.1244
  140SAPE   O1115232   2.135   4.809  10.777  0.4859  0.0863  0.1612
  140SAPE    C115233   2.185   4.685  10.737  0.1931  1.1904  0.1380
  140SAPE    HA15234   2.267   4.646  10.801 -0.4776 -1.9923 -0.7502
  140SAPE    HB15235   2.099   4.615  10.741  0.8604  0.1678 -1.7998
  140SAPE    C215236   2.239   4.673  10.595  0.6308  0.0847 -0.2251
  140SAPE    HS15237   2.344   4.710  10.588  1.5262 -2.4834 -1.7370
  140SAPE   O2115238   2.146   4.736  10.509 -0.8964 -0.2178 -0.0312
  140SAPE   C2115239   2.152   4.868  10.496 -1.3999  0.3862  0.4014
  140SAPE   O2215240   2.239   4.940  10.549 -0.1865  1.0097  0.3658
  140SAPE   C2215241   2.032   4.912  10.422  0.8301  0.1090  0.5209
  140SAPE   H2R15242   1.961   4.830  10.399  1.6854 -0.4499 -0.2390
  140SAPE   H2S15243   1.973   4.962  10.501 -0.6291  0.3802 -0.6852
  140SAPE    C315244   2.247   4.523  10.545  0.1588 -0.3050 -0.1313
  140SAPE    HX15245   2.154   4.468  10.570  0.6659 -1.2700 -0.3069
  140SAPE    HY15246   2.326   4.468  10.600 -0.4987 -1.9514 -0.7842
  140SAPE   O3115247   2.281   4.510  10.402  0.3808 -0.2649  0.3194
  140SAPE   C3115248   2.208   4.437  10.318  0.5278 -0.8228 -0.4139
  140SAPE   O3215249   2.113   4.375  10.347  0.5649 -0.2478  0.4108
  140SAPE   C3215250   2.247   4.477  10.179  0.4612  0.3034 -0.7624
  140SAPE   H2X15251   2.353   4.451  10.155  0.0675 -2.0866 -0.1805
  140SAPE   H2Y15252   2.243   4.588  10.182  0.1765  0.3094  2.0426
  140SAPE   C2315253   2.075   4.987  10.291  0.6039  0.6257 -0.0430
  140SAPE   H3R15254   2.124   5.084  10.313 -1.5848  1.4891  1.3819
  140SAPE   H3S15255   1.982   5.015  10.237 -0.3074 -0.7565  0.7593
  140SAPE   C2415256   2.148   4.888  10.190  0.1106  0.7705 -0.0922
  140SAPE   H4R15257   2.082   4.801  10.172  1.7130 -0.8647  1.5405
  140SAPE   H4S15258   2.231   4.833  10.239 -0.7282 -1.2901 -0.8755
  140SAPE   C2515259   2.190   4.961  10.059  0.4133  0.4440 -0.4576
  140SAPE   H5R15260   2.220   5.067  10.064  1.4135  0.1816 -0.6752
  140SAPE   C2615261   2.187   4.911   9.942  0.1031 -0.3525  0.1208
  140SAPE   H6R15262   2.209   4.984   9.863  0.3685  0.0768  0.5888
  140SAPE   C2715263   2.153   4.767   9.907  0.3146  0.6196  0.4230
  140SAPE   H7R15264   2.047   4.741   9.929  0.8374 -2.7133 -0.5570
  140SAPE   H7S15265   2.215   4.698   9.968  1.4862  1.1458 -0.1415
  140SAPE   C2815266   2.170   4.744   9.758  0.2620  0.2702 -0.2856
  140SAPE   H8R15267   2.236   4.658   9.736  0.6463 -0.1582  2.1683
  140SAPE   C2915268   2.115   4.796   9.655  0.9210 -0.1643  0.7498
  140SAPE   H9R15269   2.133   4.751   9.556  1.0603  1.3554  0.0547
  140SAPE  C21015270   1.999   4.900   9.662 -0.1528  0.7494 -0.2391
  140SAPE  H10R15271   2.027   5.002   9.697  1.0207 -0.2856  2.0867
  140SAPE  H10S15272   1.937   4.872   9.750 -0.4248 -0.6648 -0.8504
  140SAPE  C21115273   1.914   4.907   9.536 -0.1338 -0.0578  0.7318
  140SAPE  H11R15274   1.868   4.812   9.506  2.8404 -1.4708  0.2720
  140SAPE  C21215275   1.887   5.021   9.472 -0.2570  0.7798  0.7726
  140SAPE  H12R15276   1.849   5.018   9.369 -1.9656 -1.6650  1.3852
  140SAPE  C21315277   1.938   5.165   9.504 -0.1043 -0.7440 -0.4241
  140SAPE  H13R15278   1.987   5.221   9.422 -0.4952  1.0307  0.4898
  140SAPE  H13S15279   1.999   5.167   9.597 -0.3302  1.7889 -0.2685
  140SAPE  C21415280   1.826   5.268   9.538  0.4239  0.5777  0.2477
  140SAPE  H14R15281   1.813   5.293   9.644 -1.1787  1.1883 -0.0553
  140SAPE  C21515282   1.744   5.336   9.450  0.2532  0.6060 -0.1818
  140SAPE  H15R15283   1.679   5.410   9.498 -2.2200 -1.6694  0.1962
  140SAPE  C21615284   1.745   5.315   9.297 -0.5993 -0.5878 -0.7744
  140SAPE  H16R15285   1.731   5.206   9.280  1.8431 -1.1088  0.0132
  140SAPE  H16S15286   1.842   5.355   9.259  0.3425 -0.2209  1.8252
  140SAPE  C21715287   1.634   5.374   9.212  0.7496 -0.6816  0.7905
  140SAPE  H17R15288   1.634   5.484   9.226 -0.7884 -0.5134 -0.3257
  140SAPE  H17S15289   1.532   5.343   9.244  0.6065  1.0981  2.2276
  140SAPE  C21815290   1.632   5.342   9.061  0.0744 -0.2157 -0.3843
  140SAPE  H18R15291   1.625   5.231   9.056  4.7113 -0.8152  1.3130
  140SAPE  H18S15292   1.729   5.367   9.012 -0.9484  0.8370 -1.9886
  140SAPE  C21915293   1.542   5.417   8.972  0.2352 -0.0633 -0.1838
  140SAPE  H19R15294   1.548   5.527   8.986  2.8569 -0.0045 -1.2651
  140SAPE  H19S15295   1.436   5.394   8.999  0.8418  0.0865  2.6216
  140SAPE  C22015296   1.552   5.373   8.824 -0.0467 -0.1816  0.0730
  140SAPE  H20R15297   1.544   5.262   8.814 -0.9178 -0.4358  2.7816
  140SAPE  H20S15298   1.651   5.407   8.786 -1.4794  0.6303 -3.2486
  140SAPE  H20T15299   1.477   5.431   8.767  1.7718  0.7982 -1.4226
  140SAPE   C3315300   2.171   4.396  10.075 -0.8038 -0.8333 -1.1846
  140SAPE   H3X15301   2.079   4.452  10.047  0.1849  0.3773 -2.1123
  140SAPE   H3Y15302   2.138   4.293  10.102  0.7444 -1.3051 -0.9584
  140SAPE   C3415303   2.247   4.366   9.942  0.0973 -0.2902  0.0233
  140SAPE   H4X15304   2.329   4.296   9.967 -1.1208 -1.3604  1.1312
  140SAPE   H4Y15305   2.304   4.460   9.925  1.5096 -1.3064 -1.2036
  140SAPE   C3515306   2.154   4.334   9.819 -0.2019 -0.5775  0.1914
  140SAPE   H5X15307   2.079   4.414   9.801 -0.0697 -0.4832  0.0641
  140SAPE   H5Y15308   2.102   4.236   9.827  0.4067 -0.8752  0.5835
  140SAPE   C3615309   2.241   4.323   9.687 -0.0920  0.2830  0.5657
  140SAPE   H6X15310   2.312   4.238   9.693 -0.7529 -0.2006  1.7302
  140SAPE   H6Y15311   2.306   4.412   9.672  0.4828  0.1240  1.9842
  140SAPE   C3715312   2.153   4.307   9.562  0.0686  0.0822  0.5588
  140SAPE   H7X15313   2.077   4.229   9.584 -0.6947  0.3665 -0.9297
  140SAPE   H7Y15314   2.222   4.265   9.486  3.4402 -0.6967  3.7397
  140SAPE   C3815315   2.094   4.440   9.511 -0.8527  0.1281 -0.0478
  140SAPE   H8X15316   2.180   4.511   9.505 -0.1648 -0.4285  2.1292
  140SAPE   H8Y15317   2.017   4.476   9.582 -0.4579  0.9577 -0.0234
  140SAPE   C3915318   2.022   4.431   9.371 -0.2393 -0.3251  0.7036
  140SAPE   H9X15319   1.927   4.374   9.370 -1.3394  1.1484 -4.2024
  140SAPE   H9Y15320   2.098   4.379   9.309 -0.7418  0.6203 -0.7348
  140SAPE  C31015321   2.003   4.574   9.311  0.6032  0.6724  0.1903
  140SAPE  H10X15322   2.101   4.625   9.303  0.8053  0.5614  1.7153
  140SAPE  H10Y15323   1.932   4.628   9.378  0.2119  1.0093 -0.4830
  140SAPE  C31115324   1.935   4.565   9.172 -0.0726 -0.2875  0.7806
  140SAPE  H11X15325   1.843   4.503   9.176 -0.7219  0.2698 -2.3850
  140SAPE  H11Y15326   1.997   4.508   9.099 -0.2206 -0.0647  0.4821
  140SAPE  C31215327   1.898   4.703   9.108  0.6932 -0.2596  0.0252
  140SAPE  H12X15328   1.854   4.763   9.190  1.5104  0.0702  0.2323
  140SAPE  H12Y15329   1.832   4.688   9.020  0.5763  1.3124 -0.1834
  140SAPE  C31315330   2.025   4.778   9.063  0.1980 -0.0589  0.0775
  140SAPE  H13X15331   2.072   4.696   9.004 -1.6624 -2.0377  1.1670
  140SAPE  H13Y15332   2.093   4.809   9.146  1.0387 -1.2461 -0.1413
  140SAPE  C31415333   1.989   4.906   8.978 -0.4473  0.4900 -0.6224
  140SAPE  H14X15334   1.896   4.957   9.010 -1.1271 -1.8728  1.5510
  140SAPE  H14Y15335   1.970   4.880   8.871 -1.9552  2.1143 -0.7883
  140SAPE  C31515336   2.102   5.013   8.979 -0.4804  0.9869  0.3964
  140SAPE  H15X15337   2.199   4.970   8.943 -0.3345  0.9310  0.8462
  140SAPE  H15Y15338   2.127   5.032   9.085  1.1406  1.2261  0.0123
  140SAPE  C31615339   2.085   5.140   8.893  0.4941  0.0570  0.7571
  140SAPE  H16X15340   2.042   5.105   8.797  1.2808  3.3822 -0.9498
  140SAPE  H16Y15341   2.175   5.199   8.867  0.0100  1.2623  1.7108
  140SAPE  C31715342   1.988   5.235   8.956 -0.1287 -0.9748 -0.5717
  140SAPE  H17X15343   2.027   5.277   9.052 -1.6988  0.9818 -0.7217
  140SAPE  H17Y15344   1.894   5.179   8.974 -0.2935 -0.2178  1.1510
  140SAPE  C31815345   1.957   5.351   8.865 -0.5506 -0.1118 -1.0408
  140SAPE  H18X15346   1.888   5.429   8.903 -1.2485 -0.2753 -1.9328
  140SAPE  H18Y15347   1.922   5.310   8.768 -0.6785  1.9540 -1.9083
  140SAPE  H18Z15348   2.053   5.392   8.827  0.4752  0.6099  2.0614
  141SAPE     N15349   3.578   0.862  10.947 -0.7903  0.6954  0.7010
  141SAPE   HN115350   3.521   0.929  11.003 -3.4328 -1.6598  1.0467
  141SAPE   HN215351   3.602   0.890  10.850 -0.6385  0.3373  0.6349
  141SAPE   HN315352   3.510   0.784  10.943  1.1751 -1.0630 -0.2745
  141SAPE   C1215353   3.701   0.819  11.029  0.6702  0.1372 -0.4033
  141SAPE  H12A15354   3.662   0.762  11.117 -0.1281  3.1771  1.3568
  141SAPE  H12B15355   3.745   0.916  11.061 -1.0978  1.5117 -1.9254
  141SAPE   C1115356   3.824   0.754  10.961  0.9138  0.5629 -0.9115
  141SAPE  H11A15357   3.794   0.657  10.916 -0.4032  1.5350 -2.2575
  141SAPE  H11B15358   3.901   0.746  11.041  0.1951 -0.2025 -0.2850
  141SAPE     P15359   4.015   0.792  10.790 -0.2100  0.3076 -0.6995
  141SAPE   O1315360   4.036   0.882  10.677 -0.6741 -0.4794 -0.0491
  141SAPE   O1415361   4.131   0.790  10.887  0.2320 -0.2733 -0.3420
  141SAPE   O1215362   3.880   0.842  10.867 -0.1195 -0.1398  0.0535
  141SAPE   O1115363   3.983   0.650  10.742  0.2136  0.5295  0.1091
  141SAPE    C115364   3.859   0.620  10.667 -0.2491  0.6319 -0.4543
  141SAPE    HA15365   3.802   0.549  10.731  0.9670  1.0968  1.2097
  141SAPE    HB15366   3.800   0.714  10.659 -1.2424 -0.1597 -4.4056
  141SAPE    C215367   3.880   0.575  10.520  0.1285 -0.0639 -1.0911
  141SAPE    HS15368   3.780   0.567  10.473  0.6424  0.0052 -2.2174
  141SAPE   O2115369   3.960   0.451  10.512  0.3385 -0.7760 -0.5427
  141SAPE   C2115370   3.890   0.350  10.470  0.4170  0.0258  0.6755
  141SAPE   O2215371   3.766   0.344  10.461  0.2467 -0.7855 -0.0406
  141SAPE   C2215372   3.977   0.236  10.433 -0.0893 -0.0048 -0.7668
  141SAPE   H2R15373   4.045   0.258  10.348  1.5109 -2.4988 -0.2356
  141SAPE   H2S15374   4.037   0.209  10.523  0.1882 -1.3932 -1.3376
  141SAPE    C315375   3.953   0.692  10.448 -0.2705  0.1446  0.5295
  141SAPE    HX15376   4.055   0.697  10.492 -0.2489  0.8304  0.4102
  141SAPE    HY15377   3.899   0.787  10.462  1.9100  1.3840  1.0371
  141SAPE   O3115378   3.976   0.673  10.306 -0.0711 -0.4292  0.2639
  141SAPE   C3115379   3.876   0.702  10.223  0.5860 -0.0429  0.0812
  141SAPE   O3215380   3.763   0.735  10.263 -0.7884 -0.3475 -0.3474
  141SAPE   C3215381   3.916   0.707  10.081 -0.6623 -0.3302  0.1089
  141SAPE   H2X15382   4.013   0.758  10.060 -0.8307 -0.4732 -1.0819
  141SAPE   H2Y15383   3.835   0.767  10.035 -0.5909 -0.3277 -0.0155
  141SAPE   C2315384   3.908   0.101  10.425 -0.0753 -0.1852 -0.0200
  141SAPE   H3R15385   3.847   0.094  10.517  0.4883 -1.1403  0.3043
  141SAPE   H3S15386   3.969   0.008  10.429  0.3481  0.0828 -0.1918
  141SAPE   C2415387   3.829   0.082  10.288 -0.8457 -0.3967  1.1955
  141SAPE   H4R15388   3.747   0.156  10.281 -0.2999  0.2841  1.8129
  141SAPE   H4S15389   3.776  -0.014  10.306 -1.8622 -0.2221 -0.5901
  141SAPE   C2515390   3.912   0.090  10.165 -0.0725  0.4024  0.7992
  141SAPE   H5R15391   3.998   0.159  10.162  0.8837 -0.7740 -1.7917
  141SAPE   C2615392   3.880   0.026  10.050  0.7341  0.0656  0.2143
  141SAPE   H6R15393   3.935   0.038   9.956  1.3364 -0.4191  0.4933
  141SAPE   C2715394   3.754  -0.062  10.041  0.4706 -0.6568  0.7599
  141SAPE   H7R15395   3.680  -0.030  10.118 -0.1025  0.0388 -0.0571
  141SAPE   H7S15396   3.787  -0.167  10.054  1.8341 -0.3182  0.1194
  141SAPE   C2815397   3.683  -0.058   9.907 -0.4594 -0.5565 -0.2436
  141SAPE   H8R15398   3.604   0.017   9.895 -4.0068 -4.0470 -0.8865
  141SAPE   C2915399   3.694  -0.142   9.800 -0.0218 -0.5892  0.0567
  141SAPE   H9R15400   3.636  -0.122   9.709  1.3083  1.8698 -0.3385
  141SAPE  C21015401   3.792  -0.264   9.795 -0.1231 -0.1301  0.2328
  141SAPE  H10R15402   3.854  -0.273   9.887 -0.2174 -0.7441  0.2389
  141SAPE  H10S15403   3.878  -0.235   9.731  0.4950  0.1763  1.1789
  141SAPE  C21115404   3.723  -0.393   9.738 -0.1995 -0.5644  0.1545
  141SAPE  H11R15405   3.709  -0.392   9.629 -1.5383 -0.2094  0.3118
  141SAPE  C21215406   3.689  -0.492   9.821  0.0772 -0.1521  0.1602
  141SAPE  H12R15407   3.664  -0.588   9.772 -0.1542 -1.0364  1.9217
  141SAPE  C21315408   3.677  -0.484   9.972 -0.2985 -0.8014 -0.4066
  141SAPE  H13R15409   3.772  -0.439  10.008  0.3195 -2.4846  0.1599
  141SAPE  H13S15410   3.672  -0.591  10.000  0.4905 -1.0016 -0.9948
  141SAPE  C21415411   3.572  -0.396  10.033  0.6584  0.7075 -0.5537
  141SAPE  H14R15412   3.538  -0.308   9.976  0.6053  1.3663  0.4749
  141SAPE  C21515413   3.529  -0.403  10.157 -0.2069 -0.1172 -0.2195
  141SAPE  H15R15414   3.445  -0.341  10.191 -1.1006 -2.4391  2.0949
  141SAPE  C21615415   3.581  -0.498  10.265  0.1615 -0.5739 -0.3508
  141SAPE  H16R15416   3.635  -0.581  10.214  0.5087 -0.1951 -0.6060
  141SAPE  H16S15417   3.495  -0.554  10.309 -0.2477  0.6163  0.3993
  141SAPE  C21715418   3.660  -0.432  10.382  0.4415  0.4462 -0.3116
  141SAPE  H17R15419   3.674  -0.497  10.471 -3.2814  1.0214  0.8700
  141SAPE  H17S15420   3.587  -0.363  10.430  0.9395 -0.5915  2.0905
  141SAPE  C21815421   3.789  -0.363  10.334 -0.2781 -0.3047 -0.1959
  141SAPE  H18R15422   3.764  -0.302  10.245 -2.4710 -0.9492 -0.0888
  141SAPE  H18S15423   3.857  -0.440  10.290  2.4740  0.7554  1.8964
  141SAPE  C21915424   3.877  -0.291  10.438 -0.4910  0.6338 -0.1822
  141SAPE  H19R15425   3.898  -0.363  10.520 -1.4828 -0.8266 -1.1869
  141SAPE  H19S15426   3.838  -0.195  10.480 -2.5711  0.1009 -0.8170
  141SAPE  C22015427   4.009  -0.250  10.377  0.0488  0.2411 -0.0331
  141SAPE  H20R15428   4.053  -0.343  10.335  0.1931 -0.1628  0.9677
  141SAPE  H20S15429   4.067  -0.218  10.466  1.0129 -2.0488  0.2253
  141SAPE  H20T15430   3.995  -0.177  10.295 -0.4682 -0.0292 -0.1949
  141SAPE   C3315431   3.928   0.569  10.012 -0.3066 -0.5221  0.7091
  141SAPE   H3X15432   3.833   0.512  10.002 -2.1216  2.5607 -1.2491
  141SAPE   H3Y15433   4.009   0.511  10.062  1.7139  1.4253 -0.1585
  141SAPE   C3415434   3.970   0.608   9.866  0.7956 -0.1418  0.2463
  141SAPE   H4X15435   4.058   0.674   9.852  1.0951 -0.3362  1.1169
  141SAPE   H4Y15436   3.881   0.657   9.822  0.4795 -2.1550 -1.4941
  141SAPE   C3515437   3.985   0.476   9.794 -0.0717  0.3632 -0.2606
  141SAPE   H5X15438   3.905   0.400   9.809  1.7792 -1.4106  1.0608
  141SAPE   H5Y15439   4.067   0.418   9.841  0.0876 -0.8294 -1.9323
  141SAPE   C3615440   3.993   0.495   9.640 -0.1328  0.3705 -0.5500
  141SAPE   H6X15441   3.889   0.512   9.605 -0.5257 -0.8601 -0.0023
  141SAPE   H6Y15442   4.017   0.395   9.600 -0.0444 -0.3023  1.1156
  141SAPE   C3715443   4.098   0.595   9.590 -0.2710 -0.4214  0.7448
  141SAPE   H7X15444   4.182   0.585   9.662  0.7209 -0.8182 -0.4279
  141SAPE   H7Y15445   4.059   0.699   9.587 -0.6951 -0.5845 -1.8717
  141SAPE   C3815446   4.165   0.563   9.453  0.1686  0.2232 -0.5611
  141SAPE   H8X15447   4.220   0.467   9.459  1.2375  0.9122  3.0302
  141SAPE   H8Y15448   4.233   0.650   9.437 -0.4783  1.1809  1.5356
  141SAPE   C3915449   4.063   0.574   9.333  0.6234 -0.6268 -0.2023
  141SAPE   H9X15450   4.015   0.675   9.328 -1.7547 -1.6550  0.6008
  141SAPE   H9Y15451   3.984   0.497   9.348 -1.9957  2.4391  4.4469
  141SAPE  C31015452   4.130   0.541   9.200  0.3473 -0.1241 -0.3671
  141SAPE  H10X15453   4.155   0.433   9.209  0.2063 -0.2402 -1.3265
  141SAPE  H10Y15454   4.223   0.602   9.204  0.5164 -0.2060 -2.3853
  141SAPE  C31115455   4.033   0.575   9.084 -0.7500  0.0959  0.6778
  141SAPE  H11X15456   4.026   0.685   9.070  0.3136  0.1536  0.5021
  141SAPE  H11Y15457   3.931   0.538   9.108 -1.0759  0.9196  0.6055
  141SAPE  C31215458   4.078   0.513   8.948 -0.2545  0.1123  0.7389
  141SAPE  H12X15459   4.106   0.405   8.954 -1.9889 -0.3252  1.7492
  141SAPE  H12Y15460   4.165   0.574   8.917  0.3376 -1.5415 -1.1395
  141SAPE  C31315461   3.963   0.524   8.847  0.1067  0.7379 -0.1707
  141SAPE  H13X15462   3.922   0.627   8.858  0.5941  1.0349 -1.0427
  141SAPE  H13Y15463   3.881   0.452   8.867  0.5613 -0.4864 -2.3835
  141SAPE  C31415464   3.992   0.517   8.695  0.0615 -0.0038 -0.1585
  141SAPE  H14X15465   4.032   0.415   8.681  0.9282 -0.0469  2.2300
  141SAPE  H14Y15466   4.068   0.594   8.671 -0.0731  0.6668  1.4507
  141SAPE  C31515467   3.863   0.541   8.627  0.1327 -1.2546  0.2793
  141SAPE  H15X15468   3.826   0.631   8.680  0.0834 -0.4312 -1.1116
  141SAPE  H15Y15469   3.782   0.467   8.648 -0.7141 -0.2144  0.7259
  141SAPE  C31615470   3.885   0.571   8.475  0.9168 -0.3767  0.0836
  141SAPE  H16X15471   3.782   0.559   8.433 -0.7231  1.0002  3.3554
  141SAPE  H16Y15472   3.948   0.495   8.425 -0.8792 -2.6363  1.1168
  141SAPE  C31715473   3.940   0.720   8.450  0.3420  0.0213  0.6367
  141SAPE  H17X15474   4.052   0.722   8.451  0.7080 -2.1394 -4.1852
  141SAPE  H17Y15475   3.913   0.787   8.534 -1.0789  0.5876 -0.2332
  141SAPE  C31815476   3.900   0.775   8.312  0.5416  0.7598 -0.6520
  141SAPE  H18X15477   3.794   0.806   8.327 -0.0801 -1.6528  0.2671
  141SAPE  H18Y15478   3.903   0.697   8.234  0.6080 -0.1545  0.2475
  141SAPE  H18Z15479   3.960   0.865   8.286 -0.6041  0.7903 -3.6178
  142SAPE     N15480   5.338   4.023  11.059  0.0280  0.3966 -0.4776
  142SAPE   HN115481   5.346   4.109  11.001  2.0358  1.9102  1.8352
  142SAPE   HN215482   5.424   3.974  11.026 -0.4552  1.0397 -2.8146
  142SAPE   HN315483   5.255   3.965  11.037  0.9470 -0.0820 -3.0093
  142SAPE   C1215484   5.356   4.063  11.198  1.1730 -0.6448  0.4140
  142SAPE  H12A15485   5.371   3.976  11.266  1.8655 -1.0938 -0.3009
  142SAPE  H12B15486   5.266   4.119  11.230  1.1489 -0.9042  0.8004
  142SAPE   C1115487   5.484   4.145  11.213 -0.1187  0.2733 -0.1205
  142SAPE  H11A15488   5.500   4.148  11.323  1.0784 -1.0957 -0.2277
  142SAPE  H11B15489   5.466   4.243  11.165  0.5606 -1.2988 -3.9390
  142SAPE     P15490   5.743   4.071  11.177  0.4920 -0.0849 -0.0306
  142SAPE   O1315491   5.785   4.193  11.243 -0.0364  0.8863 -0.5281
  142SAPE   O1415492   5.761   3.945  11.255 -0.0216  0.8355  0.1815
  142SAPE   O1215493   5.592   4.080  11.139  0.3970 -0.2832 -0.0357
  142SAPE   O1115494   5.817   4.054  11.039 -0.3749 -0.8371 -0.1015
  142SAPE    C115495   5.740   4.036  10.919 -0.5024  0.2710  0.1998
  142SAPE    HA15496   5.674   3.947  10.928  0.0495 -0.1381  0.2662
  142SAPE    HB15497   5.669   4.120  10.909 -1.1080 -0.0419  1.7144
  142SAPE    C215498   5.833   4.018  10.797  0.3960 -0.1311  0.1690
  142SAPE    HS15499   5.767   3.955  10.734 -1.6019 -1.0303  2.9086
  142SAPE   O2115500   5.953   3.942  10.831 -0.4465 -0.4926  0.0794
  142SAPE   C2115501   5.940   3.815  10.851 -0.3569  0.2875 -0.0666
  142SAPE   O2215502   5.836   3.754  10.843  0.2454 -0.0181  0.0262
  142SAPE   C2215503   6.075   3.759  10.889  0.3464  0.1908 -0.3871
  142SAPE   H2R15504   6.152   3.833  10.860  0.1629 -0.2294 -2.0899
  142SAPE   H2S15505   6.078   3.755  11.000  0.3590  0.6524 -0.3687
  142SAPE    C315506   5.862   4.153  10.735  0.3849 -0.2661 -0.9145
  142SAPE    HX15507   5.910   4.223  10.806 -0.6594 -0.9421  0.4990
  142SAPE    HY15508   5.762   4.189  10.703  0.1821 -1.5690 -1.8329
  142SAPE   O3115509   5.942   4.133  10.619  0.2745  0.0408 -0.2449
  142SAPE   C3115510   6.071   4.143  10.630 -0.0513 -0.0463  0.5203
  142SAPE   O3215511   6.138   4.166  10.730  0.0154 -0.5868  0.3324
  142SAPE   C3215512   6.130   4.128  10.488 -1.0302 -0.2149  0.5739
  142SAPE   H2X15513   6.076   4.192  10.414  1.4708  1.2983 -0.0511
  142SAPE   H2Y15514   6.103   4.024  10.459 -0.0743 -0.4642  0.5605
  142SAPE   C2315515   6.102   3.626  10.811  0.4322 -0.7227 -0.3044
  142SAPE   H3R15516   6.006   3.578  10.786  0.9607 -0.7397 -2.5886
  142SAPE   H3S15517   6.169   3.567  10.877  2.0275  2.2508  0.9700
  142SAPE   C2415518   6.181   3.671  10.680 -0.3760  0.4463 -0.2453
  142SAPE   H4R15519   6.275   3.729  10.689 -0.5745  0.5671  1.5808
  142SAPE   H4S15520   6.105   3.727  10.622 -0.9098 -0.2379 -0.2150
  142SAPE   C2515521   6.210   3.540  10.612 -0.1178  0.3446  0.4809
  142SAPE   H5R15522   6.225   3.461  10.687  0.3563 -0.3117 -0.2870
  142SAPE   C2615523   6.204   3.511  10.482 -0.9126 -0.2965 -0.6139
  142SAPE   H6R15524   6.231   3.409  10.450 -0.0182  0.1558 -1.3330
  142SAPE   C2715525   6.171   3.621  10.378 -0.4102 -0.2090 -1.0765
  142SAPE   H7R15526   6.101   3.697  10.418  0.7319 -0.8770  2.5729
  142SAPE   H7S15527   6.118   3.565  10.298 -0.2519  0.8117 -1.9108
  142SAPE   C2815528   6.299   3.688  10.322 -0.3248  0.4533 -0.0134
  142SAPE   H8R15529   6.384   3.685  10.391  0.7162 -0.4462 -1.2708
  142SAPE   C2915530   6.317   3.731  10.198 -0.6403  0.2584 -0.5572
  142SAPE   H9R15531   6.407   3.785  10.166 -1.3344  1.7026 -0.1406
  142SAPE  C21015532   6.218   3.735  10.085 -0.8827 -0.5605 -0.1479
  142SAPE  H10R15533   6.151   3.646  10.091  0.9458 -2.2004 -2.1759
  142SAPE  H10S15534   6.270   3.709   9.990 -0.0927 -2.0782  0.6475
  142SAPE  C21115535   6.148   3.866  10.067 -0.1080 -0.5062  0.0952
  142SAPE  H11R15536   6.097   3.916  10.151 -1.3608  2.1901 -2.0933
  142SAPE  C21215537   6.150   3.954   9.961 -0.0992  0.3552  0.0285
  142SAPE  H12R15538   6.081   4.039   9.957 -2.1941 -1.2839 -2.4506
  142SAPE  C21315539   6.211   3.936   9.824  0.2452  0.5832 -0.1041
  142SAPE  H13R15540   6.308   3.883   9.835 -0.4260 -0.4397  1.3689
  142SAPE  H13S15541   6.243   4.038   9.795  2.1886 -0.0909 -0.4444
  142SAPE  C21415542   6.125   3.856   9.722  0.5441 -0.3476  0.4632
  142SAPE  H14R15543   6.080   3.759   9.744  1.3549 -0.7458  0.3919
  142SAPE  C21515544   6.112   3.909   9.599  0.1173 -0.5510 -0.2025
  142SAPE  H15R15545   6.041   3.860   9.530 -1.6476 -2.6871  2.8711
  142SAPE  C21615546   6.179   4.037   9.545 -0.5959  0.8454  0.4006
  142SAPE  H16R15547   6.282   4.049   9.586 -0.7296  1.7289  0.5046
  142SAPE  H16S15548   6.133   4.136   9.563 -0.6842  1.6459 -3.3150
  142SAPE  C21715549   6.196   4.024   9.389 -0.0400 -0.2940 -0.0766
  142SAPE  H17R15550   6.097   4.012   9.339  0.3783 -0.9829 -0.7754
  142SAPE  H17S15551   6.256   3.932   9.371 -0.3738 -0.5738  0.2187
  142SAPE  C21815552   6.251   4.137   9.319 -0.2990 -0.4942 -0.3001
  142SAPE  H18R15553   6.357   4.149   9.353 -0.1887 -2.3684  0.1378
  142SAPE  H18S15554   6.195   4.228   9.349  2.6900  1.8697 -1.3921
  142SAPE  C21915555   6.268   4.120   9.165  0.3646  0.0605 -0.6254
  142SAPE  H19R15556   6.317   4.022   9.146 -0.7842 -0.8928  1.0438
  142SAPE  H19S15557   6.325   4.205   9.124  0.7337  0.6486  1.0223
  142SAPE  C22015558   6.135   4.113   9.093 -0.1392 -0.3243 -0.7368
  142SAPE  H20R15559   6.129   4.084   8.986 -1.5013 -0.6466 -0.5980
  142SAPE  H20S15560   6.092   4.216   9.096  1.2070  0.2858 -1.4566
  142SAPE  H20T15561   6.062   4.045   9.143 -2.3006  2.2769 -0.0588
  142SAPE   C3315562   6.289   4.131  10.490 -0.6071 -0.3157 -0.4148
  142SAPE   H3X15563   6.317   4.062  10.573  0.3459 -1.7298 -1.8565
  142SAPE   H3Y15564   6.309   4.237  10.515 -1.3042  0.0524 -1.3730
  142SAPE   C3415565   6.352   4.103  10.357 -0.4297 -0.7067 -0.1757
  142SAPE   H4X15566   6.312   4.010  10.310 -0.1520 -0.6182 -0.6026
  142SAPE   H4Y15567   6.461   4.081  10.360 -0.5050 -1.3387 -1.2833
  142SAPE   C3515568   6.339   4.206  10.241 -0.2784 -0.1773  0.4106
  142SAPE   H5X15569   6.374   4.301  10.287 -1.3512 -0.0166  0.9172
  142SAPE   H5Y15570   6.231   4.218  10.222 -0.6460  1.8913  3.2056
  142SAPE   C3615571   6.409   4.164  10.107 -0.2370 -0.3448 -0.5480
  142SAPE   H6X15572   6.394   4.055  10.093 -0.0058 -0.2769 -1.3526
  142SAPE   H6Y15573   6.519   4.179  10.111 -0.0790 -0.7723 -2.3626
  142SAPE   C3715574   6.354   4.252   9.995  0.0385  0.4000  0.8121
  142SAPE   H7X15575   6.348   4.356  10.033  0.0806  0.3908  0.8446
  142SAPE   H7Y15576   6.250   4.218   9.978  0.4909 -1.4066  1.3823
  142SAPE   C3815577   6.440   4.237   9.862  0.1808  0.0957  0.2539
  142SAPE   H8X15578   6.451   4.129   9.842 -0.0298  0.2115 -0.5100
  142SAPE   H8Y15579   6.540   4.276   9.892  1.0106 -1.4577 -0.4023
  142SAPE   C3915580   6.372   4.309   9.741 -0.4966 -0.4583 -0.0380
  142SAPE   H9X15581   6.392   4.416   9.761  1.2013 -1.0009  1.5045
  142SAPE   H9Y15582   6.263   4.288   9.732 -1.2262  1.9858  2.0820
  142SAPE  C31015583   6.451   4.279   9.608  0.1590  0.2427  0.1147
  142SAPE  H10X15584   6.435   4.174   9.574 -0.6009 -0.0291  1.2198
  142SAPE  H10Y15585   6.557   4.279   9.641  0.2885 -4.2492  0.3425
  142SAPE  C31115586   6.413   4.389   9.508  0.8068 -0.5926 -0.4902
  142SAPE  H11X15587   6.426   4.484   9.565  0.9002 -1.4549  0.9951
  142SAPE  H11Y15588   6.313   4.372   9.463  0.6053 -0.0657 -0.2534
  142SAPE  C31215589   6.510   4.391   9.388  0.3198  0.4548  0.6191
  142SAPE  H12X15590   6.510   4.288   9.346  0.2692  0.2190  1.1847
  142SAPE  H12Y15591   6.613   4.414   9.423  0.9823 -2.4424  0.8024
  142SAPE  C31315592   6.474   4.493   9.275 -0.2320  0.2474 -0.0020
  142SAPE  H13X15593   6.481   4.598   9.310  0.6293  0.9883 -2.2733
  142SAPE  H13Y15594   6.372   4.472   9.236  0.4361 -2.1976 -0.6279
  142SAPE  C31415595   6.576   4.482   9.161  0.5080  0.4905 -0.6295
  142SAPE  H14X15596   6.591   4.374   9.137 -3.0986 -0.4254  0.6316
  142SAPE  H14Y15597   6.673   4.523   9.198 -0.5193  0.6338  2.1335
  142SAPE  C31515598   6.530   4.550   9.029  0.2785 -0.1995 -0.4218
  142SAPE  H15X15599   6.503   4.653   9.060  1.4951 -0.4295  1.6458
  142SAPE  H15Y15600   6.445   4.510   8.970  1.0261  0.6246 -2.1173
  142SAPE  C31615601   6.639   4.559   8.920 -0.4574  0.7814 -0.3933
  142SAPE  H16X15602   6.672   4.456   8.899 -0.4204  0.3424  1.6017
  142SAPE  H16Y15603   6.721   4.604   8.979  0.7045 -0.7924 -0.7582
  142SAPE  C31715604   6.615   4.641   8.799  0.3104 -0.9778  0.1765
  142SAPE  H17X15605   6.614   4.747   8.831 -3.1413 -0.7758 -0.2457
  142SAPE  H17Y15606   6.516   4.610   8.759 -0.1111  1.0508 -0.4439
  142SAPE  C31815607   6.730   4.626   8.703 -0.5527  0.6926  0.3625
  142SAPE  H18X15608   6.762   4.522   8.684  2.3353  1.5528  0.0407
  142SAPE  H18Y15609   6.822   4.657   8.757  1.0493  0.1370 -1.9260
  142SAPE  H18Z15610   6.716   4.680   8.607 -0.5579  0.3995  0.1984
  143SAPE     N15611   1.756   3.919  11.036  0.2559 -0.1333 -0.1641
  143SAPE   HN115612   1.664   3.877  11.059  1.9272 -3.6882  0.7039
  143SAPE   HN215613   1.820   3.897  11.115 -1.0987 -1.0763  0.7206
  143SAPE   HN315614   1.761   4.023  11.033  0.8295 -0.1748 -0.8592
  143SAPE   C1215615   1.796   3.875  10.900  0.0102  0.0655 -0.0654
  143SAPE  H12A15616   1.897   3.915  10.877  0.1002 -0.7926 -1.2671
  143SAPE  H12B15617   1.729   3.930  10.831  0.2174  1.3993  0.7749
  143SAPE   C1115618   1.785   3.726  10.879 -0.1647 -0.2936  0.2279
  143SAPE  H11A15619   1.827   3.666  10.963  0.4788  0.2684  0.3101
  143SAPE  H11B15620   1.846   3.695  10.791 -0.9122  3.0361 -1.6311
  143SAPE     P15621   1.590   3.548  10.876 -0.0622 -0.1443  0.3786
  143SAPE   O1315622   1.690   3.459  10.932 -0.3783 -0.2018  0.0064
  143SAPE   O1415623   1.466   3.551  10.956  0.2076 -0.3121  0.5931
  143SAPE   O1215624   1.645   3.694  10.860 -0.6281  1.1955  0.0758
  143SAPE   O1115625   1.555   3.501  10.724 -0.1547  0.0069  0.0210
  143SAPE    C115626   1.649   3.403  10.671 -0.3133 -0.3206 -0.0173
  143SAPE    HA15627   1.753   3.425  10.700 -0.3439 -1.3661  0.9435
  143SAPE    HB15628   1.620   3.303  10.710 -1.6676  0.2340  0.4634
  143SAPE    C215629   1.661   3.429  10.522  0.3598  0.0107  0.5173
  143SAPE    HS15630   1.728   3.356  10.473 -0.1099 -0.9823  1.3255
  143SAPE   O2115631   1.717   3.562  10.493  0.6102  0.2646 -0.5789
  143SAPE   C2115632   1.849   3.594  10.519  0.9317  0.1994 -0.1713
  143SAPE   O2215633   1.920   3.514  10.577  0.0959  0.5476  0.2952
  143SAPE   C2215634   1.872   3.735  10.474  0.2834 -0.1354  0.3466
  143SAPE   H2R15635   1.834   3.808  10.549  0.7559  1.1035 -0.5835
  143SAPE   H2S15636   1.982   3.749  10.479  0.1884  0.9187 -0.0726
  143SAPE    C315637   1.523   3.410  10.456  0.5790 -0.2157  0.8454
  143SAPE    HX15638   1.530   3.402  10.345 -0.9952  1.6041  0.5554
  143SAPE    HY15639   1.464   3.496  10.497  0.7567 -0.3460  1.3813
  143SAPE   O3115640   1.453   3.298  10.506 -0.1369  0.5905  0.1660
  143SAPE   C3115641   1.489   3.182  10.456 -0.3750  0.7064  0.2330
  143SAPE   O3215642   1.584   3.169  10.386 -0.3210 -0.4023  0.0019
  143SAPE   C3215643   1.396   3.075  10.502 -0.2024 -0.6267 -0.2200
  143SAPE   H2X15644   1.295   3.122  10.504 -0.8861 -2.0540  1.9567
  143SAPE   H2Y15645   1.418   3.042  10.606 -3.4791 -1.5488  0.3072
  143SAPE   C2315646   1.829   3.767  10.332  0.4120 -0.2011  0.1141
  143SAPE   H3R15647   1.838   3.877  10.321  0.5443 -0.0555  1.4805
  143SAPE   H3S15648   1.724   3.738  10.311 -0.0314 -0.7189  2.6521
  143SAPE   C2415649   1.911   3.695  10.220 -0.1305 -0.2047 -0.5277
  143SAPE   H4R15650   2.020   3.698  10.241 -0.3328 -0.4762  0.6334
  143SAPE   H4S15651   1.906   3.764  10.133  2.5706  2.5214  1.2683
  143SAPE   C2515652   1.869   3.559  10.189  0.4136  0.3589  0.2901
  143SAPE   H5R15653   1.847   3.505  10.283  0.1690  3.1035  1.9151
  143SAPE   C2615654   1.818   3.515  10.069  1.1905 -0.0442  0.8192
  143SAPE   H6R15655   1.773   3.415  10.078 -1.1031  0.8443 -0.1208
  143SAPE   C2715656   1.801   3.585   9.938 -0.2546  0.4059  0.9771
  143SAPE   H7R15657   1.765   3.690   9.951 -1.1051  0.1171  1.0012
  143SAPE   H7S15658   1.721   3.539   9.877  0.7169 -0.2470  0.1588
  143SAPE   C2815659   1.931   3.586   9.856 -0.0330 -0.9062 -0.3891
  143SAPE   H8R15660   2.028   3.569   9.905  1.4569  1.8252 -2.1279
  143SAPE   C2915661   1.934   3.594   9.721 -0.5168  0.0854 -0.4157
  143SAPE   H9R15662   2.032   3.580   9.672 -0.3565 -0.6726  0.1057
  143SAPE  C21015663   1.818   3.616   9.629 -0.0409 -0.0797  0.2784
  143SAPE  H10R15664   1.742   3.686   9.670  0.0333 -0.6930  1.5095
  143SAPE  H10S15665   1.768   3.516   9.622 -2.2583  0.4454  4.7584
  143SAPE  C21115666   1.873   3.664   9.498  0.0929 -0.1666  0.5061
  143SAPE  H11R15667   1.934   3.754   9.512 -2.4746  1.9182 -0.8816
  143SAPE  C21215668   1.845   3.629   9.373  0.2790  0.3172  0.0116
  143SAPE  H12R15669   1.894   3.685   9.292  0.5082 -1.3552 -1.0672
  143SAPE  C21315670   1.748   3.517   9.336  0.5116 -0.1134 -0.4277
  143SAPE  H13R15671   1.667   3.503   9.411 -0.5255 -0.4903 -1.5797
  143SAPE  H13S15672   1.813   3.428   9.326 -0.1998 -0.7641  0.4892
  143SAPE  C21415673   1.683   3.553   9.204 -0.9198 -0.2704 -0.0849
  143SAPE  H14R15674   1.586   3.601   9.221 -1.6447 -1.8646  0.5415
  143SAPE  C21515675   1.730   3.531   9.084 -0.0858 -0.2953 -0.4989
  143SAPE  H15R15676   1.668   3.543   8.994 -0.1728  0.0855 -0.3871
  143SAPE  C21615677   1.866   3.479   9.059  0.0107  0.0668  0.5221
  143SAPE  H16R15678   1.867   3.370   9.035  3.3249 -0.0715  0.8443
  143SAPE  H16S15679   1.936   3.487   9.144  3.0052 -1.5142 -1.6006
  143SAPE  C21715680   1.926   3.558   8.939  0.1627 -0.3747 -0.5648
  143SAPE  H17R15681   1.860   3.564   8.850 -2.4559  3.4990  1.3483
  143SAPE  H17S15682   2.023   3.519   8.901  0.8825  2.5610 -2.0210
  143SAPE  C21815683   1.972   3.705   8.974  0.4313  0.4202  0.4465
  143SAPE  H18R15684   2.044   3.707   9.058  2.8584  2.1132 -1.5236
  143SAPE  H18S15685   1.884   3.757   9.016 -1.1954 -1.7772 -0.0180
  143SAPE  C21915686   2.039   3.796   8.865 -0.0790  0.2293 -0.1294
  143SAPE  H19R15687   1.968   3.849   8.797 -2.3170 -2.1000  0.2263
  143SAPE  H19S15688   2.100   3.723   8.807 -2.6258 -2.0930 -0.1356
  143SAPE  C22015689   2.142   3.895   8.920 -0.3304 -0.3670 -0.7673
  143SAPE  H20R15690   2.096   3.940   9.010  1.1714  0.3081 -0.3167
  143SAPE  H20S15691   2.178   3.969   8.845  1.3763 -0.1316  0.2427
  143SAPE  H20T15692   2.235   3.850   8.960  1.3469  2.5288 -1.1740
  143SAPE   C3315693   1.395   2.947  10.418  0.0382 -0.1307 -0.3904
  143SAPE   H3X15694   1.330   2.877  10.475 -0.0583  0.7586  0.6101
  143SAPE   H3Y15695   1.492   2.898  10.394  0.4573  0.8032 -0.6321
  143SAPE   C3415696   1.329   2.978  10.286  0.3617 -0.3009 -0.0765
  143SAPE   H4X15697   1.363   3.080  10.257  1.8834 -0.1472  2.0500
  143SAPE   H4Y15698   1.220   2.986  10.305  0.5032 -0.7140  0.9684
  143SAPE   C3515699   1.324   2.867  10.170 -1.5300 -0.4135 -0.0669
  143SAPE   H5X15700   1.335   2.762  10.205  2.2027 -1.0144 -2.5181
  143SAPE   H5Y15701   1.412   2.892  10.106 -0.0137  1.1951  2.4556
  143SAPE   C3615702   1.197   2.864  10.090 -0.7378 -0.4764  0.5467
  143SAPE   H6X15703   1.157   2.968  10.085  0.0649 -0.1453  0.8203
  143SAPE   H6Y15704   1.124   2.795  10.138 -0.2039 -1.5009 -0.0972
  143SAPE   C3715705   1.228   2.804   9.955  0.1350 -0.5541 -0.4117
  143SAPE   H7X15706   1.286   2.713   9.980  1.6894  0.5007 -0.0021
  143SAPE   H7Y15707   1.298   2.874   9.905  0.3288  1.3342  2.2813
  143SAPE   C3815708   1.107   2.761   9.870 -0.0817 -0.6092 -0.9257
  143SAPE   H8X15709   1.035   2.842   9.846 -0.0691 -0.2441  0.2408
  143SAPE   H8Y15710   1.057   2.681   9.928  0.6498  0.7861  1.7714
  143SAPE   C3915711   1.159   2.710   9.737 -0.7227 -0.5433 -0.0772
  143SAPE   H9X15712   1.237   2.631   9.743 -0.8110 -0.6243  0.0055
  143SAPE   H9Y15713   1.192   2.793   9.671  0.5992 -0.9592  0.0314
  143SAPE  C31015714   1.045   2.641   9.662  0.0177 -0.1285 -0.3327
  143SAPE  H10X15715   0.960   2.712   9.662  0.2312  0.1947  1.7665
  143SAPE  H10Y15716   1.011   2.556   9.724 -1.2115  1.6673  1.5575
  143SAPE  C31115717   1.073   2.598   9.514 -0.3447 -0.9810  0.4232
  143SAPE  H11X15718   1.170   2.544   9.504 -0.0311 -0.2082 -0.9253
  143SAPE  H11Y15719   1.099   2.688   9.455 -0.9082 -0.1079  1.4884
  143SAPE  C31215720   0.963   2.512   9.444  0.5067  0.5726 -0.1145
  143SAPE  H12X15721   0.867   2.566   9.436 -0.4197 -0.8162  1.1723
  143SAPE  H12Y15722   0.957   2.417   9.502 -0.7089 -0.5362 -1.9709
  143SAPE  C31315723   1.008   2.498   9.299  0.0152  0.6104  0.2485
  143SAPE  H13X15724   1.117   2.474   9.294 -0.3055 -0.7528 -0.6843
  143SAPE  H13Y15725   0.984   2.596   9.255  0.1277  0.3983 -0.2897
  143SAPE  C31415726   0.926   2.392   9.224 -0.5608  0.2921  0.1515
  143SAPE  H14X15727   0.945   2.374   9.116  1.1358 -0.3470  0.5157
  143SAPE  H14Y15728   0.822   2.430   9.237 -0.1090  1.5183  0.3447
  143SAPE  C31515729   0.937   2.256   9.290  0.0174 -0.6208  0.8491
  143SAPE  H15X15730   0.877   2.258   9.383 -1.7347  1.7190 -0.2394
  143SAPE  H15Y15731   1.040   2.231   9.325 -0.6283  0.2587  3.6569
  143SAPE  C31615732   0.879   2.141   9.210  0.0055  0.5195  0.0755
  143SAPE  H16X15733   0.941   2.128   9.118  3.1590 -0.2939  2.1735
  143SAPE  H16Y15734   0.773   2.159   9.184 -0.3319 -1.3490  0.0698
  143SAPE  C31715735   0.879   2.011   9.288 -0.2871  0.4886  0.4280
  143SAPE  H17X15736   0.976   1.957   9.284 -0.3063  0.5367 -1.7096
  143SAPE  H17Y15737   0.819   1.944   9.222 -1.0175 -0.9846  2.4971
  143SAPE  C31815738   0.828   2.020   9.429 -0.2777 -0.2523  0.1765
  143SAPE  H18X15739   0.725   2.060   9.439 -0.8626 -1.7613  0.4794
  143SAPE  H18Y15740   0.901   2.080   9.488 -1.4749 -0.4870  1.9739
  143SAPE  H18Z15741   0.834   1.920   9.478  3.9177 -1.2957 -1.9715
  144SAPE     N15742   3.912   2.443  10.894  0.0380 -0.0388  0.3042
  144SAPE   HN115743   3.951   2.500  10.816 -0.2940  2.4616  1.8447
  144SAPE   HN215744   3.826   2.390  10.871 -0.2489  0.6770 -0.3061
  144SAPE   HN315745   3.878   2.517  10.959  0.4834 -2.8651  4.1121
  144SAPE   C1215746   4.025   2.369  10.959 -0.2468  0.1106 -0.2669
  144SAPE  H12A15747   4.058   2.290  10.888 -0.5895  0.4781 -0.8474
  144SAPE  H12B15748   3.985   2.312  11.045  0.9959 -0.8541 -0.2986
  144SAPE   C1115749   4.134   2.467  11.006  0.6687 -0.2128 -0.2791
  144SAPE  H11A15750   4.204   2.401  11.061 -0.7527 -0.7588  0.9393
  144SAPE  H11B15751   4.090   2.544  11.074 -0.7633 -0.4568 -0.8787
  144SAPE     P15752   4.312   2.622  10.909 -0.2877  0.3509  0.0702
  144SAPE   O1315753   4.294   2.712  11.028 -0.4133 -0.3756  0.0240
  144SAPE   O1415754   4.431   2.534  10.906  0.4356  0.4351 -0.3915
  144SAPE   O1215755   4.193   2.531  10.891 -0.4973 -0.1472  0.0371
  144SAPE   O1115756   4.305   2.709  10.779 -0.2506  0.3430  0.4140
  144SAPE    C115757   4.233   2.676  10.662  0.1182 -0.2043 -0.0342
  144SAPE    HA15758   4.188   2.574  10.660 -0.6635  0.1502 -0.8404
  144SAPE    HB15759   4.149   2.746  10.642 -0.7778 -1.5109 -1.0584
  144SAPE    C215760   4.321   2.688  10.533  0.2107  0.5441 -0.3395
  144SAPE    HS15761   4.388   2.601  10.552 -0.4201  0.3504  1.1321
  144SAPE   O2115762   4.394   2.805  10.527 -0.1651 -0.2846 -0.1454
  144SAPE   C2115763   4.496   2.821  10.449 -0.4396  0.2668  0.1147
  144SAPE   O2215764   4.549   2.732  10.383  0.1260  0.3393 -0.3559
  144SAPE   C2215765   4.542   2.965  10.439  0.3294 -0.0593 -0.2824
  144SAPE   H2R15766   4.462   3.040  10.424  0.0295  0.1179  1.8114
  144SAPE   H2S15767   4.600   2.970  10.534  0.4570  1.6218 -0.4138
  144SAPE    C315768   4.223   2.664  10.409 -0.3129 -0.7591 -0.1935
  144SAPE    HX15769   4.155   2.752  10.414  1.7364  0.8484  1.8376
  144SAPE    HY15770   4.160   2.574  10.419 -0.7033 -0.8079 -2.5591
  144SAPE   O3115771   4.292   2.684  10.282 -0.1620 -0.0682 -0.6651
  144SAPE   C3115772   4.347   2.569  10.242  0.1203 -0.1987  0.5696
  144SAPE   O3215773   4.343   2.462  10.303 -0.2214 -0.1266 -0.3501
  144SAPE   C3215774   4.412   2.593  10.103  0.0338  0.3631 -0.6165
  144SAPE   H2X15775   4.507   2.536  10.107 -1.0783 -1.7106 -1.8727
  144SAPE   H2Y15776   4.422   2.701  10.083 -0.4238  0.8190  1.3530
  144SAPE   C2315777   4.636   2.985  10.318 -0.5961  0.0142 -0.2402
  144SAPE   H3R15778   4.603   2.925  10.231  0.1263  0.6122 -0.9406
  144SAPE   H3S15779   4.726   2.927  10.348 -0.1201  0.4118 -0.8641
  144SAPE   C2415780   4.664   3.128  10.269  0.3464 -0.3489  0.1926
  144SAPE   H4R15781   4.747   3.114  10.196  0.1311  0.4828 -0.2237
  144SAPE   H4S15782   4.712   3.201  10.338 -0.3846  1.0011 -0.6756
  144SAPE   C2515783   4.535   3.190  10.208 -0.6754 -0.3372  0.0086
  144SAPE   H5R15784   4.470   3.238  10.283 -1.7950 -0.8278 -0.6234
  144SAPE   C2615785   4.497   3.192  10.081  0.5577  0.2141  0.4851
  144SAPE   H6R15786   4.399   3.233  10.052  0.7629 -0.6492 -1.5910
  144SAPE   C2715787   4.574   3.139   9.963 -0.4873 -0.8633  0.2688
  144SAPE   H7R15788   4.672   3.092   9.985 -0.1063 -0.3295 -0.2487
  144SAPE   H7S15789   4.588   3.229   9.900  0.7828 -1.4517 -0.3366
  144SAPE   C2815790   4.491   3.036   9.893 -0.6715  0.5542  0.2770
  144SAPE   H8R15791   4.420   2.975   9.950  0.0170  0.4671  1.0683
  144SAPE   C2915792   4.494   3.012   9.758 -0.0535  0.1812 -0.1520
  144SAPE   H9R15793   4.433   2.929   9.718  0.3760 -0.5062  0.5988
  144SAPE  C21015794   4.583   3.086   9.659  0.0438 -0.1560  0.3258
  144SAPE  H10R15795   4.621   3.004   9.595  1.2725  0.7304 -0.1368
  144SAPE  H10S15796   4.676   3.128   9.704 -0.3071  0.2745  0.6562
  144SAPE  C21115797   4.505   3.193   9.599  0.0406 -0.1969 -0.5675
  144SAPE  H11R15798   4.459   3.270   9.662  2.9596  1.5546 -0.3763
  144SAPE  C21215799   4.503   3.232   9.463 -0.0757 -0.2700 -0.1607
  144SAPE  H12R15800   4.438   3.312   9.426  1.0727  0.7949  0.0664
  144SAPE  C21315801   4.578   3.149   9.353  0.4553  0.3108  0.2825
  144SAPE  H13R15802   4.682   3.138   9.391 -0.1251 -1.1005  1.5439
  144SAPE  H13S15803   4.594   3.199   9.255  1.7000 -0.8865 -0.1526
  144SAPE  C21415804   4.540   3.005   9.333  0.7155 -0.0778 -0.6311
  144SAPE  H14R15805   4.529   2.942   9.422 -1.9559 -1.0357 -1.5496
  144SAPE  C21515806   4.517   2.940   9.220 -0.2182  0.2572 -0.1396
  144SAPE  H15R15807   4.488   2.835   9.233 -2.1923  0.8683  0.8158
  144SAPE  C21615808   4.532   2.994   9.079  0.1107  0.1056  0.3629
  144SAPE  H16R15809   4.550   3.104   9.081  1.9333 -0.1766  1.9894
  144SAPE  H16S15810   4.433   2.975   9.032 -0.1620 -0.6834  1.2309
  144SAPE  C21715811   4.643   2.929   8.991 -0.6807  0.4119  0.7385
  144SAPE  H17R15812   4.643   2.819   9.005 -0.4813  0.3376  0.2099
  144SAPE  H17S15813   4.738   2.979   9.018 -1.0634 -0.6684  4.5550
  144SAPE  C21815814   4.626   2.954   8.837  0.6926  0.2791  0.3408
  144SAPE  H18R15815   4.630   3.064   8.823 -0.1976  0.3724  0.7564
  144SAPE  H18S15816   4.529   2.914   8.799  0.0539  1.2483  0.9252
  144SAPE  C21915817   4.753   2.905   8.761 -0.7301  0.7180  0.1741
  144SAPE  H19R15818   4.831   2.984   8.752  0.3238 -0.5055 -2.0490
  144SAPE  H19S15819   4.710   2.893   8.660 -2.2618 -0.3584  0.9118
  144SAPE  C22015820   4.819   2.774   8.812 -0.1470 -0.2896  0.0052
  144SAPE  H20R15821   4.733   2.703   8.820 -1.2156  1.1995  3.4784
  144SAPE  H20S15822   4.867   2.781   8.911 -0.5765  1.2135  0.1387
  144SAPE  H20T15823   4.898   2.733   8.746  0.5337 -1.3288  1.4220
  144SAPE   C3315824   4.331   2.535   9.985  0.1320 -0.6781 -0.0131
  144SAPE   H3X15825   4.224   2.563   9.994  0.1161 -1.2221  1.8944
  144SAPE   H3Y15826   4.341   2.424   9.994 -0.3988 -0.7671 -0.4731
  144SAPE   C3415827   4.377   2.580   9.843 -0.2297 -0.0862 -0.0715
  144SAPE   H4X15828   4.482   2.551   9.823 -0.2669 -1.0250  0.9642
  144SAPE   H4Y15829   4.380   2.690   9.831  1.0660 -0.2408 -1.3644
  144SAPE   C3515830   4.288   2.517   9.730  0.4316  1.0638 -0.5127
  144SAPE   H5X15831   4.182   2.513   9.765  0.1567 -0.5915 -1.4381
  144SAPE   H5Y15832   4.318   2.410   9.725  0.2035  0.9784 -0.1256
  144SAPE   C3615833   4.322   2.572   9.587  0.6753 -0.1771 -0.3680
  144SAPE   H6X15834   4.426   2.540   9.564  0.8733  0.4054 -0.3008
  144SAPE   H6Y15835   4.315   2.682   9.577 -0.7883 -0.2427 -0.2502
  144SAPE   C3715836   4.242   2.512   9.477 -0.0088  0.4294 -0.0637
  144SAPE   H7X15837   4.134   2.525   9.499  0.0287  0.4628  0.1070
  144SAPE   H7Y15838   4.255   2.402   9.486 -0.3435  0.1712 -2.2521
  144SAPE   C3815839   4.277   2.585   9.340  0.2707 -0.2704 -0.7340
  144SAPE   H8X15840   4.385   2.567   9.327  1.1235  1.3551  2.7937
  144SAPE   H8Y15841   4.254   2.692   9.359 -0.6885 -0.6098  0.1480
  144SAPE   C3915842   4.180   2.556   9.229 -0.3668 -0.5307  0.6996
  144SAPE   H9X15843   4.080   2.594   9.257 -0.4461  0.2175 -0.5240
  144SAPE   H9Y15844   4.171   2.446   9.216  1.0586 -0.5273 -0.6648
  144SAPE  C31015845   4.215   2.614   9.092 -0.2594 -0.4573  0.6291
  144SAPE  H10X15846   4.233   2.723   9.099 -1.3801 -0.0921 -1.3250
  144SAPE  H10Y15847   4.126   2.603   9.025  0.4368  2.5022 -0.9339
  144SAPE  C31115848   4.337   2.559   9.020 -0.8785 -0.1826  0.2053
  144SAPE  H11X15849   4.323   2.449   9.014  0.9159 -0.3447 -2.1434
  144SAPE  H11Y15850   4.427   2.590   9.078 -0.1897 -0.2951 -0.7846
  144SAPE  C31215851   4.352   2.622   8.878 -0.4751 -0.4777 -0.4110
  144SAPE  H12X15852   4.364   2.732   8.871  0.0026 -0.5890 -1.5637
  144SAPE  H12Y15853   4.257   2.607   8.822 -1.0246 -0.1339  0.4081
  144SAPE  C31315854   4.465   2.548   8.807  0.1479  0.8425  0.0825
  144SAPE  H13X15855   4.452   2.438   8.795  0.9029  0.8437 -0.8481
  144SAPE  H13Y15856   4.548   2.573   8.877  0.5430  2.3889 -0.9000
  144SAPE  C31415857   4.472   2.608   8.667 -0.9007  0.1025  0.2355
  144SAPE  H14X15858   4.459   2.718   8.659  0.1016  0.3532  1.6156
  144SAPE  H14Y15859   4.371   2.584   8.629 -0.9207  1.2251 -0.4798
  144SAPE  C31515860   4.581   2.562   8.564 -0.0098 -0.3851 -0.6700
  144SAPE  H15X15861   4.593   2.452   8.567  1.7576 -0.2174  1.6439
  144SAPE  H15Y15862   4.676   2.598   8.609 -0.4729 -0.3163  0.2847
  144SAPE  C31615863   4.568   2.614   8.421  0.4347  0.2664 -0.0862
  144SAPE  H16X15864   4.546   2.722   8.428 -0.8359  0.0497 -0.4665
  144SAPE  H16Y15865   4.481   2.556   8.384  1.5325 -1.0243 -0.7337
  144SAPE  C31715866   4.687   2.586   8.331 -0.3406 -0.1883 -0.4448
  144SAPE  H17X15867   4.725   2.482   8.330  1.9224  0.5737 -0.9026
  144SAPE  H17Y15868   4.768   2.649   8.375  0.6014 -2.2070  0.8344
  144SAPE  C31815869   4.649   2.627   8.186  0.7336 -0.3289 -0.4692
  144SAPE  H18X15870   4.633   2.737   8.182 -2.1469 -0.4773  2.3043
  144SAPE  H18Y15871   4.556   2.573   8.159  0.4661 -0.0537 -0.1104
  144SAPE  H18Z15872   4.727   2.592   8.115  0.4110  1.5302 -1.8168
  145SAPE     N15873   3.392   3.819  10.853 -0.3731  0.1127 -0.3464
  145SAPE   HN115874   3.343   3.823  10.945  0.0405 -0.9849 -0.0701
  145SAPE   HN215875   3.432   3.725  10.835 -1.8203 -0.2192 -2.2776
  145SAPE   HN315876   3.473   3.883  10.852 -0.0709 -0.2647 -0.3589
  145SAPE   C1215877   3.304   3.852  10.736 -0.1441  0.7431 -0.5607
  145SAPE  H12A15878   3.229   3.770  10.735  0.8165 -0.3441  2.9925
  145SAPE  H12B15879   3.363   3.853  10.642 -2.7960 -0.9158 -2.3861
  145SAPE   C1115880   3.243   3.986  10.755 -0.3955 -0.1110  0.1673
  145SAPE  H11A15881   3.176   3.993  10.667  1.4646 -0.6802 -1.3681
  145SAPE  H11B15882   3.312   4.070  10.734  0.6552 -1.7276 -3.7599
  145SAPE     P15883   3.060   4.105  10.895  0.1732 -0.0543 -0.1344
  145SAPE   O1315884   3.084   4.160  11.030  0.0846 -0.8118  0.1487
  145SAPE   O1415885   3.066   4.192  10.773 -0.1655  0.1258  0.4932
  145SAPE   O1215886   3.167   3.987  10.876  0.4009 -0.1761  0.0402
  145SAPE   O1115887   2.924   4.026  10.884  0.8662 -0.1883  0.1208
  145SAPE    C115888   2.899   3.887  10.867 -0.1602  0.6887 -1.2386
  145SAPE    HA15889   2.990   3.823  10.867 -0.2813  0.5054 -2.0335
  145SAPE    HB15890   2.832   3.849  10.947  0.7740  2.5425  0.5103
  145SAPE    C215891   2.820   3.844  10.734 -0.6043 -0.1642 -0.2692
  145SAPE    HS15892   2.805   3.734  10.736  2.8189 -0.7287  1.2053
  145SAPE   O2115893   2.899   3.885  10.620 -0.3631 -0.5451  0.0210
  145SAPE   C2115894   2.966   3.788  10.558 -0.1611 -0.1958  0.4505
  145SAPE   O2215895   2.973   3.671  10.596  0.3978  0.2690 -0.5396
  145SAPE   C2215896   3.046   3.832  10.431 -0.1493  0.1466  0.2302
  145SAPE   H2R15897   3.012   3.931  10.395 -1.8926 -0.7446 -0.7542
  145SAPE   H2S15898   3.151   3.843  10.464  0.1440 -1.1971 -0.1994
  145SAPE    C315899   2.684   3.912  10.719 -0.1488  0.1707  0.4978
  145SAPE    HX15900   2.705   4.021  10.724  1.0035 -0.0930  1.9279
  145SAPE    HY15901   2.613   3.885  10.801  0.1321  0.3362  0.7957
  145SAPE   O3115902   2.629   3.883  10.586  0.1723  0.5168 -0.3502
  145SAPE   C3115903   2.561   3.770  10.570 -0.2725 -0.2270  0.0342
  145SAPE   O3215904   2.542   3.691  10.663 -0.0275 -0.3300 -0.3550
  145SAPE   C3215905   2.506   3.762  10.429  0.3263 -0.3149  0.2332
  145SAPE   H2X15906   2.595   3.764  10.363  0.6808 -0.1256  0.7103
  145SAPE   H2Y15907   2.439   3.849  10.414 -1.3521 -1.6965 -0.6824
  145SAPE   C2315908   3.039   3.719  10.323  0.1303  1.0470  0.0451
  145SAPE   H3R15909   3.072   3.623  10.366  0.3392 -0.0886 -2.4516
  145SAPE   H3S15910   3.110   3.747  10.243  1.3985 -0.2679  0.6720
  145SAPE   C2415911   2.888   3.707  10.280  0.4985  0.4051  0.0820
  145SAPE   H4R15912   2.810   3.684  10.356 -1.3509 -0.0807 -1.8352
  145SAPE   H4S15913   2.877   3.618  10.214  1.7957 -0.1494  0.5901
  145SAPE   C2515914   2.836   3.834  10.218  0.6338 -0.6055 -0.1062
  145SAPE   H5R15915   2.840   3.924  10.282 -0.5037  0.5774 -1.6196
  145SAPE   C2615916   2.776   3.836  10.101  0.1956 -0.2117  0.1987
  145SAPE   H6R15917   2.732   3.930  10.066  0.4535 -0.3824 -0.6259
  145SAPE   C2715918   2.743   3.711  10.019 -0.3194  0.0926  0.9471
  145SAPE   H7R15919   2.655   3.730   9.955  1.1498  1.2399 -0.8297
  145SAPE   H7S15920   2.728   3.615  10.073  0.8390  0.4033  1.8701
  145SAPE   C2815921   2.847   3.669   9.922  0.4294  0.0626 -0.4153
  145SAPE   H8R15922   2.947   3.713   9.931 -0.8047  2.6797  1.7354
  145SAPE   C2915923   2.824   3.577   9.820 -0.8639 -1.0449 -0.5643
  145SAPE   H9R15924   2.908   3.567   9.750 -0.2659  0.7046 -0.1524
  145SAPE  C21015925   2.700   3.507   9.785  0.9167  0.4573  1.1178
  145SAPE  H10R15926   2.687   3.523   9.676 -0.4999  2.0614  1.4695
  145SAPE  H10S15927   2.611   3.559   9.826 -0.1907  0.1291 -0.7688
  145SAPE  C21115928   2.691   3.359   9.822 -0.0470 -0.3957 -0.4024
  145SAPE  H11R15929   2.724   3.352   9.926  1.0482  0.1741 -0.7010
  145SAPE  C21215930   2.660   3.255   9.749 -0.0853 -0.5004 -0.3715
  145SAPE  H12R15931   2.647   3.158   9.800  1.5190 -0.2688  0.5527
  145SAPE  C21315932   2.628   3.253   9.600  0.3892  0.7435  0.0479
  145SAPE  H13R15933   2.645   3.357   9.565 -1.4981  0.6311 -1.3489
  145SAPE  H13S15934   2.520   3.230   9.584  0.4649  1.4523 -1.7000
  145SAPE  C21415935   2.718   3.151   9.533 -0.5876  0.2696 -0.2850
  145SAPE  H14R15936   2.817   3.129   9.576 -1.1162 -1.8827 -0.0496
  145SAPE  C21515937   2.682   3.077   9.426 -0.8938 -0.2310 -0.1495
  145SAPE  H15R15938   2.755   2.999   9.401 -1.5538 -1.1092  0.6280
  145SAPE  C21615939   2.550   3.059   9.346 -0.3001  0.3177  0.4558
  145SAPE  H16R15940   2.489   3.150   9.363  0.9002  1.3811 -0.7041
  145SAPE  H16S15941   2.490   2.972   9.378 -1.1373 -0.1785 -2.2330
  145SAPE  C21715942   2.561   3.076   9.189 -0.3008  0.4986 -0.2154
  145SAPE  H17R15943   2.612   3.167   9.151 -1.2529  0.3307 -2.0215
  145SAPE  H17S15944   2.464   3.056   9.139 -0.9763 -0.6119  1.4467
  145SAPE  C21815945   2.647   2.972   9.111 -0.0906 -0.1766 -0.1969
  145SAPE  H18R15946   2.739   2.945   9.167  0.4677 -0.6839 -1.3145
  145SAPE  H18S15947   2.680   3.012   9.012 -0.6972 -0.3340 -0.4672
  145SAPE  C21915948   2.564   2.838   9.103 -0.2044  0.2020  0.9697
  145SAPE  H19R15949   2.494   2.840   9.017  0.9438  0.0013  0.0036
  145SAPE  H19S15950   2.504   2.821   9.194 -1.0836 -2.5489 -0.0284
  145SAPE  C22015951   2.654   2.719   9.090  0.6127  0.6196  0.6854
  145SAPE  H20R15952   2.729   2.736   9.169 -1.3915  0.3968  2.7509
  145SAPE  H20S15953   2.702   2.727   8.990 -0.8955 -1.5325 -0.3014
  145SAPE  H20T15954   2.611   2.616   9.099 -1.4098  1.0377 -2.4038
  145SAPE   C3315955   2.425   3.634  10.402  0.3290  0.2375 -0.8624
  145SAPE   H3X15956   2.332   3.655  10.458  0.8035  1.9667 -0.6608
  145SAPE   H3Y15957   2.482   3.554  10.452  2.7854  1.5227 -1.4399
  145SAPE   C3415958   2.410   3.601  10.255  0.5920  0.2442  0.3429
  145SAPE   H4X15959   2.502   3.557  10.211  0.0329  0.5888 -1.2621
  145SAPE   H4Y15960   2.377   3.697  10.208  0.1331  0.5596  1.2759
  145SAPE   C3515961   2.285   3.511  10.224 -0.0913  0.1223  0.0223
  145SAPE   H5X15962   2.195   3.542  10.280 -0.8758  0.8747 -1.5969
  145SAPE   H5Y15963   2.305   3.405  10.252 -1.2164  0.3072  1.6237
  145SAPE   C3615964   2.247   3.502  10.068  0.3408 -0.0071  0.0620
  145SAPE   H6X15965   2.228   3.600  10.018 -0.0794  0.2354  0.6790
  145SAPE   H6Y15966   2.151   3.446  10.065  0.1656  0.2609  0.5201
  145SAPE   C3715967   2.353   3.425   9.997 -0.7795 -0.0063 -1.3400
  145SAPE   H7X15968   2.367   3.326  10.045 -1.1533  1.5492  2.3116
  145SAPE   H7Y15969   2.451   3.478   9.998  0.1540 -1.6152  0.5715
  145SAPE   C3815970   2.317   3.403   9.855  0.8310 -0.1005 -0.2685
  145SAPE   H8X15971   2.402   3.412   9.784  1.1498  0.0491  0.1331
  145SAPE   H8Y15972   2.249   3.486   9.825  0.5064 -0.5871 -0.9007
  145SAPE   C3915973   2.245   3.277   9.828  0.7890  0.2693  0.7894
  145SAPE   H9X15974   2.146   3.274   9.878 -1.0446  1.0219 -2.4692
  145SAPE   H9Y15975   2.301   3.183   9.847 -1.7790 -1.6911 -0.6732
  145SAPE  C31015976   2.216   3.263   9.677  0.2835 -0.4274  0.5709
  145SAPE  H10X15977   2.300   3.221   9.618  1.2243 -0.0754  1.6228
  145SAPE  H10Y15978   2.212   3.365   9.632  0.7861 -1.3221 -1.6079
  145SAPE  C31115979   2.092   3.178   9.630  0.0730  0.0680  0.5132
  145SAPE  H11X15980   2.016   3.160   9.709  0.0931 -2.6971 -0.0117
  145SAPE  H11Y15981   2.128   3.074   9.615 -0.2623  0.2520 -2.0064
  145SAPE  C31215982   2.019   3.231   9.506 -0.0343 -0.2660 -1.0537
  145SAPE  H12X15983   1.988   3.337   9.516 -1.8685 -0.7875 -0.7936
  145SAPE  H12Y15984   1.927   3.170   9.490  0.4449 -0.9242 -1.3780
  145SAPE  C31315985   2.097   3.205   9.375 -0.3493 -0.4841 -0.2731
  145SAPE  H13X15986   2.022   3.189   9.294 -2.0613  2.5142  0.5467
  145SAPE  H13Y15987   2.159   3.114   9.391  1.3038  0.5229 -0.7556
  145SAPE  C31415988   2.184   3.325   9.327  0.4391 -0.2019 -0.0403
  145SAPE  H14X15989   2.265   3.339   9.402  0.5855  0.5151 -0.3242
  145SAPE  H14Y15990   2.140   3.426   9.315  0.5156 -0.3572 -1.8319
  145SAPE  C31515991   2.242   3.294   9.185 -0.4027  0.2068 -0.1881
  145SAPE  H15X15992   2.146   3.281   9.130 -0.9235  1.3147  0.4125
  145SAPE  H15Y15993   2.302   3.201   9.194 -0.1694  0.3201 -0.5367
  145SAPE  C31615994   2.318   3.403   9.113 -0.2455  0.5122 -0.2666
  145SAPE  H16X15995   2.415   3.414   9.166 -0.7011 -0.0689  0.7139
  145SAPE  H16Y15996   2.251   3.491   9.113 -1.4393 -0.2540  2.9811
  145SAPE  C31715997   2.343   3.358   8.965 -0.0769 -0.5079  0.0662
  145SAPE  H17X15998   2.247   3.361   8.909 -1.0172  0.4954  1.6481
  145SAPE  H17Y15999   2.385   3.256   8.957 -0.3449 -0.4742 -2.9618
  145SAPE  C31816000   2.443   3.453   8.891  0.3478  0.0787  0.0129
  145SAPE  H18X16001   2.459   3.427   8.784 -3.0475 -1.4067 -0.2752
  145SAPE  H18Y16002   2.536   3.450   8.951  1.1856  2.2608 -1.0938
  145SAPE  H18Z16003   2.410   3.557   8.911  2.0096  0.3164  1.7070
  146SAPE     N16004   1.302   3.649  11.128  0.4052 -0.4130  0.1941
  146SAPE   HN116005   1.375   3.618  11.061 -0.2451  1.7254 -1.6151
  146SAPE   HN216006   1.343   3.723  11.187  0.4552 -1.4710  1.5253
  146SAPE   HN316007   1.292   3.570  11.195 -1.8222  0.1246  0.5794
  146SAPE   C1216008   1.187   3.691  11.043  0.5807 -0.0389 -0.0668
  146SAPE  H12A16009   1.110   3.739  11.107  0.0370 -0.7666 -0.1685
  146SAPE  H12B16010   1.143   3.601  10.995  1.1800 -0.7074  0.6145
  146SAPE   C1116011   1.225   3.782  10.925 -0.7377 -0.5543  0.5366
  146SAPE  H11A16012   1.135   3.772  10.861 -0.3367  0.4128 -0.2090
  146SAPE  H11B16013   1.309   3.743  10.862 -0.4333  0.7698  0.1077
  146SAPE     P16014   1.399   3.975  10.987  0.0861  0.4078 -0.2055
  146SAPE   O1316015   1.386   4.108  11.039 -0.7490  0.1341 -0.4576
  146SAPE   O1416016   1.481   3.880  11.065  0.2441 -0.3817 -0.3055
  146SAPE   O1216017   1.249   3.921  10.963  0.7820 -0.5576 -0.2609
  146SAPE   O1116018   1.448   3.984  10.844 -0.1568 -0.1466  0.0497
  146SAPE    C116019   1.393   4.069  10.741 -0.4265 -0.7127 -0.2037
  146SAPE    HA16020   1.308   4.129  10.781 -1.7786 -0.7919 -2.7939
  146SAPE    HB16021   1.470   4.146  10.722 -1.3762  0.6145  1.1173
  146SAPE    C216022   1.365   3.993  10.609 -0.3030  0.2357  0.0392
  146SAPE    HS16023   1.358   4.064  10.524  0.8271  1.1706  0.7139
  146SAPE   O2116024   1.233   3.922  10.619 -0.5287  0.1602  0.0003
  146SAPE   C2116025   1.126   3.997  10.627 -1.0388  0.3783 -0.1185
  146SAPE   O2216026   1.119   4.117  10.618 -0.2180 -0.0588 -0.0923
  146SAPE   C2216027   1.011   3.900  10.641  0.8700 -0.2529 -0.0588
  146SAPE   H2R16028   1.038   3.799  10.604 -0.5351  0.2830 -2.7960
  146SAPE   H2S16029   0.990   3.897  10.750  3.0375 -2.8404  0.3872
  146SAPE    C316030   1.481   3.889  10.573 -0.2337  0.5504  0.2938
  146SAPE    HX16031   1.514   3.849  10.671 -0.9765  1.0665  0.7705
  146SAPE    HY16032   1.575   3.932  10.533  1.0078 -1.7983  0.4935
  146SAPE   O3116033   1.439   3.773  10.499  0.0879 -0.3418  0.1091
  146SAPE   C3116034   1.438   3.810  10.366 -0.2166  0.4803  0.5500
  146SAPE   O3216035   1.492   3.912  10.328  0.6554  0.4516  0.3544
  146SAPE   C3216036   1.374   3.710  10.275  0.1739 -0.0189 -0.5818
  146SAPE   H2X16037   1.268   3.742  10.271 -0.4233 -1.8692 -0.9035
  146SAPE   H2Y16038   1.376   3.609  10.323  1.5275  0.1799 -0.1869
  146SAPE   C2316039   0.886   3.961  10.574 -0.5929  0.7359  0.0260
  146SAPE   H3R16040   0.897   3.967  10.464 -0.0768 -0.5353 -0.0140
  146SAPE   H3S16041   0.868   4.066  10.604 -3.3229 -0.2409  2.4233
  146SAPE   C2416042   0.753   3.884  10.610  0.0167 -0.1750 -0.1686
  146SAPE   H4R16043   0.746   3.880  10.721  2.0206  0.5590  0.0302
  146SAPE   H4S16044   0.772   3.780  10.576  2.8345  0.2928 -0.2970
  146SAPE   C2516045   0.625   3.935  10.558  1.1029 -0.6348  0.3321
  146SAPE   H5R16046   0.588   4.027  10.605 -2.2956 -1.3734 -0.5945
  146SAPE   C2616047   0.552   3.880  10.460 -0.0196  0.1730 -0.3054
  146SAPE   H6R16048   0.452   3.921  10.440  0.8078  1.8262 -1.2735
  146SAPE   C2716049   0.587   3.744  10.396  0.1192  0.3958 -0.1675
  146SAPE   H7R16050   0.621   3.669  10.470  1.1904  0.4168 -0.6218
  146SAPE   H7S16051   0.671   3.725  10.325  1.1409 -1.5353  1.4740
  146SAPE   C2816052   0.469   3.672  10.325 -0.5662  1.0198 -0.0105
  146SAPE   H8R16053   0.424   3.595  10.390  2.5542  1.2223  2.6808
  146SAPE   C2916054   0.414   3.687  10.207  0.2449 -0.0993 -0.2360
  146SAPE   H9R16055   0.337   3.612  10.184 -1.4214  1.3034  0.5833
  146SAPE  C21016056   0.452   3.779  10.092 -1.4499 -0.1744  0.4128
  146SAPE  H10R16057   0.424   3.730   9.997  1.7596 -0.9830 -0.2263
  146SAPE  H10S16058   0.562   3.796  10.088 -1.5558  0.3503 -0.9772
  146SAPE  C21116059   0.384   3.914  10.089 -0.5579  0.1371 -0.2165
  146SAPE  H11R16060   0.334   3.952  10.179 -2.7248  1.3098 -1.8013
  146SAPE  C21216061   0.388   3.998   9.978  0.6618 -0.3812 -0.3939
  146SAPE  H12R16062   0.343   4.098   9.970  2.2202  0.3073 -0.9500
  146SAPE  C21316063   0.456   3.966   9.844  0.1216  0.7004 -0.3050
  146SAPE  H13R16064   0.375   3.937   9.773  0.9521  0.7291 -1.2819
  146SAPE  H13S16065   0.519   3.876   9.859  1.1295  1.3765 -0.3942
  146SAPE  C21416066   0.559   4.070   9.804 -1.0647 -0.0774  0.6675
  146SAPE  H14R16067   0.636   4.094   9.879 -0.0043 -2.3747  0.4019
  146SAPE  C21516068   0.585   4.108   9.680 -0.2885  0.0110  0.5189
  146SAPE  H15R16069   0.653   4.192   9.659 -1.4693  0.9341  0.3050
  146SAPE  C21616070   0.502   4.061   9.571  0.1577 -0.2448  0.4569
  146SAPE  H16R16071   0.398   4.100   9.580 -0.0502 -0.6642 -0.0060
  146SAPE  H16S16072   0.509   3.951   9.558 -0.4290 -0.1502 -0.8904
  146SAPE  C21716073   0.559   4.120   9.434  1.2594 -1.0031 -0.5048
  146SAPE  H17R16074   0.656   4.069   9.413  1.2702 -0.8711 -0.7826
  146SAPE  H17S16075   0.571   4.228   9.454 -0.5866 -0.7953 -0.3094
  146SAPE  C21816076   0.474   4.108   9.308  0.0177  0.0476  0.9841
  146SAPE  H18R16077   0.378   4.163   9.316 -0.6162 -0.4629 -1.8776
  146SAPE  H18S16078   0.435   4.004   9.306 -0.4674  0.2250  1.3128
  146SAPE  C21916079   0.540   4.142   9.173 -0.2107  0.4071 -0.5141
  146SAPE  H19R16080   0.605   4.056   9.147 -2.4340 -1.6425  0.3148
  146SAPE  H19S16081   0.600   4.235   9.179 -0.2059  0.3690  0.1134
  146SAPE  C22016082   0.442   4.141   9.057  0.2811 -0.1533  0.4654
  146SAPE  H20R16083   0.390   4.043   9.054  0.5684 -0.3600  1.7114
  146SAPE  H20S16084   0.499   4.152   8.962  2.8840 -2.0587  1.6853
  146SAPE  H20T16085   0.369   4.225   9.056  1.9127  1.3227 -0.2313
  146SAPE   C3316086   1.436   3.704  10.132 -0.1347 -0.1264 -0.0011
  146SAPE   H3X16087   1.531   3.648  10.120 -1.7099 -3.2725  1.1810
  146SAPE   H3Y16088   1.450   3.809  10.099 -0.4052 -0.6156 -1.7852
  146SAPE   C3416089   1.338   3.650  10.023 -0.2688 -0.8711 -0.4119
  146SAPE   H4X16090   1.249   3.715  10.039  0.9957  1.0043 -0.6525
  146SAPE   H4Y16091   1.302   3.546  10.039 -1.2104 -0.7537 -1.6463
  146SAPE   C3516092   1.390   3.668   9.878 -0.2054  0.1524 -0.1661
  146SAPE   H5X16093   1.485   3.610   9.869 -1.4132 -2.4235  2.1695
  146SAPE   H5Y16094   1.415   3.775   9.865 -0.5934  0.0647 -2.0681
  146SAPE   C3616095   1.285   3.625   9.771 -0.4783  0.4236 -1.1253
  146SAPE   H6X16096   1.207   3.704   9.769 -1.4922 -0.4101  1.2454
  146SAPE   H6Y16097   1.236   3.531   9.804 -0.9369  0.1549 -2.5078
  146SAPE   C3716098   1.346   3.610   9.628  0.5309  0.1985  0.3130
  146SAPE   H7X16099   1.426   3.533   9.637  0.8994  0.1065 -2.7312
  146SAPE   H7Y16100   1.401   3.703   9.603 -0.8033  0.7884 -0.5272
  146SAPE   C3816101   1.260   3.568   9.511  0.4010 -0.0876 -1.0224
  146SAPE   H8X16102   1.196   3.657   9.491 -0.8481 -0.8664 -0.5825
  146SAPE   H8Y16103   1.193   3.487   9.546  0.1887  0.8147  0.8016
  146SAPE   C3916104   1.330   3.515   9.381 -0.6834  0.0792  0.1354
  146SAPE   H9X16105   1.346   3.410   9.416 -0.9410  0.4843  1.5459
  146SAPE   H9Y16106   1.427   3.564   9.358 -0.3536 -0.5338  0.1769
  146SAPE  C31016107   1.239   3.518   9.255 -0.0049 -0.0429 -0.1892
  146SAPE  H10X16108   1.211   3.625   9.243 -1.8519 -0.4423  0.3933
  146SAPE  H10Y16109   1.142   3.469   9.274 -0.8842  1.8178  0.3405
  146SAPE  C31116110   1.308   3.462   9.132  0.8372  0.3123 -0.0079
  146SAPE  H11X16111   1.370   3.547   9.094  0.4239  1.1274  1.0695
  146SAPE  H11Y16112   1.234   3.430   9.056  1.9283  0.5879 -1.2316
  146SAPE  C31216113   1.389   3.334   9.158 -0.5441  0.3453 -0.3971
  146SAPE  H12X16114   1.333   3.259   9.218  1.7393 -0.4501  0.8737
  146SAPE  H12Y16115   1.481   3.360   9.213 -0.8637  1.2974 -0.2888
  146SAPE  C31316116   1.440   3.269   9.024 -0.4699  0.4943  0.1310
  146SAPE  H13X16117   1.519   3.338   8.986 -0.8308  1.5695  1.2731
  146SAPE  H13Y16118   1.360   3.270   8.946  1.7858 -0.3005 -2.3538
  146SAPE  C31416119   1.505   3.133   9.040 -0.1472 -0.4196 -0.6571
  146SAPE  H14X16120   1.525   3.094   8.938 -0.8416  1.1789 -1.4366
  146SAPE  H14Y16121   1.437   3.063   9.093  1.2456  0.0944  2.0016
  146SAPE  C31516122   1.633   3.124   9.131 -0.0275  0.1403 -0.1221
  146SAPE  H15X16123   1.600   3.152   9.234 -2.7497 -0.3830 -0.7754
  146SAPE  H15Y16124   1.713   3.196   9.103 -0.7558  1.7991  1.7889
  146SAPE  C31616125   1.696   2.983   9.134 -0.9927 -0.3739 -0.2608
  146SAPE  H16X16126   1.786   2.991   9.199 -0.2246 -1.9990 -1.0600
  146SAPE  H16Y16127   1.729   2.962   9.029 -1.7150  0.2433 -0.6201
  146SAPE  C31716128   1.610   2.863   9.181  0.4136  0.8099 -0.3583
  146SAPE  H17X16129   1.542   2.834   9.098  0.9225 -3.9835  0.6122
  146SAPE  H17Y16130   1.544   2.877   9.270  1.4251 -0.1324  0.5705
  146SAPE  C31816131   1.693   2.736   9.219  0.2734 -0.2142 -0.5079
  146SAPE  H18X16132   1.746   2.701   9.128 -0.7793  0.9769 -1.6344
  146SAPE  H18Y16133   1.616   2.658   9.241  1.1844 -0.4798  2.0853
  146SAPE  H18Z16134   1.757   2.747   9.309 -0.6749 -3.0388  0.6243
  147SAPE     N16135   2.637   0.038   6.386  0.0597 -0.6201 -0.0195
  147SAPE   HN116136   2.590   0.130   6.388  0.6692 -0.2382 -1.8001
  147SAPE   HN216137   2.735   0.060   6.359  0.3308  0.6252  1.7637
  147SAPE   HN316138   2.605  -0.020   6.306  1.5688  2.4574 -3.0882
  147SAPE   C1216139   2.623  -0.043   6.508 -0.0416  0.3581 -0.2333
  147SAPE  H12A16140   2.540   0.005   6.565 -0.2600  2.7121 -2.3765
  147SAPE  H12B16141   2.714  -0.027   6.569  0.5730  0.4884 -1.1703
  147SAPE   C1116142   2.614  -0.191   6.472  0.0811  0.3086 -0.4065
  147SAPE  H11A16143   2.587  -0.251   6.562 -2.4475  1.1028 -0.5698
  147SAPE  H11B16144   2.708  -0.231   6.428 -0.5013 -0.6526 -0.7950
  147SAPE     P16145   2.444  -0.342   6.357 -0.2502  0.1604  0.0788
  147SAPE   O1316146   2.377  -0.334   6.224  0.1737  0.1658  0.1142
  147SAPE   O1416147   2.557  -0.438   6.362  0.1502  0.0056 -0.1027
  147SAPE   O1216148   2.510  -0.202   6.379  0.3320 -0.3880 -0.8353
  147SAPE   O1116149   2.345  -0.364   6.474 -0.6013 -0.1224 -0.0014
  147SAPE    C116150   2.245  -0.269   6.507  0.5266  0.7255  0.3570
  147SAPE    HA16151   2.240  -0.176   6.447  2.5131  0.1117 -0.8769
  147SAPE    HB16152   2.148  -0.322   6.493  1.7514 -1.2410 -1.2995
  147SAPE    C216153   2.256  -0.223   6.655  0.5688  0.0293  0.4376
  147SAPE    HS16154   2.336  -0.147   6.653 -0.6415  1.3317 -0.1899
  147SAPE   O2116155   2.277  -0.336   6.741  0.3256 -0.3303 -0.2004
  147SAPE   C2116156   2.385  -0.327   6.816 -0.0100 -0.1268 -0.5706
  147SAPE   O2216157   2.454  -0.227   6.830 -0.3000 -0.0433 -0.5909
  147SAPE   C2216158   2.395  -0.456   6.889  0.1781  0.0105  0.1406
  147SAPE   H2R16159   2.335  -0.462   6.982 -0.9063 -0.9317 -0.6003
  147SAPE   H2S16160   2.375  -0.538   6.817 -2.5842 -1.2337  2.1489
  147SAPE    C316161   2.130  -0.152   6.710  0.0210  0.0203  0.4260
  147SAPE    HX16162   2.046  -0.225   6.698 -1.1760  1.6190 -1.6370
  147SAPE    HY16163   2.108  -0.068   6.641  0.6843  1.9436  2.4691
  147SAPE   O3116164   2.130  -0.089   6.837 -0.2012  0.1902 -0.1881
  147SAPE   C3116165   2.203   0.019   6.849 -0.3100  0.1021 -0.2249
  147SAPE   O3216166   2.278   0.068   6.764  0.5657 -0.0050 -0.2917
  147SAPE   C3216167   2.185   0.078   6.986  0.4685 -0.2234  0.0359
  147SAPE   H2X16168   2.267   0.148   7.013  0.9225  0.0615 -1.9172
  147SAPE   H2Y16169   2.198  -0.005   7.059 -2.0514  0.0642  0.8850
  147SAPE   C2316170   2.541  -0.474   6.934  0.2209  0.3171  0.0631
  147SAPE   H3R16171   2.619  -0.413   6.882  1.7232 -0.0268  1.7816
  147SAPE   H3S16172   2.571  -0.578   6.909 -0.2543  0.6543 -2.0948
  147SAPE   C2416173   2.552  -0.447   7.093 -0.0144  0.3063 -0.1839
  147SAPE   H4R16174   2.473  -0.514   7.131  0.6766 -0.3370  0.1267
  147SAPE   H4S16175   2.523  -0.344   7.122  2.1361  0.7911  0.4325
  147SAPE   C2516176   2.691  -0.478   7.153  0.2961 -0.1888  0.7842
  147SAPE   H5R16177   2.768  -0.399   7.151  2.7798 -2.4487 -0.7741
  147SAPE   C2616178   2.740  -0.589   7.207  0.4908 -0.0277 -0.1142
  147SAPE   H6R16179   2.834  -0.589   7.265  0.4659 -0.2607 -0.0760
  147SAPE   C2716180   2.663  -0.718   7.210  0.5683  0.5482  0.0449
  147SAPE   H7R16181   2.719  -0.811   7.186  0.4248  0.2051  0.9934
  147SAPE   H7S16182   2.589  -0.716   7.128  0.3666  1.2808  0.2421
  147SAPE   C2816183   2.590  -0.734   7.335 -0.7775  0.1402  0.6200
  147SAPE   H8R16184   2.531  -0.650   7.374 -0.6292 -0.2712  1.7625
  147SAPE   C2916185   2.574  -0.849   7.401 -0.1989  0.3482 -0.2238
  147SAPE   H9R16186   2.530  -0.850   7.502  0.0125 -2.4529 -0.0818
  147SAPE  C21016187   2.636  -0.979   7.369 -0.2545  0.4042 -0.1919
  147SAPE  H10R16188   2.731  -0.989   7.425  0.9942  0.9983 -2.1290
  147SAPE  H10S16189   2.645  -0.998   7.260 -1.7978 -0.7322 -0.1583
  147SAPE  C21116190   2.552  -1.094   7.415  0.1139 -0.0400 -0.5624
  147SAPE  H11R16191   2.467  -1.122   7.352 -0.2156 -0.6478  0.1380
  147SAPE  C21216192   2.578  -1.177   7.515  0.0757 -0.0718  0.6671
  147SAPE  H12R16193   2.518  -1.269   7.510  0.7632 -0.5026  0.1597
  147SAPE  C21316194   2.691  -1.190   7.626 -0.4556 -0.5853 -0.4205
  147SAPE  H13R16195   2.663  -1.124   7.711 -0.9763 -2.0386  0.5873
  147SAPE  H13S16196   2.778  -1.134   7.584 -0.4615 -0.8399 -0.7738
  147SAPE  C21416197   2.729  -1.323   7.677  0.0167 -0.1125 -0.0138
  147SAPE  H14R16198   2.823  -1.367   7.640  0.9918 -0.7809  2.9846
  147SAPE  C21516199   2.660  -1.387   7.776  0.2241  0.2695  0.1692
  147SAPE  H15R16200   2.688  -1.487   7.810 -0.9035 -0.6332 -1.4285
  147SAPE  C21616201   2.541  -1.332   7.851  0.2749  0.0374 -0.6764
  147SAPE  H16R16202   2.460  -1.407   7.849  0.4019 -0.1017 -0.6703
  147SAPE  H16S16203   2.490  -1.248   7.799 -0.2369  0.3442  0.2922
  147SAPE  C21716204   2.573  -1.270   7.992  0.1178  0.5732 -0.5410
  147SAPE  H17R16205   2.622  -1.349   8.053 -1.2649 -0.8269 -1.1443
  147SAPE  H17S16206   2.480  -1.226   8.034 -0.5353 -1.3275  0.1597
  147SAPE  C21816207   2.673  -1.149   7.972  0.3629 -0.1318 -0.3767
  147SAPE  H18R16208   2.613  -1.064   7.932  1.1641  1.2931  1.3474
  147SAPE  H18S16209   2.751  -1.189   7.904 -0.3375 -2.7843  0.2266
  147SAPE  C21916210   2.734  -1.098   8.105  0.0581  0.2203 -0.4844
  147SAPE  H19R16211   2.785  -1.173   8.170 -1.4458 -1.2502 -0.9239
  147SAPE  H19S16212   2.658  -1.054   8.173  0.9010 -0.4524  0.9488
  147SAPE  C22016213   2.831  -0.978   8.079 -0.6851 -0.0502  0.1726
  147SAPE  H20R16214   2.909  -0.997   8.002 -0.1994 -1.1484  0.9157
  147SAPE  H20S16215   2.877  -0.950   8.176 -1.5840  0.4808  0.4596
  147SAPE  H20T16216   2.771  -0.893   8.041 -0.2962  0.5084  0.7847
  147SAPE   C3316217   2.049   0.146   7.015  0.8327  0.0064  0.1151
  147SAPE   H3X16218   1.966   0.072   7.015 -0.7369  1.6388 -1.6704
  147SAPE   H3Y16219   2.028   0.203   6.922 -0.2725 -3.0049 -1.6441
  147SAPE   C3416220   2.045   0.238   7.136  0.3950  0.6898  0.1658
  147SAPE   H4X16221   1.939   0.272   7.142  0.4151  0.5383  1.9309
  147SAPE   H4Y16222   2.101   0.333   7.125 -2.4357  2.4573 -0.2557
  147SAPE   C3516223   2.078   0.172   7.272  0.5180 -0.6241  0.0635
  147SAPE   H5X16224   2.019   0.079   7.287  0.9832 -1.2438 -1.7298
  147SAPE   H5Y16225   2.024   0.236   7.345 -2.6733 -2.3938 -0.5175
  147SAPE   C3616226   2.229   0.143   7.295 -0.2877 -0.1346 -0.1303
  147SAPE   H6X16227   2.285   0.212   7.228 -0.8614  0.6792  0.2047
  147SAPE   H6Y16228   2.265   0.049   7.249 -1.6207 -0.8411  0.2023
  147SAPE   C3716229   2.296   0.172   7.426  0.3383 -0.0999 -0.2334
  147SAPE   H7X16230   2.285   0.277   7.461  1.9149 -0.1078  0.3658
  147SAPE   H7Y16231   2.406   0.158   7.422  0.3903  0.4042 -0.7132
  147SAPE   C3816232   2.232   0.094   7.542 -0.0996 -0.5427 -0.2163
  147SAPE   H8X16233   2.234  -0.007   7.498  0.1857  0.0547 -1.6177
  147SAPE   H8Y16234   2.129   0.125   7.568  0.9023  1.6862  1.4599
  147SAPE   C3916235   2.327   0.096   7.669 -0.2069 -0.4223  0.9156
  147SAPE   H9X16236   2.332   0.203   7.697  0.4911  0.3085 -1.7348
  147SAPE   H9Y16237   2.421   0.058   7.624 -1.7390 -0.5967 -2.4569
  147SAPE  C31016238   2.291  -0.017   7.774  0.6408  0.0517 -0.1863
  147SAPE  H10X16239   2.348   0.031   7.857  2.4415  1.3783 -2.0996
  147SAPE  H10Y16240   2.324  -0.121   7.753 -1.7176 -0.9210  0.6209
  147SAPE  C31116241   2.139  -0.046   7.794  0.1281  0.4006 -0.1203
  147SAPE  H11X16242   2.138  -0.147   7.841  0.3906  1.3122  1.9466
  147SAPE  H11Y16243   2.087  -0.063   7.698  0.8452 -0.4081 -0.3785
  147SAPE  C31216244   2.063   0.032   7.904  0.0592  0.2482  0.1505
  147SAPE  H12X16245   2.072   0.142   7.885 -2.2576  0.9897  2.8201
  147SAPE  H12Y16246   2.110   0.021   8.004  0.4231 -1.7345 -0.1980
  147SAPE  C31316247   1.912   0.006   7.912  0.3697 -0.4258 -0.3974
  147SAPE  H13X16248   1.864   0.037   7.816  0.6654 -0.5523 -0.5882
  147SAPE  H13Y16249   1.873   0.075   7.990  0.4675 -1.2786  0.4242
  147SAPE  C31416250   1.871  -0.140   7.934 -0.1012  0.0500  0.3041
  147SAPE  H14X16251   1.937  -0.198   7.866  0.5884  1.6560 -0.4653
  147SAPE  H14Y16252   1.768  -0.137   7.892  0.4813  0.3949 -1.1564
  147SAPE  C31516253   1.865  -0.196   8.076 -0.7622 -0.5079 -0.1427
  147SAPE  H15X16254   1.791  -0.278   8.067  1.5047 -3.1470  2.9974
  147SAPE  H15Y16255   1.823  -0.116   8.140  0.2302 -0.5277  0.5719
  147SAPE  C31616256   1.980  -0.278   8.126  0.2352 -0.0507  0.4641
  147SAPE  H16X16257   1.957  -0.335   8.220  2.0597 -3.0979 -0.7800
  147SAPE  H16Y16258   2.072  -0.216   8.133  0.0436  0.1219  1.7117
  147SAPE  C31716259   2.015  -0.398   8.029  0.0932 -0.4419 -0.5073
  147SAPE  H17X16260   2.070  -0.356   7.942  1.2244 -2.5083 -0.8472
  147SAPE  H17Y16261   1.921  -0.440   7.987 -1.0980  2.4022 -0.8980
  147SAPE  C31816262   2.104  -0.498   8.093  0.2027  0.7697 -0.0472
  147SAPE  H18X16263   2.055  -0.551   8.178 -0.0241  1.9040  0.5562
  147SAPE  H18Y16264   2.200  -0.453   8.126  1.2942 -1.0996 -0.5297
  147SAPE  H18Z16265   2.129  -0.580   8.022 -1.6277  1.1916 -1.2610
  148SAPE     N16266   3.018   0.482   6.261  0.2678 -0.1697  0.1220
  148SAPE   HN116267   3.064   0.394   6.292 -1.2230 -1.4123 -1.0275
  148SAPE   HN216268   3.004   0.457   6.161  1.3167 -1.2835  0.2270
  148SAPE   HN316269   3.096   0.551   6.258 -0.9586  1.2364 -1.1398
  148SAPE   C1216270   2.893   0.520   6.328  0.2629  0.3491  0.7557
  148SAPE  H12A16271   2.892   0.630   6.343  0.3155  0.7828 -2.0075
  148SAPE  H12B16272   2.877   0.461   6.421 -0.9372 -0.2426  0.1940
  148SAPE   C1116273   2.773   0.486   6.233 -0.0333  0.3590  0.0798
  148SAPE  H11A16274   2.765   0.377   6.212 -3.9424  0.3599  0.8304
  148SAPE  H11B16275   2.771   0.530   6.131 -0.0749 -1.8555 -0.9365
  148SAPE     P16276   2.549   0.451   6.370  0.0923  0.0354 -0.1323
  148SAPE   O1316277   2.417   0.514   6.356 -0.2658  0.2410  0.9288
  148SAPE   O1416278   2.561   0.305   6.337  0.6732  0.2525  0.2323
  148SAPE   O1216279   2.649   0.536   6.285 -0.1722  0.0377  0.1857
  148SAPE   O1116280   2.601   0.478   6.515 -0.4642  0.0994 -0.2713
  148SAPE    C116281   2.645   0.384   6.611  1.1773 -0.3932 -0.1422
  148SAPE    HA16282   2.692   0.296   6.563  1.4794  0.1328 -0.8185
  148SAPE    HB16283   2.727   0.436   6.665 -0.0493  0.6215  0.8218
  148SAPE    C216284   2.532   0.364   6.708 -0.9019 -0.2834  0.1445
  148SAPE    HS16285   2.445   0.337   6.644  0.7277 -3.4480 -0.9480
  148SAPE   O2116286   2.515   0.492   6.780  0.3333 -0.0302  0.1789
  148SAPE   C2116287   2.405   0.511   6.840  0.0170  0.6601  0.2429
  148SAPE   O2216288   2.310   0.431   6.847 -0.9352 -0.8119 -0.1686
  148SAPE   C2216289   2.403   0.643   6.914 -0.6683  0.5270  0.5847
  148SAPE   H2R16290   2.495   0.701   6.891 -1.3524  0.5334 -2.7811
  148SAPE   H2S16291   2.305   0.687   6.883 -0.4874  0.4183 -0.1659
  148SAPE    C316292   2.548   0.240   6.797 -0.4440  0.1434 -0.5425
  148SAPE    HX16293   2.567   0.152   6.732  0.7309  0.0922 -0.1532
  148SAPE    HY16294   2.450   0.216   6.843  0.7238 -1.5416  1.1882
  148SAPE   O3116295   2.644   0.275   6.897  0.8877 -0.3873  0.0305
  148SAPE   C3116296   2.763   0.233   6.874 -0.5517  0.4153  1.0674
  148SAPE   O3216297   2.800   0.168   6.775  0.0216  0.3947  0.3512
  148SAPE   C3216298   2.862   0.302   6.975  0.0416 -0.1942 -0.0530
  148SAPE   H2X16299   2.921   0.219   7.019 -0.2862 -0.5733 -0.3243
  148SAPE   H2Y16300   2.790   0.353   7.042 -1.0493 -1.5255 -0.1582
  148SAPE   C2316301   2.398   0.624   7.064 -0.2176 -0.0612  0.3121
  148SAPE   H3R16302   2.306   0.576   7.104  0.6193 -0.6627  1.5615
  148SAPE   H3S16303   2.382   0.731   7.090  1.5784  1.1552 -2.9970
  148SAPE   C2416304   2.533   0.575   7.119  0.3943  0.2711 -0.0715
  148SAPE   H4R16305   2.547   0.640   7.208  2.6477  2.2578 -1.7449
  148SAPE   H4S16306   2.613   0.593   7.044  1.8763 -0.0206  1.3900
  148SAPE   C2516307   2.517   0.428   7.154 -0.0831 -0.8546  0.2320
  148SAPE   H5R16308   2.448   0.369   7.093 -0.6101  0.3841 -0.3974
  148SAPE   C2616309   2.559   0.381   7.266  0.0232 -0.7704 -0.6633
  148SAPE   H6R16310   2.541   0.279   7.302  2.4080 -1.0358 -0.0095
  148SAPE   C2716311   2.639   0.461   7.365  0.3425  0.3118 -0.1235
  148SAPE   H7R16312   2.715   0.523   7.314 -0.4872 -0.4646 -2.4435
  148SAPE   H7S16313   2.703   0.389   7.421 -0.4822  0.7908  1.4912
  148SAPE   C2816314   2.553   0.540   7.464 -0.1879  0.7162 -0.9893
  148SAPE   H8R16315   2.463   0.582   7.416  0.0058  3.0731  0.5529
  148SAPE   C2916316   2.578   0.553   7.600 -0.2116 -0.1454 -0.0350
  148SAPE   H9R16317   2.513   0.617   7.663 -2.7994 -3.3601  0.8170
  148SAPE  C21016318   2.700   0.490   7.667 -0.4705  0.0006  0.2172
  148SAPE  H10R16319   2.729   0.546   7.758 -0.5240 -2.0283  1.5321
  148SAPE  H10S16320   2.782   0.501   7.593 -2.2770 -1.5665 -2.1923
  148SAPE  C21116321   2.681   0.343   7.696  0.1744  0.2012  0.3846
  148SAPE  H11R16322   2.717   0.281   7.613  0.1254  1.8291 -0.9159
  148SAPE  C21216323   2.629   0.278   7.803 -0.7246 -0.1198 -0.0772
  148SAPE  H12R16324   2.623   0.168   7.808  3.6432 -0.5589 -0.5171
  148SAPE  C21316325   2.577   0.346   7.921  0.1006 -0.4663 -1.0104
  148SAPE  H13R16326   2.572   0.454   7.895 -2.0585 -0.5475 -1.1067
  148SAPE  H13S16327   2.657   0.346   7.998 -0.6424 -2.4795 -0.1645
  148SAPE  C21416328   2.442   0.297   7.970 -0.2223 -0.6136 -0.1410
  148SAPE  H14R16329   2.372   0.306   7.886  0.0124 -2.0240 -0.5224
  148SAPE  C21516330   2.408   0.258   8.100 -0.5288 -0.0583 -0.6675
  148SAPE  H15R16331   2.309   0.223   8.131  0.5920 -0.3538  3.0234
  148SAPE  C21616332   2.510   0.252   8.209 -0.9403  0.5633 -0.8427
  148SAPE  H16R16333   2.469   0.292   8.304  0.7276 -2.3176  1.2439
  148SAPE  H16S16334   2.609   0.302   8.195 -0.6173  0.0776 -0.3456
  148SAPE  C21716335   2.536   0.097   8.220 -0.5370 -0.2803 -0.1995
  148SAPE  H17R16336   2.627   0.088   8.284 -0.1237  3.0961 -0.1696
  148SAPE  H17S16337   2.565   0.057   8.121 -1.4872  0.8833 -0.9720
  148SAPE  C21816338   2.424   0.008   8.275  0.4558  0.3438 -0.1362
  148SAPE  H18R16339   2.331   0.015   8.214 -0.3578 -0.4199  0.9660
  148SAPE  H18S16340   2.411   0.036   8.382  1.8647 -1.2876  0.4931
  148SAPE  C21916341   2.440  -0.141   8.259  0.0424 -0.1961  0.4574
  148SAPE  H19R16342   2.359  -0.193   8.314 -1.8577  1.4768 -0.6059
  148SAPE  H19S16343   2.534  -0.187   8.296  0.7521  0.4774 -0.4557
  148SAPE  C22016344   2.413  -0.178   8.111 -0.0288  0.4754 -0.3954
  148SAPE  H20R16345   2.310  -0.157   8.077 -0.0043 -2.3726 -2.5708
  148SAPE  H20S16346   2.430  -0.285   8.089 -0.2224  0.6080 -1.2280
  148SAPE  H20T16347   2.481  -0.117   8.047 -1.1197 -0.0119 -2.0741
  148SAPE   C3316348   2.966   0.396   6.910  0.5021 -0.3950  0.8809
  148SAPE   H3X16349   2.899   0.470   6.863 -0.4500 -1.0034  1.2468
  148SAPE   H3Y16350   3.027   0.355   6.827 -0.7765  0.2666 -0.4167
  148SAPE   C3416351   3.053   0.467   7.011  0.4543 -0.6798  0.1261
  148SAPE   H4X16352   2.995   0.552   7.052 -1.4501 -2.2111  0.7883
  148SAPE   H4Y16353   3.138   0.511   6.955 -0.4960  1.6082  0.3847
  148SAPE   C3516354   3.108   0.372   7.118  0.0619 -0.5017 -0.0368
  148SAPE   H5X16355   3.130   0.278   7.061 -0.5075 -0.3560 -0.5046
  148SAPE   H5Y16356   3.022   0.347   7.184 -0.1638  0.1012 -0.0973
  148SAPE   C3616357   3.223   0.432   7.195 -0.3213 -0.2449  0.0696
  148SAPE   H6X16358   3.197   0.540   7.204 -2.3301 -0.4579 -2.1890
  148SAPE   H6Y16359   3.317   0.442   7.137  0.2511 -1.4086  0.7626
  148SAPE   C3716360   3.252   0.365   7.337 -0.5158 -0.3180 -0.5934
  148SAPE   H7X16361   3.358   0.383   7.363  0.4895 -0.4292 -4.0859
  148SAPE   H7Y16362   3.245   0.254   7.335 -0.1053 -0.3392 -1.5132
  148SAPE   C3816363   3.146   0.409   7.435  0.2283  0.9695  0.1877
  148SAPE   H8X16364   3.043   0.379   7.408  0.5601  1.1436 -1.3628
  148SAPE   H8Y16365   3.155   0.520   7.434  0.4135  0.9586  0.4797
  148SAPE   C3916366   3.170   0.359   7.574 -0.4453 -0.1044 -0.3333
  148SAPE   H9X16367   3.270   0.395   7.605 -0.8942 -0.2256  1.3816
  148SAPE   H9Y16368   3.158   0.249   7.579  1.3105 -0.2932  1.0304
  148SAPE  C31016369   3.071   0.412   7.671 -0.2179 -0.0207  0.1046
  148SAPE  H10X16370   2.981   0.346   7.663  0.4227 -0.8645 -0.3542
  148SAPE  H10Y16371   3.032   0.510   7.638 -0.9601 -0.9148 -1.8799
  148SAPE  C31116372   3.132   0.424   7.811  0.6905  0.4166 -0.0680
  148SAPE  H11X16373   3.214   0.499   7.802  2.7088 -1.8296 -1.7835
  148SAPE  H11Y16374   3.176   0.323   7.825  0.9248  0.5225 -0.0341
  148SAPE  C31216375   3.018   0.440   7.920 -0.0914  0.4055  0.4897
  148SAPE  H12X16376   2.949   0.353   7.914  0.5163  0.0015 -1.0824
  148SAPE  H12Y16377   2.948   0.519   7.885 -1.0784 -0.8092 -0.3850
  148SAPE  C31316378   3.063   0.463   8.064  0.1403 -0.7407 -0.0177
  148SAPE  H13X16379   3.128   0.553   8.058  1.3858 -1.7071 -2.1083
  148SAPE  H13Y16380   3.124   0.377   8.099  0.3062 -0.4780  0.3463
  148SAPE  C31416381   2.942   0.474   8.161  0.3494  0.1472  0.1191
  148SAPE  H14X16382   2.984   0.490   8.262  0.5199 -1.3889  0.3126
  148SAPE  H14Y16383   2.902   0.371   8.174 -0.4645  0.4890  0.4147
  148SAPE  C31516384   2.838   0.583   8.122 -0.2470 -0.1366 -0.1291
  148SAPE  H15X16385   2.787   0.541   8.033  0.9387 -2.8649  0.3697
  148SAPE  H15Y16386   2.894   0.677   8.099  2.8096 -1.9010 -0.4927
  148SAPE  C31616387   2.732   0.610   8.229  0.1727 -0.2198 -0.8633
  148SAPE  H16X16388   2.765   0.671   8.316  0.5574 -1.6338  0.0052
  148SAPE  H16Y16389   2.716   0.509   8.272 -1.6249  0.0273 -0.8824
  148SAPE  C31716390   2.598   0.663   8.178  0.2221 -0.3367 -0.1086
  148SAPE  H17X16391   2.517   0.645   8.252 -0.5309 -0.8605 -1.0424
  148SAPE  H17Y16392   2.576   0.588   8.100 -1.2945  1.0020 -1.0430
  148SAPE  C31816393   2.602   0.803   8.117 -0.0434  0.6322  0.3515
  148SAPE  H18X16394   2.496   0.830   8.098 -1.2097 -3.2825  0.5313
  148SAPE  H18Y16395   2.659   0.807   8.021  0.4207  1.1863  0.6463
  148SAPE  H18Z16396   2.642   0.869   8.197  0.2247 -0.9230  1.5386
  149SAPE     N16397   0.417   3.109   6.438 -0.1640  0.2653  0.6458
  149SAPE   HN116398   0.356   3.103   6.354  1.7486  3.6414 -1.1671
  149SAPE   HN216399   0.408   3.024   6.499  1.0740 -0.3848 -0.0393
  149SAPE   HN316400   0.375   3.191   6.486  1.9998  2.2637 -0.7203
  149SAPE   C1216401   0.564   3.112   6.409 -0.0898 -0.5260  0.2003
  149SAPE  H12A16402   0.586   3.189   6.332  0.1242  2.2322  2.8178
  149SAPE  H12B16403   0.588   3.011   6.369 -1.8759 -0.4580 -1.1284
  149SAPE   C1116404   0.640   3.128   6.541  0.1608  0.2207  0.6318
  149SAPE  H11A16405   0.748   3.104   6.524  0.1503  0.0551  0.7982
  149SAPE  H11B16406   0.602   3.061   6.620  0.3339  0.6144  1.0502
  149SAPE     P16407   0.684   3.402   6.555  0.0305  0.6590  0.0325
  149SAPE   O1316408   0.725   3.403   6.410 -0.2120 -0.5463 -0.2913
  149SAPE   O1416409   0.590   3.502   6.602  0.1596 -1.7495 -0.2557
  149SAPE   O1216410   0.623   3.257   6.594 -0.3455 -0.2922 -0.0590
  149SAPE   O1116411   0.812   3.413   6.637 -0.1905 -0.3672 -0.0003
  149SAPE    C116412   0.830   3.340   6.758 -0.5102 -0.1128  0.4654
  149SAPE    HA16413   0.827   3.230   6.749  1.3421 -0.3290  1.7452
  149SAPE    HB16414   0.936   3.359   6.785 -0.7842  0.0102  1.5122
  149SAPE    C216415   0.747   3.379   6.884 -0.1919 -0.5897 -0.1868
  149SAPE    HS16416   0.648   3.330   6.874 -0.6298  0.0679  0.8205
  149SAPE   O2116417   0.735   3.525   6.887 -0.0318  0.1135  0.0689
  149SAPE   C2116418   0.656   3.574   6.979 -0.0257  0.6866 -0.5448
  149SAPE   O2216419   0.584   3.506   7.053 -0.0533  0.1449  0.1510
  149SAPE   C2216420   0.685   3.725   6.993  0.2466 -0.1015  0.4161
  149SAPE   H2R16421   0.796   3.729   6.986  0.1835  2.2237 -0.1048
  149SAPE   H2S16422   0.645   3.770   6.899  1.4945  1.1138  0.4394
  149SAPE    C316423   0.813   3.310   7.010  0.6206 -0.3855 -0.0612
  149SAPE    HX16424   0.809   3.201   6.991 -1.2402 -0.3755  0.1009
  149SAPE    HY16425   0.743   3.335   7.092  0.4536  0.8011 -0.5409
  149SAPE   O3116426   0.941   3.372   7.044 -0.0332  0.3492  0.1844
  149SAPE   C3116427   1.020   3.304   7.117 -0.9008 -0.6567  1.1859
  149SAPE   O3216428   0.996   3.194   7.162 -0.2189 -0.0386  0.5999
  149SAPE   C3216429   1.150   3.391   7.135 -0.0691 -0.2065 -0.3640
  149SAPE   H2X16430   1.140   3.496   7.103 -0.3667 -0.5408 -1.4106
  149SAPE   H2Y16431   1.222   3.347   7.062  2.3938 -0.8183  2.2357
  149SAPE   C2316432   0.622   3.795   7.115  0.7943 -0.4991 -0.1378
  149SAPE   H3R16433   0.527   3.747   7.146  0.5341  0.3434  0.4032
  149SAPE   H3S16434   0.595   3.901   7.095  0.4868 -1.0581 -3.1260
  149SAPE   C2416435   0.706   3.803   7.243 -0.2482 -0.0618 -0.1958
  149SAPE   H4R16436   0.648   3.853   7.323  0.7130 -0.7165  0.9519
  149SAPE   H4S16437   0.786   3.878   7.227  0.9127 -0.4884  2.8270
  149SAPE   C2516438   0.759   3.669   7.288 -0.1266  0.0040 -0.2486
  149SAPE   H5R16439   0.809   3.609   7.211 -0.4730 -0.1438 -0.3597
  149SAPE   C2616440   0.751   3.607   7.407  0.6874 -0.2125  0.3855
  149SAPE   H6R16441   0.783   3.501   7.414 -0.6909 -0.6922 -0.2454
  149SAPE   C2716442   0.691   3.672   7.532 -0.4811 -0.8250  0.4027
  149SAPE   H7R16443   0.645   3.596   7.599 -0.6062 -1.9436 -0.9175
  149SAPE   H7S16444   0.612   3.747   7.509  0.6793 -0.6230 -3.5061
  149SAPE   C2816445   0.802   3.749   7.608  0.2294  0.8249 -0.1523
  149SAPE   H8R16446   0.826   3.846   7.561  2.1609  0.2071 -0.5222
  149SAPE   C2916447   0.888   3.697   7.700 -0.2129 -0.6958 -0.3981
  149SAPE   H9R16448   0.958   3.767   7.747 -1.6614  0.1175  0.6350
  149SAPE  C21016449   0.889   3.553   7.749 -0.0123 -0.6624 -0.2103
  149SAPE  H10R16450   0.981   3.500   7.714 -0.6506 -0.9769 -1.4640
  149SAPE  H10S16451   0.804   3.496   7.707  1.5008 -2.1755 -1.3863
  149SAPE  C21116452   0.884   3.560   7.899  0.2595 -0.6280  0.5440
  149SAPE  H11R16453   0.937   3.652   7.930  0.6396 -0.3131 -0.9702
  149SAPE  C21216454   0.807   3.493   7.989  0.0582  0.7219  0.2571
  149SAPE  H12R16455   0.832   3.514   8.094  0.4341 -0.4327  0.4118
  149SAPE  C21316456   0.712   3.384   7.962  0.3188  0.0544  0.3597
  149SAPE  H13R16457   0.763   3.301   8.015 -0.9419  0.2481  1.9744
  149SAPE  H13S16458   0.704   3.351   7.857 -1.9772 -1.8215  1.0343
  149SAPE  C21416459   0.570   3.418   8.010 -0.3954  0.4758  0.1866
  149SAPE  H14R16460   0.494   3.465   7.946 -2.1653  0.3866  2.0923
  149SAPE  C21516461   0.545   3.399   8.138  0.7927 -0.1671 -0.6415
  149SAPE  H15R16462   0.442   3.419   8.171  0.6253  0.9275 -1.7739
  149SAPE  C21616463   0.630   3.349   8.249 -0.3011  0.6613 -0.2441
  149SAPE  H16R16464   0.733   3.330   8.212 -1.1796  0.0301 -2.5620
  149SAPE  H16S16465   0.583   3.252   8.274  0.2107  0.3173 -0.5921
  149SAPE  C21716466   0.627   3.433   8.383 -0.2155 -0.7911  0.0280
  149SAPE  H17R16467   0.689   3.395   8.468  1.7481 -0.2765 -1.1052
  149SAPE  H17S16468   0.524   3.424   8.424 -0.0444 -2.5697  0.1689
  149SAPE  C21816469   0.680   3.581   8.365 -0.3727  0.7898  0.5906
  149SAPE  H18R16470   0.639   3.627   8.272  1.8337  1.6730 -0.0056
  149SAPE  H18S16471   0.789   3.578   8.343 -0.9045  0.4088 -2.3958
  149SAPE  C21916472   0.655   3.676   8.476 -0.5586 -0.3065 -0.1012
  149SAPE  H19R16473   0.677   3.629   8.574  1.8807  0.6378 -0.0988
  149SAPE  H19S16474   0.552   3.715   8.463  0.4783  1.9028 -2.8903
  149SAPE  C22016475   0.748   3.798   8.460 -0.5183 -0.6661 -0.3349
  149SAPE  H20R16476   0.709   3.865   8.380 -0.6726  3.2309  2.6675
  149SAPE  H20S16477   0.852   3.767   8.435 -0.6117  0.2138 -1.9416
  149SAPE  H20T16478   0.749   3.859   8.553 -0.4753 -0.7007 -0.3132
  149SAPE   C3316479   1.210   3.373   7.280  0.4025  0.8478  0.7044
  149SAPE   H3X16480   1.320   3.391   7.281  0.5728  0.2159 -1.5987
  149SAPE   H3Y16481   1.192   3.270   7.317  1.1651  1.0797  1.7788
  149SAPE   C3416482   1.144   3.454   7.388  0.0774  0.0858 -0.4760
  149SAPE   H4X16483   1.035   3.439   7.371  0.2117 -3.0222  0.7570
  149SAPE   H4Y16484   1.154   3.563   7.366  0.0350 -0.0937 -1.4053
  149SAPE   C3516485   1.196   3.437   7.533 -0.2930  0.0857 -0.2683
  149SAPE   H5X16486   1.158   3.525   7.589 -2.7021 -1.3937  0.5760
  149SAPE   H5Y16487   1.306   3.451   7.538 -0.1469 -0.4123 -1.5527
  149SAPE   C3616488   1.166   3.304   7.606 -0.1610  0.9284  0.4565
  149SAPE   H6X16489   1.241   3.228   7.577  0.0938  1.0084  0.8910
  149SAPE   H6Y16490   1.071   3.258   7.573  1.4828 -1.3060 -1.4576
  149SAPE   C3716491   1.175   3.305   7.763 -0.3971  0.6278  0.4825
  149SAPE   H7X16492   1.177   3.197   7.788 -0.6728  0.7377  0.9984
  149SAPE   H7Y16493   1.078   3.343   7.803 -1.0783  0.1205 -0.6458
  149SAPE   C3816494   1.300   3.378   7.831 -0.2007 -0.4114  0.1543
  149SAPE   H8X16495   1.296   3.489   7.824  1.2592 -0.4085 -1.0340
  149SAPE   H8Y16496   1.387   3.346   7.769 -0.3321  0.1645 -0.3468
  149SAPE   C3916497   1.332   3.333   7.973 -0.1763 -0.5418  0.1841
  149SAPE   H9X16498   1.431   3.372   8.003 -0.9128  0.1339  1.8937
  149SAPE   H9Y16499   1.344   3.223   7.967 -0.6749 -0.5306 -1.9956
  149SAPE  C31016500   1.221   3.382   8.073 -0.2372 -0.4797 -0.6521
  149SAPE  H10X16501   1.116   3.355   8.045 -0.6055 -1.0409  1.1532
  149SAPE  H10Y16502   1.237   3.491   8.087 -2.1536 -0.3608  1.0227
  149SAPE  C31116503   1.248   3.332   8.220  0.3581 -0.5191  0.1489
  149SAPE  H11X16504   1.347   3.365   8.257  0.3520  0.2570 -0.5023
  149SAPE  H11Y16505   1.231   3.222   8.221 -2.9217 -0.1159 -0.1909
  149SAPE  C31216506   1.143   3.393   8.309  0.2972 -0.2827 -0.4091
  149SAPE  H12X16507   1.043   3.396   8.261  1.3292 -0.2701 -2.6653
  149SAPE  H12Y16508   1.172   3.499   8.326  2.6792 -0.8107 -0.7533
  149SAPE  C31316509   1.125   3.307   8.438  0.5246  0.0811  0.3499
  149SAPE  H13X16510   1.220   3.309   8.495 -0.2273  0.0216  1.6253
  149SAPE  H13Y16511   1.107   3.205   8.398  3.0385 -0.3751  0.1619
  149SAPE  C31416512   1.009   3.366   8.524 -1.0887  0.1382 -0.2353
  149SAPE  H14X16513   1.019   3.320   8.625  0.2137  0.5221 -0.1755
  149SAPE  H14Y16514   0.909   3.338   8.486  0.2573 -0.7759 -3.3565
  149SAPE  C31516515   1.025   3.514   8.542 -0.0586 -0.3607  0.2706
  149SAPE  H15X16516   1.006   3.566   8.446 -0.7727  0.0776  0.6379
  149SAPE  H15Y16517   1.131   3.537   8.565  0.6052 -0.9893 -2.0097
  149SAPE  C31616518   0.944   3.563   8.661 -0.4741  0.4655  0.3049
  149SAPE  H16X16519   0.860   3.492   8.672  0.5064 -0.5457  1.5987
  149SAPE  H16Y16520   0.901   3.663   8.637 -0.1592  0.5593  0.1263
  149SAPE  C31716521   1.021   3.568   8.791  0.1809  0.1758  0.0879
  149SAPE  H17X16522   1.094   3.652   8.790  1.5585 -0.9993  0.3529
  149SAPE  H17Y16523   1.070   3.469   8.800 -2.4840 -1.2284  0.0161
  149SAPE  C31816524   0.939   3.572   8.923  0.3658 -0.3453  0.1084
  149SAPE  H18X16525   0.894   3.472   8.937 -2.3538  0.3320 -2.6275
  149SAPE  H18Y16526   0.855   3.645   8.913  1.2016  1.1011  2.6798
  149SAPE  H18Z16527   1.000   3.615   9.006  3.3250 -1.2439 -1.4796
  150SAPE     N16528   3.350   6.637   6.382  0.0212 -0.3487  0.3889
  150SAPE   HN116529   3.312   6.732   6.366  3.1237  0.9225  0.0438
  150SAPE   HN216530   3.450   6.633   6.356  0.6472 -1.0000  2.6672
  150SAPE   HN316531   3.297   6.569   6.323  0.6219  1.0739 -1.9137
  150SAPE   C1216532   3.356   6.614   6.536  0.0292  0.3925 -0.0978
  150SAPE  H12A16533   3.414   6.700   6.574 -1.0640  1.7995 -1.5143
  150SAPE  H12B16534   3.411   6.518   6.546 -1.5455 -0.4987  0.3363
  150SAPE   C1116535   3.224   6.612   6.606  0.4545 -0.1277  0.7298
  150SAPE  H11A16536   3.173   6.710   6.619  3.2877  1.4297  0.8433
  150SAPE  H11B16537   3.257   6.584   6.708  0.7855 -1.5864  0.2562
  150SAPE     P16538   3.003   6.539   6.483 -0.0193  0.4123  0.3238
  150SAPE   O1316539   3.020   6.636   6.375  0.0295 -0.1984 -0.0203
  150SAPE   O1416540   2.943   6.409   6.434 -0.1803 -0.5084 -0.2722
  150SAPE   O1216541   3.141   6.505   6.555  0.0597  0.9346 -0.2825
  150SAPE   O1116542   2.920   6.596   6.609 -0.0736 -0.7044  0.3805
  150SAPE    C116543   2.901   6.511   6.723 -0.4172 -0.5018 -0.4018
  150SAPE    HA16544   2.793   6.487   6.724 -0.5422 -0.1245 -1.8621
  150SAPE    HB16545   2.950   6.411   6.713 -4.0776 -2.4465 -0.4606
  150SAPE    C216546   2.950   6.575   6.854  0.1588 -0.0108  0.1781
  150SAPE    HS16547   3.040   6.637   6.835 -1.3335  1.6891 -1.8140
  150SAPE   O2116548   2.972   6.481   6.954 -0.3551 -0.2783 -0.3134
  150SAPE   C2116549   3.100   6.433   6.969 -0.5663  0.0732 -0.0028
  150SAPE   O2216550   3.194   6.464   6.900  0.1972 -0.9844  0.4155
  150SAPE   C2216551   3.093   6.324   7.073  0.2236  0.3883  0.4227
  150SAPE   H2R16552   2.987   6.304   7.099  0.2901  0.4052  0.7156
  150SAPE   H2S16553   3.143   6.238   7.024  0.3654  1.2695 -1.0264
  150SAPE    C316554   2.843   6.679   6.915  0.7975  0.8428  0.3123
  150SAPE    HX16555   2.759   6.616   6.952  1.5205  0.4088  1.2642
  150SAPE    HY16556   2.817   6.746   6.830 -2.2816 -1.7606 -0.9825
  150SAPE   O3116557   2.913   6.754   7.018  0.1704 -0.4813  0.6610
  150SAPE   C3116558   2.864   6.748   7.146 -0.2747 -0.0769  0.2332
  150SAPE   O3216559   2.763   6.689   7.182  0.0637 -0.5769 -0.2141
  150SAPE   C3216560   2.962   6.838   7.234 -0.3552 -0.2187 -0.0909
  150SAPE   H2X16561   3.046   6.868   7.168 -1.3393  0.5564 -1.0176
  150SAPE   H2Y16562   2.998   6.771   7.315  2.8831  1.6184  0.1581
  150SAPE   C2316563   3.171   6.353   7.204  0.3858 -0.5547  0.7874
  150SAPE   H3R16564   3.261   6.408   7.169  0.2474 -0.4874  0.5386
  150SAPE   H3S16565   3.205   6.256   7.247 -1.3185 -0.7311  1.8203
  150SAPE   C2416566   3.097   6.444   7.301  0.1447 -0.2219  0.2534
  150SAPE   H4R16567   3.020   6.383   7.353  0.5265 -1.5778 -0.7127
  150SAPE   H4S16568   3.038   6.519   7.245 -1.5779 -0.6822  1.4019
  150SAPE   C2516569   3.194   6.505   7.399  0.1938 -0.3076  0.1148
  150SAPE   H5R16570   3.278   6.563   7.358 -0.2133  0.4488  0.3317
  150SAPE   C2616571   3.196   6.477   7.530  0.9125  0.7087  0.6151
  150SAPE   H6R16572   3.281   6.507   7.594  0.7851 -3.3108  3.0384
  150SAPE   C2716573   3.118   6.383   7.607  0.6167  0.4599  0.7634
  150SAPE   H7R16574   3.026   6.367   7.546  0.4155 -1.7359  1.5687
  150SAPE   H7S16575   3.084   6.436   7.698 -0.6269 -2.6441  2.2669
  150SAPE   C2816576   3.177   6.248   7.650  0.3912  0.9222  0.3166
  150SAPE   H8R16577   3.231   6.196   7.570 -1.9878  0.2893 -0.9814
  150SAPE   C2916578   3.175   6.211   7.784  0.2839 -0.0446 -0.7742
  150SAPE   H9R16579   3.224   6.116   7.810 -0.3324 -0.2020 -0.1617
  150SAPE  C21016580   3.118   6.289   7.902 -0.1009 -0.6131 -0.1631
  150SAPE  H10R16581   3.008   6.275   7.904 -0.3394  0.7834  2.9894
  150SAPE  H10S16582   3.137   6.398   7.895 -0.7990 -0.3531  1.4578
  150SAPE  C21116583   3.168   6.254   8.039  0.4349  0.5197 -0.7228
  150SAPE  H11R16584   3.276   6.242   8.052 -0.0190 -1.7297  2.2810
  150SAPE  C21216585   3.098   6.224   8.152  0.3768 -0.1607 -0.3279
  150SAPE  H12R16586   3.150   6.217   8.249  1.0673 -0.0196 -0.6845
  150SAPE  C21316587   2.948   6.237   8.164  0.0630  0.9273 -0.0736
  150SAPE  H13R16588   2.897   6.139   8.154  1.2640  0.2890 -0.1086
  150SAPE  H13S16589   2.904   6.291   8.077 -1.4069 -0.4539 -0.2334
  150SAPE  C21416590   2.907   6.302   8.295  0.2420  0.7958  0.1426
  150SAPE  H14R16591   2.885   6.409   8.291  2.1092  1.2614  1.0255
  150SAPE  C21516592   2.890   6.242   8.420 -0.2591 -0.6088  0.8812
  150SAPE  H15R16593   2.838   6.297   8.500 -2.0377 -0.6905 -0.1650
  150SAPE  C21616594   2.904   6.093   8.442  0.3313  0.3067 -0.2457
  150SAPE  H16R16595   2.977   6.076   8.524  0.8950 -2.4186 -1.1971
  150SAPE  H16S16596   2.950   6.044   8.353 -1.4902 -0.0070 -1.0540
  150SAPE  C21716597   2.761   6.036   8.477 -0.4967  0.3564  0.5076
  150SAPE  H17R16598   2.697   6.070   8.392 -0.1769  2.9229  1.2136
  150SAPE  H17S16599   2.741   6.078   8.578  3.2790 -1.5842  2.2690
  150SAPE  C21816600   2.756   5.884   8.480  0.3751 -0.4454  0.9468
  150SAPE  H18R16601   2.841   5.855   8.414  0.0699  1.9620 -0.6287
  150SAPE  H18S16602   2.672   5.847   8.417 -0.1869  0.0545  1.3897
  150SAPE  C21916603   2.773   5.831   8.618 -0.2889 -0.5027 -0.3457
  150SAPE  H19R16604   2.689   5.877   8.675 -0.8735  1.3858 -2.5813
  150SAPE  H19S16605   2.868   5.869   8.661 -1.6598  1.6711  0.9890
  150SAPE  C22016606   2.775   5.682   8.625  0.0221 -0.0518  0.3197
  150SAPE  H20R16607   2.753   5.641   8.726 -0.2096  0.5119  0.5006
  150SAPE  H20S16608   2.880   5.651   8.610  0.5129  0.7955  1.8390
  150SAPE  H20T16609   2.700   5.635   8.557 -1.4081  0.3298  1.5806
  150SAPE   C3316610   2.894   6.954   7.306  0.1510  0.2207 -0.5905
  150SAPE   H3X16611   2.849   7.026   7.236 -2.8705 -1.2725 -0.3152
  150SAPE   H3Y16612   2.975   7.003   7.365  0.1863 -1.0496  0.4772
  150SAPE   C3416613   2.782   6.915   7.401  0.2096 -0.2191  0.0924
  150SAPE   H4X16614   2.717   6.869   7.323  0.6643  1.6490 -1.4666
  150SAPE   H4Y16615   2.722   6.999   7.441 -0.5444 -1.3757  1.4951
  150SAPE   C3516616   2.828   6.813   7.504 -0.6624 -0.6228  0.2167
  150SAPE   H5X16617   2.852   6.721   7.445 -0.0849  1.2754 -2.7006
  150SAPE   H5Y16618   2.741   6.792   7.570 -0.7165 -0.6395  0.1412
  150SAPE   C3616619   2.950   6.855   7.587  0.2331  0.1373 -0.3851
  150SAPE   H6X16620   2.925   6.939   7.655 -1.0471  0.4282 -1.1941
  150SAPE   H6Y16621   3.039   6.885   7.528 -1.6459 -0.3871 -3.7360
  150SAPE   C3716622   2.987   6.741   7.692  0.0602 -0.5951 -0.6329
  150SAPE   H7X16623   3.088   6.762   7.734 -0.1438 -0.7682 -0.0342
  150SAPE   H7Y16624   2.988   6.644   7.638  0.9760 -1.0615  0.1901
  150SAPE   C3816625   2.882   6.726   7.807  0.3379  0.2620 -0.0550
  150SAPE   H8X16626   2.901   6.627   7.853  0.9373  0.3583 -0.0866
  150SAPE   H8Y16627   2.776   6.725   7.774  0.5034 -0.3504 -0.5775
  150SAPE   C3916628   2.897   6.838   7.910 -0.0039 -0.5979 -0.0515
  150SAPE   H9X16629   2.840   6.919   7.859  2.9192  2.2038  0.8194
  150SAPE   H9Y16630   3.001   6.875   7.919  0.2453 -1.0720 -0.8514
  150SAPE  C31016631   2.837   6.791   8.047  0.2717 -0.1343 -0.2233
  150SAPE  H10X16632   2.757   6.719   8.021  1.9233 -1.3246 -2.1842
  150SAPE  H10Y16633   2.794   6.878   8.102  1.0272 -1.3443  2.4514
  150SAPE  C31116634   2.921   6.733   8.158  0.1134  0.4778 -0.0361
  150SAPE  H11X16635   2.960   6.637   8.119 -1.1849  1.0461 -2.9805
  150SAPE  H11Y16636   2.859   6.720   8.249 -3.3702  0.8368 -2.1954
  150SAPE  C31216637   3.037   6.822   8.197 -0.3721  0.2509 -0.2818
  150SAPE  H12X16638   2.991   6.903   8.258 -1.6497  0.0086 -0.8963
  150SAPE  H12Y16639   3.082   6.864   8.105 -0.8229  0.0707 -0.5878
  150SAPE  C31316640   3.144   6.772   8.295 -0.2244 -0.3269 -1.2461
  150SAPE  H13X16641   3.098   6.745   8.392 -1.7858  1.5398 -1.4092
  150SAPE  H13Y16642   3.212   6.858   8.309 -2.5361  1.4811 -0.5486
  150SAPE  C31416643   3.224   6.655   8.252 -0.1108  0.2221 -0.6016
  150SAPE  H14X16644   3.155   6.587   8.198  1.4608 -0.8479 -1.3243
  150SAPE  H14Y16645   3.256   6.599   8.342 -0.9276  1.3565  0.4313
  150SAPE  C31516646   3.341   6.673   8.154  0.3383 -0.6029 -0.0535
  150SAPE  H15X16647   3.406   6.583   8.160  0.0726 -0.7345  1.0051
  150SAPE  H15Y16648   3.411   6.754   8.183 -0.8483  0.4161  0.0228
  150SAPE  C31616649   3.297   6.701   8.003  0.0700  0.5678  0.0610
  150SAPE  H16X16650   3.226   6.786   8.008 -1.6782 -0.8357  0.1353
  150SAPE  H16Y16651   3.241   6.609   7.974 -0.9362  0.6355  1.6597
  150SAPE  C31716652   3.414   6.723   7.913  0.1753 -0.5223  0.1608
  150SAPE  H17X16653   3.461   6.626   7.884 -0.0732  0.1848 -3.0145
  150SAPE  H17Y16654   3.491   6.785   7.963  0.0646  0.7006 -1.1276
  150SAPE  C31816655   3.393   6.794   7.776 -0.0590  0.3047 -0.4489
  150SAPE  H18X16656   3.371   6.903   7.787 -2.1506  0.0781 -1.7756
  150SAPE  H18Y16657   3.316   6.739   7.718  0.1020  0.9732 -1.3238
  150SAPE  H18Z16658   3.486   6.779   7.717  0.6307 -1.7635  1.0566
  151SAPE     N16659   5.045   5.177   6.224 -0.5714  0.1193 -0.6567
  151SAPE   HN116660   5.005   5.088   6.188 -1.9371  0.4442  0.0111
  151SAPE   HN216661   5.050   5.244   6.145  0.7384 -1.1096 -1.6579
  151SAPE   HN316662   5.143   5.160   6.255 -1.1955 -0.3396  1.1754
  151SAPE   C1216663   4.960   5.228   6.335  0.0931  0.7315  0.4001
  151SAPE  H12A16664   5.006   5.325   6.363 -0.2884  0.6566  1.3149
  151SAPE  H12B16665   4.965   5.159   6.422  0.1665 -0.4638 -0.5219
  151SAPE   C1116666   4.813   5.229   6.292  0.8706  0.2284  0.4527
  151SAPE  H11A16667   4.805   5.306   6.212 -1.5615 -0.3422  0.0710
  151SAPE  H11B16668   4.751   5.263   6.378 -1.1422  0.3547 -0.9597
  151SAPE     P16669   4.627   5.044   6.266 -0.3038  0.0956  0.3025
  151SAPE   O1316670   4.525   5.147   6.242 -0.2853 -0.5465 -0.2509
  151SAPE   O1416671   4.607   4.917   6.187  0.1261 -0.3905 -0.5857
  151SAPE   O1216672   4.768   5.102   6.230  0.2724 -0.2402  0.3933
  151SAPE   O1116673   4.625   5.013   6.418  0.2957 -0.5641 -0.1723
  151SAPE    C116674   4.732   4.925   6.462  0.6699  0.3309 -0.6119
  151SAPE    HA16675   4.716   4.822   6.423  1.9648 -0.0346 -0.2164
  151SAPE    HB16676   4.830   4.950   6.417  0.9523  1.8112  0.7625
  151SAPE    C216677   4.754   4.917   6.617  0.7459 -0.6383  0.6229
  151SAPE    HS16678   4.836   4.843   6.630  0.3394 -0.9126  1.6696
  151SAPE   O2116679   4.635   4.869   6.684 -0.3223 -0.5165  0.6313
  151SAPE   C2116680   4.633   4.735   6.685 -0.4413 -0.4711 -0.3838
  151SAPE   O2216681   4.719   4.663   6.638 -0.3258 -0.6302 -0.1009
  151SAPE   C2216682   4.519   4.687   6.773  0.3886 -0.3469  0.0574
  151SAPE   H2R16683   4.520   4.748   6.865  0.0814  2.8934 -1.9257
  151SAPE   H2S16684   4.424   4.719   6.726  0.5574 -0.4977 -0.3926
  151SAPE    C316685   4.791   5.060   6.661  0.1467  1.0523  0.2456
  151SAPE    HX16686   4.698   5.121   6.661 -0.5733 -0.0045 -0.4484
  151SAPE    HY16687   4.856   5.108   6.585 -1.1854  1.0675 -0.9251
  151SAPE   O3116688   4.863   5.055   6.791  0.0504 -0.2456  0.7195
  151SAPE   C3116689   4.782   5.057   6.888  0.1093  0.1503  0.2427
  151SAPE   O3216690   4.661   5.082   6.894 -0.4437  0.0522  0.1709
  151SAPE   C3216691   4.868   5.029   7.014  0.0513  1.0792  0.1146
  151SAPE   H2X16692   4.939   4.944   6.998 -0.4852  0.3384  1.4410
  151SAPE   H2Y16693   4.800   4.982   7.088 -1.1752  1.1862 -0.9261
  151SAPE   C2316694   4.511   4.536   6.806 -0.4517  0.0801 -0.5672
  151SAPE   H3R16695   4.612   4.492   6.822  0.8001  3.0092  0.3672
  151SAPE   H3S16696   4.487   4.482   6.712 -0.0617  0.9984 -1.2114
  151SAPE   C2416697   4.409   4.509   6.924 -0.8788 -0.0382 -0.4025
  151SAPE   H4R16698   4.366   4.410   6.898 -1.9828  0.6256 -1.1783
  151SAPE   H4S16699   4.338   4.594   6.921  0.1326  0.8051 -3.1051
  151SAPE   C2516700   4.473   4.503   7.059  0.4139 -0.1045 -0.5199
  151SAPE   H5R16701   4.506   4.400   7.079 -1.7844 -0.5852  0.9864
  151SAPE   C2616702   4.484   4.609   7.150  0.9419  0.1514 -0.2795
  151SAPE   H6R16703   4.548   4.596   7.239  0.3668  0.2670  0.1530
  151SAPE   C2716704   4.434   4.748   7.136  0.2422  0.2120  0.1816
  151SAPE   H7R16705   4.324   4.749   7.143 -0.0392 -0.9723 -2.6165
  151SAPE   H7S16706   4.454   4.798   7.038  1.1297  0.1219  0.3098
  151SAPE   C2816707   4.492   4.838   7.242  0.8848  0.6862  0.8606
  151SAPE   H8R16708   4.550   4.927   7.214  2.2909 -0.0650  1.2847
  151SAPE   C2916709   4.477   4.820   7.371 -0.4018 -0.1152 -0.0850
  151SAPE   H9R16710   4.527   4.894   7.436  0.0477 -0.6024  0.1277
  151SAPE  C21016711   4.402   4.705   7.436 -0.2445 -0.2383 -0.2776
  151SAPE  H10R16712   4.478   4.635   7.477  1.9789  1.0664 -1.9352
  151SAPE  H10S16713   4.353   4.637   7.363  0.8311 -3.9092  2.1129
  151SAPE  C21116714   4.290   4.757   7.525 -0.0447  0.0646  0.6703
  151SAPE  H11R16715   4.223   4.833   7.484 -0.6784 -1.3127 -0.9642
  151SAPE  C21216716   4.282   4.714   7.653  0.3564 -0.9813  0.0822
  151SAPE  H12R16717   4.209   4.769   7.716  0.1061  0.3913 -1.3443
  151SAPE  C21316718   4.375   4.614   7.727  0.0259 -0.3998 -0.4202
  151SAPE  H13R16719   4.437   4.546   7.665  0.4212  0.1211 -0.6042
  151SAPE  H13S16720   4.324   4.540   7.793 -0.5795 -1.0030 -1.5392
  151SAPE  C21416721   4.468   4.697   7.814 -0.4568 -0.5023 -0.4736
  151SAPE  H14R16722   4.569   4.709   7.773  1.2775  0.0021  3.5339
  151SAPE  C21516723   4.449   4.741   7.939  0.0583 -0.7448 -0.7686
  151SAPE  H15R16724   4.525   4.809   7.981 -3.1730  1.5360  1.9197
  151SAPE  C21616725   4.332   4.730   8.028  0.1668 -0.7054  0.4789
  151SAPE  H16R16726   4.352   4.683   8.126 -2.0768 -2.4546  0.1799
  151SAPE  H16S16727   4.254   4.680   7.968 -1.7862  1.4517  1.0527
  151SAPE  C21716728   4.275   4.876   8.063 -0.1433 -0.9570  0.8711
  151SAPE  H17R16729   4.174   4.862   8.108 -0.6845  0.9228  0.3027
  151SAPE  H17S16730   4.267   4.927   7.965 -0.8887 -0.9964  0.9079
  151SAPE  C21816731   4.365   4.959   8.157 -0.0677  0.6028 -0.1017
  151SAPE  H18R16732   4.324   5.062   8.158  1.2795  1.1707 -0.5052
  151SAPE  H18S16733   4.472   4.972   8.131 -0.1582 -0.9494 -1.4017
  151SAPE  C21916734   4.357   4.905   8.298  0.3551 -0.1104  0.4266
  151SAPE  H19R16735   4.385   4.797   8.298  0.3448 -0.1126  0.5761
  151SAPE  H19S16736   4.254   4.931   8.330  0.4263  3.8518 -1.9647
  151SAPE  C22016737   4.458   4.974   8.392 -0.2799 -0.0910  0.0943
  151SAPE  H20R16738   4.448   4.935   8.496  2.7515  0.6590  0.7560
  151SAPE  H20S16739   4.561   4.956   8.356 -1.5250 -1.3232 -3.2481
  151SAPE  H20T16740   4.436   5.083   8.393  0.8750  0.1594 -0.1629
  151SAPE   C3316741   4.942   5.149   7.057 -0.3734 -0.3146 -0.3058
  151SAPE   H3X16742   4.869   5.232   7.058  0.3185  0.3157  1.2310
  151SAPE   H3Y16743   5.019   5.163   6.977  1.1832 -1.3012  0.9456
  151SAPE   C3416744   5.012   5.127   7.192 -0.4518 -0.8104  0.0133
  151SAPE   H4X16745   5.073   5.036   7.178  1.2807  0.3132  0.0192
  151SAPE   H4Y16746   4.940   5.111   7.275 -0.6255  1.8367  0.4543
  151SAPE   C3516747   5.108   5.240   7.230  0.3551  0.3528 -0.1772
  151SAPE   H5X16748   5.048   5.331   7.213 -0.2831 -0.1358 -0.5828
  151SAPE   H5Y16749   5.201   5.241   7.169 -0.3207  0.3366 -1.2285
  151SAPE   C3616750   5.143   5.250   7.378  0.8154  0.1528 -0.5502
  151SAPE   H6X16751   5.050   5.279   7.431  0.4620  1.4343 -1.8095
  151SAPE   H6Y16752   5.220   5.327   7.401  0.1769  0.1161  2.0225
  151SAPE   C3716753   5.208   5.127   7.445  0.7571  0.2804 -0.8643
  151SAPE   H7X16754   5.302   5.099   7.392  0.3543 -0.0424 -1.4089
  151SAPE   H7Y16755   5.138   5.043   7.428  0.9086  0.2863 -1.5525
  151SAPE   C3816756   5.234   5.155   7.594 -0.3131 -0.0516 -0.8074
  151SAPE   H8X16757   5.141   5.198   7.636  0.5020  2.1544 -1.1229
  151SAPE   H8Y16758   5.309   5.237   7.594  1.3257 -1.4747  0.7400
  151SAPE   C3916759   5.296   5.038   7.675  0.0617 -0.3397  0.4721
  151SAPE   H9X16760   5.381   4.996   7.618  1.9008  2.2507  1.1168
  151SAPE   H9Y16761   5.216   4.961   7.680 -0.4610  0.1587  0.0384
  151SAPE  C31016762   5.328   5.074   7.819  0.2054  0.1231 -0.7164
  151SAPE  H10X16763   5.235   5.126   7.852  0.5636  0.5989 -0.4427
  151SAPE  H10Y16764   5.404   5.155   7.811 -1.3479  1.6075 -1.0251
  151SAPE  C31116765   5.361   4.957   7.911  0.8142 -0.0743 -0.6270
  151SAPE  H11X16766   5.386   4.876   7.840 -1.3586 -2.1299  0.7854
  151SAPE  H11Y16767   5.266   4.922   7.958  0.0001 -0.3611 -2.4207
  151SAPE  C31216768   5.470   4.982   8.015  0.1717  0.0938 -0.6975
  151SAPE  H12X16769   5.534   5.070   7.989 -0.5028  0.4315 -1.2378
  151SAPE  H12Y16770   5.539   4.895   8.014 -2.0353 -1.7206 -0.8346
  151SAPE  C31316771   5.427   5.011   8.160  0.4243 -0.9859  0.4007
  151SAPE  H13X16772   5.374   4.921   8.198  2.7331 -2.3114  0.6910
  151SAPE  H13Y16773   5.359   5.098   8.154  1.2399 -0.2663  1.2346
  151SAPE  C31416774   5.531   5.056   8.255 -0.5604 -0.1493  0.3680
  151SAPE  H14X16775   5.575   5.144   8.203 -2.0221 -0.0309 -0.7325
  151SAPE  H14Y16776   5.607   4.976   8.268 -0.0421 -0.1231 -2.0366
  151SAPE  C31516777   5.487   5.112   8.393  0.2436 -0.5538 -0.5106
  151SAPE  H15X16778   5.380   5.142   8.392  0.4852  0.6388  2.0675
  151SAPE  H15Y16779   5.556   5.194   8.421 -0.3598  0.3603 -1.6409
  151SAPE  C31616780   5.496   5.003   8.513 -0.0235  0.2262 -0.1567
  151SAPE  H16X16781   5.477   5.056   8.609  1.3412 -0.1969  0.3705
  151SAPE  H16Y16782   5.596   4.958   8.528 -0.1772  0.4659  1.9106
  151SAPE  C31716783   5.394   4.893   8.495  0.8561  0.2137 -0.2979
  151SAPE  H17X16784   5.418   4.834   8.404  3.0428  0.6864 -0.0927
  151SAPE  H17Y16785   5.291   4.933   8.483  0.5566  0.2079  1.8917
  151SAPE  C31816786   5.382   4.804   8.616 -0.9094  0.8900  0.5566
  151SAPE  H18X16787   5.334   4.862   8.698 -2.3411  0.4472  0.0606
  151SAPE  H18Y16788   5.486   4.774   8.637 -0.2876  1.5947 -1.2964
  151SAPE  H18Z16789   5.331   4.706   8.608  1.6577 -0.4082 -1.0024
  152SAPE     N16790   0.720   6.528   6.293 -0.5388 -0.0936  0.5826
  152SAPE   HN116791   0.667   6.540   6.204  1.4011  0.2292 -0.5834
  152SAPE   HN216792   0.739   6.629   6.307 -0.8635  0.2397 -1.1455
  152SAPE   HN316793   0.813   6.495   6.259  0.0406  1.4986  0.5239
  152SAPE   C1216794   0.647   6.453   6.402 -0.0408 -0.0223 -1.0070
  152SAPE  H12A16795   0.569   6.522   6.442 -0.4809 -0.3755 -1.2442
  152SAPE  H12B16796   0.715   6.426   6.485 -0.4363 -1.9700 -1.2876
  152SAPE   C1116797   0.579   6.325   6.347  0.2947 -0.3747  0.0280
  152SAPE  H11A16798   0.530   6.258   6.421  1.0340 -1.9347 -0.8293
  152SAPE  H11B16799   0.658   6.252   6.319 -0.4591 -1.2664  0.1820
  152SAPE     P16800   0.355   6.417   6.259 -0.4585  0.1014 -0.1677
  152SAPE   O1316801   0.365   6.557   6.309  1.0361  0.6734 -0.1842
  152SAPE   O1416802   0.266   6.396   6.142  0.4558 -0.0630 -0.3831
  152SAPE   O1216803   0.497   6.349   6.237  0.1257 -0.1546  0.5499
  152SAPE   O1116804   0.303   6.334   6.380  0.4383 -0.0131 -0.7663
  152SAPE    C116805   0.253   6.200   6.377 -0.2116 -0.0994 -0.7094
  152SAPE    HA16806   0.169   6.194   6.305 -0.4351 -1.2455 -0.3621
  152SAPE    HB16807   0.338   6.130   6.361  0.0920  0.5614 -2.1125
  152SAPE    C216808   0.189   6.150   6.514 -0.6385 -0.1129 -0.0192
  152SAPE    HS16809   0.188   6.039   6.510 -0.7565 -0.0786 -2.0793
  152SAPE   O2116810   0.058   6.205   6.533 -0.1211 -0.1592  0.1854
  152SAPE   C2116811  -0.036   6.128   6.588  0.6211  0.4518 -0.4198
  152SAPE   O2216812  -0.019   6.016   6.636 -0.4377 -0.1420  0.1050
  152SAPE   C2216813  -0.169   6.206   6.592 -0.1222 -0.4657  0.6669
  152SAPE   H2R16814  -0.152   6.316   6.582  1.5240 -0.6254  1.3259
  152SAPE   H2S16815  -0.232   6.165   6.510  1.3891  0.1686 -0.8712
  152SAPE    C316816   0.274   6.195   6.634  0.4578 -0.0658 -0.3678
  152SAPE    HX16817   0.264   6.306   6.642 -1.5345 -0.2752  0.5295
  152SAPE    HY16818   0.381   6.166   6.620  0.3408 -0.9224  0.4343
  152SAPE   O3116819   0.220   6.138   6.756 -0.0454 -0.3995 -0.1212
  152SAPE   C3116820   0.251   6.015   6.777 -0.2978 -0.1926 -0.0617
  152SAPE   O3216821   0.333   5.946   6.713 -0.3712  0.6433 -0.1527
  152SAPE   C3216822   0.193   5.976   6.915 -0.0686 -0.3901  0.7121
  152SAPE   H2X16823   0.082   5.984   6.905 -0.0235 -1.5813 -1.3158
  152SAPE   H2Y16824   0.228   6.051   6.989 -0.3693 -0.9111  1.3915
  152SAPE   C2316825  -0.244   6.183   6.730 -0.3974 -0.4269 -0.1283
  152SAPE   H3R16826  -0.223   6.079   6.761  1.6903 -0.3856 -1.1919
  152SAPE   H3S16827  -0.351   6.215   6.727 -0.7542 -1.3020  1.7760
  152SAPE   C2416828  -0.186   6.273   6.841 -1.1252 -0.2497  0.3627
  152SAPE   H4R16829  -0.187   6.382   6.818  0.4055 -0.7308 -2.4306
  152SAPE   H4S16830  -0.076   6.258   6.841 -0.8491  1.1496 -2.3022
  152SAPE   C2516831  -0.254   6.240   6.972 -0.0371 -0.2726  0.6243
  152SAPE   H5R16832  -0.354   6.285   6.975 -0.0120 -0.2663  1.4710
  152SAPE   C2616833  -0.205   6.189   7.087 -0.1909  0.2618 -0.2407
  152SAPE   H6R16834  -0.275   6.177   7.171 -1.8139 -1.1691 -1.7106
  152SAPE   C2716835  -0.069   6.142   7.102 -1.4665 -0.4125 -0.7171
  152SAPE   H7R16836  -0.019   6.154   7.003  1.2290 -0.5550  0.5436
  152SAPE   H7S16837  -0.066   6.031   7.103  1.5450 -0.4139  0.7206
  152SAPE   C2816838   0.025   6.207   7.212 -0.0848 -0.4972 -0.1869
  152SAPE   H8R16839   0.107   6.274   7.183 -0.7220  1.2675  1.7619
  152SAPE   C2916840  -0.005   6.183   7.342 -0.3346  0.1379 -0.0652
  152SAPE   H9R16841   0.059   6.239   7.412  0.9979 -1.0766 -0.2606
  152SAPE  C21016842  -0.105   6.085   7.402 -0.5408 -0.0344 -0.1671
  152SAPE  H10R16843  -0.050   6.025   7.477  1.6403  1.0631 -0.8190
  152SAPE  H10S16844  -0.148   6.012   7.330  1.9095 -3.0231  1.1862
  152SAPE  C21116845  -0.216   6.165   7.471 -0.2017  0.7514  0.2188
  152SAPE  H11R16846  -0.315   6.151   7.425 -0.6673 -0.0182  1.3869
  152SAPE  C21216847  -0.208   6.232   7.587  0.3124  0.5697  0.2771
  152SAPE  H12R16848  -0.293   6.282   7.635  0.6213  1.1277  0.2525
  152SAPE  C21316849  -0.079   6.236   7.670  0.2684  0.1044  0.3618
  152SAPE  H13R16850   0.000   6.168   7.631 -1.2399 -1.5397  0.0180
  152SAPE  H13S16851  -0.120   6.207   7.769 -2.3498 -1.8478 -1.1604
  152SAPE  C21416852  -0.011   6.371   7.666  0.9231  0.3538 -0.3593
  152SAPE  H14R16853  -0.034   6.439   7.582 -0.3924 -0.9355 -1.0852
  152SAPE  C21516854   0.072   6.421   7.762  0.3995 -0.3121 -0.0703
  152SAPE  H15R16855   0.121   6.517   7.739 -1.3357  1.0732  1.7217
  152SAPE  C21616856   0.106   6.349   7.888  0.1175 -0.2064 -0.7903
  152SAPE  H16R16857   0.213   6.364   7.914 -0.3846  0.8110  0.8340
  152SAPE  H16S16858   0.084   6.241   7.880  0.3946 -0.2027 -1.7153
  152SAPE  C21716859   0.018   6.399   8.007  0.3240 -0.0389  0.0595
  152SAPE  H17R16860  -0.081   6.372   7.965  1.1828 -2.7003 -0.4616
  152SAPE  H17S16861   0.017   6.507   8.032  0.9683 -0.0438  0.1384
  152SAPE  C21816862   0.039   6.324   8.137  0.4494  0.5508 -0.6477
  152SAPE  H18R16863   0.143   6.342   8.173 -0.5364  1.4550  1.9157
  152SAPE  H18S16864   0.014   6.218   8.116 -0.2397  0.7551 -0.8893
  152SAPE  C21916865  -0.055   6.360   8.258 -0.1776 -0.3856 -0.2649
  152SAPE  H19R16866  -0.061   6.282   8.337 -0.3050 -1.2076 -1.0684
  152SAPE  H19S16867  -0.161   6.373   8.227 -0.9076  1.4069  2.5990
  152SAPE  C22016868  -0.016   6.491   8.327 -0.0007 -0.9105 -0.0932
  152SAPE  H20R16869  -0.036   6.581   8.266 -0.0195  1.1270  2.7324
  152SAPE  H20S16870   0.094   6.495   8.340  0.1480  1.7086 -1.4556
  152SAPE  H20T16871  -0.067   6.493   8.426  1.6931  0.1592  0.8005
  152SAPE   C3316872   0.254   5.834   6.957  0.6526 -0.1659  0.3258
  152SAPE   H3X16873   0.362   5.834   6.984  0.7379  0.0607 -0.0032
  152SAPE   H3Y16874   0.230   5.757   6.880 -1.8407  0.6921  0.1562
  152SAPE   C3416875   0.176   5.777   7.082  0.2197  0.5558  0.3042
  152SAPE   H4X16876   0.206   5.671   7.100  0.0906  0.4131 -0.3059
  152SAPE   H4Y16877   0.065   5.782   7.078  0.2520  0.9564 -0.2197
  152SAPE   C3516878   0.222   5.850   7.209 -0.1519  0.5764  0.1164
  152SAPE   H5X16879   0.169   5.947   7.222 -1.0117  0.1040  0.2230
  152SAPE   H5Y16880   0.331   5.862   7.194 -0.2076 -1.5161 -2.8054
  152SAPE   C3616881   0.179   5.769   7.339  0.3017  0.0814 -0.2313
  152SAPE   H6X16882   0.224   5.667   7.329 -3.5086 -1.9278  0.9634
  152SAPE   H6Y16883   0.068   5.758   7.336 -0.0849  3.4069 -2.5878
  152SAPE   C3716884   0.220   5.826   7.477  0.9236  0.5100  0.7579
  152SAPE   H7X16885   0.197   5.935   7.475  0.5045  0.4537 -1.9516
  152SAPE   H7Y16886   0.331   5.822   7.485  0.9883 -2.0748 -0.2941
  152SAPE   C3816887   0.174   5.740   7.596 -0.0219 -0.5454  0.2861
  152SAPE   H8X16888   0.206   5.636   7.575 -0.7987 -0.9108  0.8728
  152SAPE   H8Y16889   0.064   5.754   7.595  0.0086 -0.3030 -0.0362
  152SAPE   C3916890   0.223   5.802   7.733 -0.6227  0.3123  0.9245
  152SAPE   H9X16891   0.203   5.912   7.732 -1.6438  0.1395  1.4668
  152SAPE   H9Y16892   0.332   5.778   7.733 -0.5376  0.0427 -2.8896
  152SAPE  C31016893   0.147   5.739   7.849 -0.1366  0.5073  0.5651
  152SAPE  H10X16894   0.171   5.631   7.842 -0.3047  0.5488 -0.9262
  152SAPE  H10Y16895   0.037   5.751   7.844 -0.1236  2.1471  2.7391
  152SAPE  C31116896   0.196   5.784   7.984  0.2688 -0.9436 -0.5151
  152SAPE  H11X16897   0.306   5.769   7.995  0.1679 -1.3990 -0.1221
  152SAPE  H11Y16898   0.150   5.725   8.066 -0.3382 -1.6247 -1.3314
  152SAPE  C31216899   0.167   5.937   8.003 -0.2756 -0.4073  0.2495
  152SAPE  H12X16900   0.067   5.968   7.966  0.4729  1.3127 -0.4356
  152SAPE  H12Y16901   0.241   5.995   7.943  0.1459 -0.4048  0.7604
  152SAPE  C31316902   0.180   5.977   8.149  0.8805  0.4108 -1.1192
  152SAPE  H13X16903   0.192   6.086   8.162  1.3876  0.2251  0.1546
  152SAPE  H13Y16904   0.273   5.921   8.173  0.0473 -1.0739 -1.2226
  152SAPE  C31416905   0.052   5.946   8.241 -0.9730  0.4773  1.0833
  152SAPE  H14X16906   0.009   5.847   8.216 -0.6707  0.5830  0.1398
  152SAPE  H14Y16907  -0.020   6.030   8.235  1.5046  2.6181 -1.7760
  152SAPE  C31516908   0.079   5.944   8.390 -0.6417 -0.9996 -0.9344
  152SAPE  H15X16909  -0.021   5.939   8.437 -0.7187  1.0435 -0.7891
  152SAPE  H15Y16910   0.131   6.035   8.428 -1.2244 -1.8741  2.2676
  152SAPE  C31616911   0.173   5.831   8.443 -0.0803 -0.0523  1.0924
  152SAPE  H16X16912   0.276   5.866   8.419 -0.6643  0.2908 -1.1986
  152SAPE  H16Y16913   0.157   5.738   8.384  1.3666  0.2655  0.1438
  152SAPE  C31716914   0.156   5.807   8.582 -0.2751  0.2882 -1.1718
  152SAPE  H17X16915   0.168   5.902   8.638 -1.8900 -0.7694  1.1540
  152SAPE  H17Y16916   0.239   5.750   8.629 -0.9924  0.9346  1.0211
  152SAPE  C31816917   0.028   5.734   8.620  0.0036  0.3033 -0.5566
  152SAPE  H18X16918   0.032   5.631   8.580  0.4226 -1.1779  2.8904
  152SAPE  H18Y16919  -0.064   5.782   8.581  0.6700  1.4406 -0.7819
  152SAPE  H18Z16920   0.010   5.721   8.729 -2.9020 -3.6001 -1.2950
  153SAPE     N16921   4.523   2.597   6.124 -0.2211  0.3007 -0.6192
  153SAPE   HN116922   4.453   2.596   6.048 -0.1728 -0.9009 -0.6650
  153SAPE   HN216923   4.470   2.632   6.206  1.2686 -2.2046  1.5742
  153SAPE   HN316924   4.602   2.659   6.096 -0.8409  1.4872  0.2155
  153SAPE   C1216925   4.564   2.457   6.166 -0.3118 -0.8421  0.8702
  153SAPE  H12A16926   4.659   2.472   6.222  0.0356  1.7949 -0.2718
  153SAPE  H12B16927   4.598   2.396   6.080  1.1072  0.2000  0.6592
  153SAPE   C1116928   4.451   2.384   6.240  0.4441 -0.0473  0.2835
  153SAPE  H11A16929   4.418   2.451   6.322  0.5833  1.8347 -1.1294
  153SAPE  H11B16930   4.482   2.292   6.294 -1.7374 -1.0345 -0.0369
  153SAPE     P16931   4.208   2.291   6.163 -0.2196 -0.4286 -0.1315
  153SAPE   O1316932   4.123   2.391   6.226 -0.2488 -0.0936  0.0597
  153SAPE   O1416933   4.168   2.246   6.024  0.0660 -0.0968 -0.4389
  153SAPE   O1216934   4.351   2.359   6.150 -0.4680 -0.1854 -0.1411
  153SAPE   O1116935   4.234   2.179   6.260  0.0609  0.3808  0.2598
  153SAPE    C116936   4.305   2.056   6.233 -0.3943  0.0995  0.2314
  153SAPE    HA16937   4.244   1.990   6.167 -0.4572  0.0801  0.3087
  153SAPE    HB16938   4.406   2.082   6.194 -0.5763  1.5115  0.6502
  153SAPE    C216939   4.341   1.981   6.365 -0.1973 -0.2776  0.3781
  153SAPE    HS16940   4.377   1.877   6.348 -1.1411 -0.6900  0.7959
  153SAPE   O2116941   4.233   1.971   6.458  0.3228  0.3921 -0.1985
  153SAPE   C2116942   4.140   1.888   6.415  0.8254 -0.2305  0.0387
  153SAPE   O2216943   4.138   1.815   6.317  0.3480  0.5560  0.0641
  153SAPE   C2216944   4.030   1.882   6.520 -0.2515  0.4061  0.1108
  153SAPE   H2R16945   4.018   1.990   6.542  0.2798  0.3131  0.8900
  153SAPE   H2S16946   3.938   1.844   6.470 -0.3173  1.2068 -0.3808
  153SAPE    C316947   4.455   2.056   6.443 -0.0191  0.3717  0.6072
  153SAPE    HX16948   4.409   2.152   6.476 -0.0374 -0.3073  2.7422
  153SAPE    HY16949   4.537   2.065   6.369  0.4349  0.7843  1.1445
  153SAPE   O3116950   4.498   1.975   6.556  0.0906  0.3464 -0.0881
  153SAPE   C3116951   4.614   2.013   6.604 -0.4430  0.1757 -0.0500
  153SAPE   O3216952   4.686   2.100   6.558 -0.2723  0.4054  0.3318
  153SAPE   C3216953   4.653   1.933   6.732  0.1494 -0.8090  0.3835
  153SAPE   H2X16954   4.761   1.950   6.750  0.2203 -1.3055  0.4252
  153SAPE   H2Y16955   4.630   1.825   6.719  0.1141 -0.6195 -1.4325
  153SAPE   C2316956   4.065   1.804   6.646  0.6577  0.3442  0.3639
  153SAPE   H3R16957   3.991   1.841   6.720  0.8754  1.4216  0.0642
  153SAPE   H3S16958   4.166   1.837   6.681  1.0513 -0.9957  0.5510
  153SAPE   C2416959   4.055   1.649   6.632 -0.6984 -0.0511  0.3135
  153SAPE   H4R16960   3.949   1.635   6.601 -0.9350 -1.0721  1.4889
  153SAPE   H4S16961   4.055   1.599   6.731  1.6882 -0.2901  0.2501
  153SAPE   C2516962   4.151   1.587   6.541 -1.0011 -0.3862 -0.1899
  153SAPE   H5R16963   4.145   1.618   6.435  0.0258  0.3686 -0.0494
  153SAPE   C2616964   4.243   1.492   6.571 -0.3955  0.8649  0.1953
  153SAPE   H6R16965   4.311   1.449   6.496 -0.8053  1.0285 -0.2816
  153SAPE   C2716966   4.253   1.428   6.708 -0.8658  0.8147 -0.2498
  153SAPE   H7R16967   4.152   1.429   6.754  0.6423  1.2585  3.3831
  153SAPE   H7S16968   4.307   1.487   6.786 -0.8390 -1.8444  1.8855
  153SAPE   C2816969   4.300   1.283   6.719 -0.0278 -0.9301 -0.3000
  153SAPE   H8R16970   4.324   1.225   6.629 -0.8095 -3.7214  1.1661
  153SAPE   C2916971   4.325   1.218   6.835 -0.2536 -0.5913  0.2221
  153SAPE   H9R16972   4.344   1.111   6.849  0.4946 -0.4091  0.6753
  153SAPE  C21016973   4.311   1.287   6.966  0.0078  0.1174  0.5859
  153SAPE  H10R16974   4.271   1.391   6.960 -1.5796 -0.5660 -1.2916
  153SAPE  H10S16975   4.411   1.294   7.015  1.4762 -1.4031 -1.9684
  153SAPE  C21116976   4.216   1.207   7.050  0.8723 -0.5573  0.4491
  153SAPE  H11R16977   4.144   1.140   7.001  1.4182 -1.0118  0.2526
  153SAPE  C21216978   4.201   1.211   7.186  0.1658 -0.0604  0.0716
  153SAPE  H12R16979   4.123   1.149   7.234  0.3635 -1.4887 -1.3559
  153SAPE  C21316980   4.282   1.300   7.283  0.5136  0.7674  0.2986
  153SAPE  H13R16981   4.354   1.357   7.221  1.1720 -1.6631 -1.3481
  153SAPE  H13S16982   4.347   1.232   7.342 -0.4775 -2.0041 -1.5749
  153SAPE  C21416983   4.201   1.395   7.366  0.2807 -0.1818  0.3817
  153SAPE  H14R16984   4.151   1.466   7.298  0.7332 -0.8739 -0.7077
  153SAPE  C21516985   4.181   1.400   7.500 -0.1099  0.0865 -0.4038
  153SAPE  H15R16986   4.125   1.484   7.543  1.3210 -0.2786  2.3633
  153SAPE  C21616987   4.231   1.300   7.596 -0.5008 -0.5795  0.3320
  153SAPE  H16R16988   4.296   1.222   7.550  0.4739  0.0047  0.6668
  153SAPE  H16S16989   4.148   1.247   7.646 -0.7573 -0.0496  0.4722
  153SAPE  C21716990   4.320   1.376   7.700  0.1422 -0.5048  0.6916
  153SAPE  H17R16991   4.267   1.453   7.760 -2.1885 -1.8393  0.4479
  153SAPE  H17S16992   4.405   1.422   7.644  0.2467 -2.6429 -1.0380
  153SAPE  C21816993   4.392   1.278   7.792  0.0058 -0.1823 -0.1203
  153SAPE  H18R16994   4.435   1.189   7.743  2.0070  0.2098  0.8417
  153SAPE  H18S16995   4.314   1.236   7.859 -0.9228 -0.2677 -1.2218
  153SAPE  C21916996   4.506   1.336   7.885 -0.1950  0.2063  0.5077
  153SAPE  H19R16997   4.470   1.432   7.929 -0.1813  0.4534 -0.0104
  153SAPE  H19S16998   4.597   1.347   7.823 -0.4373 -0.7813 -0.0518
  153SAPE  C22016999   4.533   1.248   8.005 -0.0975 -0.2865 -0.0129
  153SAPE  H20R17000   4.622   1.281   8.064 -0.6000  0.2342  0.4731
  153SAPE  H20S17001   4.555   1.146   7.967 -1.1637  0.3950 -2.6640
  153SAPE  H20T17002   4.443   1.234   8.067  1.3039 -0.3959  2.1130
  153SAPE   C3317003   4.582   1.984   6.854 -0.0050  0.4563 -0.0587
  153SAPE   H3X17004   4.600   2.092   6.868  1.1320  0.3897 -0.8285
  153SAPE   H3Y17005   4.626   1.933   6.943  1.8612  1.2287 -0.4847
  153SAPE   C3417006   4.430   1.963   6.838 -0.2532  0.7518 -0.3963
  153SAPE   H4X17007   4.396   1.873   6.783 -0.9180  0.7292  0.0439
  153SAPE   H4Y17008   4.391   2.043   6.772  1.2304  1.8824  0.0344
  153SAPE   C3517009   4.352   1.952   6.966  0.2755  0.4704  0.7595
  153SAPE   H5X17010   4.375   1.850   7.003  2.8028 -0.2977 -2.3797
  153SAPE   H5Y17011   4.245   1.971   6.945  0.3826  0.1205 -0.1521
  153SAPE   C3617012   4.394   2.053   7.075 -0.1892  0.0080  0.2817
  153SAPE   H6X17013   4.407   2.158   7.042 -2.8492 -0.3099 -2.1823
  153SAPE   H6Y17014   4.491   2.012   7.110  0.2048 -0.8944 -1.7105
  153SAPE   C3717015   4.295   2.062   7.198 -0.9977  0.5607  0.0114
  153SAPE   H7X17016   4.294   1.965   7.252 -2.2729  0.3833 -0.3006
  153SAPE   H7Y17017   4.190   2.078   7.166 -0.9639 -0.6984 -0.7875
  153SAPE   C3817018   4.333   2.171   7.306 -0.0261 -0.3357  0.1033
  153SAPE   H8X17019   4.327   2.269   7.254 -0.6162 -1.5587 -2.2978
  153SAPE   H8Y17020   4.443   2.154   7.317  0.0507 -1.8320 -2.1550
  153SAPE   C3917021   4.257   2.164   7.443 -0.2959 -0.1430  0.1653
  153SAPE   H9X17022   4.223   2.063   7.475  0.4174 -0.0833  1.1435
  153SAPE   H9Y17023   4.164   2.223   7.438 -0.0166  0.2314 -0.7312
  153SAPE  C31017024   4.347   2.215   7.554 -0.1870  0.2078  0.2997
  153SAPE  H10X17025   4.404   2.300   7.509  2.1667 -2.0717 -1.3969
  153SAPE  H10Y17026   4.427   2.137   7.557 -2.2830 -2.2941 -2.6769
  153SAPE  C31117027   4.282   2.244   7.684  0.4047 -0.4282 -0.0024
  153SAPE  H11X17028   4.215   2.160   7.712 -1.1571  0.1575 -1.7687
  153SAPE  H11Y17029   4.211   2.328   7.664 -0.4231 -1.3437 -0.9871
  153SAPE  C31217030   4.365   2.299   7.799 -0.5724 -0.2747  0.0019
  153SAPE  H12X17031   4.416   2.394   7.774  1.4592 -1.3973 -0.3139
  153SAPE  H12Y17032   4.447   2.224   7.803 -0.3990 -0.0451  2.4139
  153SAPE  C31317033   4.297   2.313   7.932 -0.5309 -0.4255  0.2208
  153SAPE  H13X17034   4.236   2.224   7.955 -0.7714 -0.2900  0.1065
  153SAPE  H13Y17035   4.231   2.401   7.917  0.7335  0.3448 -1.2299
  153SAPE  C31417036   4.401   2.343   8.041  1.0196 -0.0530 -0.3968
  153SAPE  H14X17037   4.467   2.430   8.016 -0.3178  0.9778 -0.4793
  153SAPE  H14Y17038   4.467   2.254   8.047  0.9157 -0.0344  1.6741
  153SAPE  C31517039   4.354   2.363   8.185  0.0939 -0.2097  0.4023
  153SAPE  H15X17040   4.292   2.454   8.204  1.1240  0.0959  2.7187
  153SAPE  H15Y17041   4.433   2.377   8.262  0.7238 -1.4259 -0.0112
  153SAPE  C31617042   4.270   2.243   8.236  0.5562  0.7767 -0.0211
  153SAPE  H16X17043   4.182   2.229   8.171  0.7687  1.7744 -0.5456
  153SAPE  H16Y17044   4.237   2.272   8.338  0.3162  3.0098 -0.6741
  153SAPE  C31717045   4.340   2.100   8.234  0.2274  0.3220  0.3053
  153SAPE  H17X17046   4.429   2.102   8.301  0.6387  0.1352 -0.2264
  153SAPE  H17Y17047   4.373   2.095   8.128  1.5762  2.7554  0.5152
  153SAPE  C31817048   4.249   1.984   8.256  0.4064 -0.6567 -0.0838
  153SAPE  H18X17049   4.165   1.975   8.184 -0.7027 -0.0397  1.0668
  153SAPE  H18Y17050   4.210   2.007   8.358  1.4163  0.9398 -0.0401
  153SAPE  H18Z17051   4.308   1.889   8.259  0.8965 -0.3599 -0.2974
  154SAPE     N17052   1.337   1.480   6.452  0.4392  0.4112  0.4136
  154SAPE   HN117053   1.325   1.564   6.512  0.1250  0.5169  0.2055
  154SAPE   HN217054   1.351   1.519   6.357  0.5118  2.1452  1.0989
  154SAPE   HN317055   1.247   1.428   6.451  1.3186 -1.1716 -1.1213
  154SAPE   C1217056   1.447   1.401   6.513  0.4102  0.1045  0.7751
  154SAPE  H12A17057   1.446   1.405   6.624 -0.2833  0.8117  0.7492
  154SAPE  H12B17058   1.541   1.451   6.482  0.1582 -0.3044 -0.7658
  154SAPE   C1117059   1.457   1.256   6.463  0.3204  0.8006  0.1602
  154SAPE  H11A17060   1.363   1.202   6.488  0.2799 -1.2128 -3.5296
  154SAPE  H11B17061   1.533   1.200   6.522  0.8375  2.3442  1.0144
  154SAPE     P17062   1.435   1.128   6.230 -0.4286 -0.1220 -0.1682
  154SAPE   O1317063   1.287   1.118   6.232 -0.3075  0.4558 -0.2373
  154SAPE   O1417064   1.505   1.118   6.105 -0.1409 -0.0368 -0.8872
  154SAPE   O1217065   1.480   1.248   6.323 -0.3849 -0.7537 -0.2958
  154SAPE   O1117066   1.469   0.999   6.310 -0.8602  0.4312  0.4128
  154SAPE    C117067   1.617   0.978   6.346 -0.4590  0.0813 -0.3210
  154SAPE    HA17068   1.689   1.009   6.266 -0.5091 -0.0179 -0.4038
  154SAPE    HB17069   1.649   1.030   6.439 -2.4025  0.8567 -0.0430
  154SAPE    C217070   1.665   0.831   6.367 -0.0129  0.1728 -0.2426
  154SAPE    HS17071   1.643   0.783   6.270 -1.5445  0.4974 -0.0881
  154SAPE   O2117072   1.583   0.769   6.471 -0.0117 -0.5062 -0.2860
  154SAPE   C2117073   1.611   0.643   6.505  0.2336 -0.1337 -0.5921
  154SAPE   O2217074   1.684   0.566   6.442  0.2227 -0.5936 -0.0306
  154SAPE   C2217075   1.519   0.600   6.618 -0.5953 -0.9759  0.0927
  154SAPE   H2R17076   1.492   0.687   6.681 -1.2398 -1.0771 -0.0368
  154SAPE   H2S17077   1.426   0.552   6.581 -0.6505  0.3658 -1.6010
  154SAPE    C317078   1.822   0.828   6.395 -0.4581 -0.4500  0.5967
  154SAPE    HX17079   1.868   0.892   6.317 -0.6589  0.7507  1.4311
  154SAPE    HY17080   1.840   0.721   6.370 -0.2035 -0.0881 -0.8616
  154SAPE   O3117081   1.873   0.868   6.531  0.3171  0.3320  0.1787
  154SAPE   C3117082   1.991   0.826   6.560  0.2208  0.6123 -0.0986
  154SAPE   O3217083   2.071   0.762   6.489  0.0779  0.2941  0.2367
  154SAPE   C3217084   2.017   0.891   6.702  0.5674 -0.0121  0.6599
  154SAPE   H2X17085   1.977   0.994   6.707  1.4055  0.5060 -1.7896
  154SAPE   H2Y17086   2.127   0.901   6.705  0.5893  1.8947 -2.3886
  154SAPE   C2317087   1.594   0.495   6.705 -0.0561  0.2620  0.4511
  154SAPE   H3R17088   1.625   0.408   6.643 -2.0887  0.4605 -0.9168
  154SAPE   H3S17089   1.516   0.450   6.770  1.2115 -2.5346  0.2048
  154SAPE   C2417090   1.708   0.547   6.792 -0.7176 -0.6159  0.3417
  154SAPE   H4R17091   1.680   0.640   6.846 -1.0694 -0.4382 -0.1456
  154SAPE   H4S17092   1.791   0.580   6.726 -0.7001 -0.5755  0.3846
  154SAPE   C2517093   1.744   0.432   6.887 -0.9664 -0.0265 -0.7495
  154SAPE   H5R17094   1.784   0.343   6.836  1.3808  0.2527  0.4820
  154SAPE   C2617095   1.719   0.430   7.023  0.5976  0.1584 -0.5597
  154SAPE   H6R17096   1.751   0.344   7.083  2.8126 -0.0614 -1.9420
  154SAPE   C2717097   1.647   0.538   7.100 -0.9668 -1.2616 -0.6978
  154SAPE   H7R17098   1.577   0.590   7.031 -1.7607 -0.8003  0.4351
  154SAPE   H7S17099   1.730   0.607   7.125 -0.2367 -2.2649 -0.3012
  154SAPE   C2817100   1.573   0.475   7.222  0.7533 -0.9441  0.2918
  154SAPE   H8R17101   1.518   0.383   7.197 -2.8300  1.1723 -0.3664
  154SAPE   C2917102   1.547   0.531   7.338  0.5971  0.4299  0.7269
  154SAPE   H9R17103   1.489   0.462   7.402  0.2242 -0.2530 -0.3142
  154SAPE  C21017104   1.593   0.666   7.378 -0.1907 -0.2689 -0.7732
  154SAPE  H10R17105   1.583   0.728   7.286  0.7831  1.3506  0.1606
  154SAPE  H10S17106   1.702   0.672   7.395 -0.3041  0.0826 -0.1729
  154SAPE  C21117107   1.520   0.730   7.497 -0.8042 -0.0462  0.4613
  154SAPE  H11R17108   1.411   0.728   7.480 -0.6857  0.1467 -0.3398
  154SAPE  C21217109   1.569   0.809   7.601 -0.1689 -0.1014  0.3448
  154SAPE  H12R17110   1.500   0.838   7.681  0.8771  1.0602  0.8517
  154SAPE  C21317111   1.714   0.838   7.626 -0.2064 -0.0337  0.5241
  154SAPE  H13R17112   1.748   0.910   7.549  2.9225 -2.2452 -0.3257
  154SAPE  H13S17113   1.773   0.747   7.603 -0.8912 -0.7563  1.4988
  154SAPE  C21417114   1.751   0.878   7.770 -0.0540  0.1016  1.0544
  154SAPE  H14R17115   1.788   0.800   7.839 -1.5367 -1.0060  0.6586
  154SAPE  C21517116   1.768   1.006   7.803 -1.1064 -0.0014 -0.2565
  154SAPE  H15R17117   1.806   1.024   7.904  1.2044  0.5890 -1.1555
  154SAPE  C21617118   1.735   1.120   7.711 -0.0200  0.7378 -0.4509
  154SAPE  H16R17119   1.647   1.082   7.654 -1.6961  1.6587  1.3709
  154SAPE  H16S17120   1.820   1.139   7.642  0.8101  0.1810  0.3997
  154SAPE  C21717121   1.694   1.257   7.768  0.1139 -0.1593  0.3418
  154SAPE  H17R17122   1.594   1.248   7.817 -0.2111 -1.7456 -0.5605
  154SAPE  H17S17123   1.676   1.325   7.683  1.5000  1.1039  1.0169
  154SAPE  C21817124   1.801   1.304   7.858 -0.5306  0.5168  0.4959
  154SAPE  H18R17125   1.896   1.276   7.807 -0.0207 -0.6479  2.0195
  154SAPE  H18S17126   1.801   1.236   7.946  3.5913 -0.3343  0.0610
  154SAPE  C21917127   1.794   1.456   7.887 -0.8927  0.0303 -0.5011
  154SAPE  H19R17128   1.722   1.509   7.821  0.6947  0.9713 -1.5498
  154SAPE  H19S17129   1.892   1.507   7.878 -1.6161  1.5106 -0.4093
  154SAPE  C22017130   1.751   1.475   8.034 -0.2901  0.0947 -0.4629
  154SAPE  H20R17131   1.660   1.412   8.042 -1.2907  1.5120 -0.1595
  154SAPE  H20S17132   1.730   1.584   8.041  2.3255  0.8681 -2.8996
  154SAPE  H20T17133   1.835   1.448   8.101  0.0815 -0.2285 -1.0540
  154SAPE   C3317134   1.963   0.812   6.824 -0.0059  0.1252  0.4415
  154SAPE   H3X17135   1.971   0.702   6.809 -3.3243 -0.0368 -1.0023
  154SAPE   H3Y17136   1.855   0.837   6.823 -0.1134 -0.3315 -0.0868
  154SAPE   C3417137   2.039   0.858   6.949 -0.2776 -0.2638  0.5415
  154SAPE   H4X17138   2.032   0.968   6.939  0.3214 -0.1168  1.5946
  154SAPE   H4Y17139   2.146   0.831   6.936 -0.5199 -0.6297 -0.9291
  154SAPE   C3517140   1.976   0.794   7.068  0.3628  0.1551  1.0468
  154SAPE   H5X17141   1.988   0.685   7.047 -1.5194  0.1245 -0.0820
  154SAPE   H5Y17142   1.868   0.818   7.082  0.4381  0.2923  1.4175
  154SAPE   C3617143   2.042   0.849   7.199 -0.3896  0.2555 -0.5407
  154SAPE   H6X17144   2.039   0.960   7.205  1.7255  0.3606 -0.6589
  154SAPE   H6Y17145   2.151   0.828   7.197 -0.6129 -1.2558  0.9126
  154SAPE   C3717146   1.991   0.784   7.326 -0.1559 -0.2830 -0.0527
  154SAPE   H7X17147   1.887   0.805   7.358 -0.8613 -3.2652 -0.0851
  154SAPE   H7Y17148   2.040   0.832   7.413 -1.9371  2.0311 -0.2332
  154SAPE   C3817149   2.012   0.635   7.331  0.0286  0.3287 -0.1641
  154SAPE   H8X17150   2.119   0.618   7.305 -0.3667 -0.4166 -1.3684
  154SAPE   H8Y17151   1.944   0.587   7.257 -0.6257 -0.8317  1.1469
  154SAPE   C3917152   1.987   0.566   7.473  0.2831  0.5149  0.0947
  154SAPE   H9X17153   2.006   0.458   7.452 -1.7953  0.6146 -2.9453
  154SAPE   H9Y17154   1.877   0.563   7.484  0.3740 -0.8116  0.8750
  154SAPE  C31017155   2.058   0.624   7.593  0.0951  0.1988 -0.0377
  154SAPE  H10X17156   2.006   0.722   7.601 -0.0990 -0.0662  3.2223
  154SAPE  H10Y17157   2.162   0.651   7.567  0.2726 -0.1505  0.2906
  154SAPE  C31117158   2.048   0.524   7.711  0.3197  0.1937  0.6750
  154SAPE  H11X17159   2.111   0.437   7.684 -1.7160 -0.5516 -2.1731
  154SAPE  H11Y17160   1.941   0.496   7.721  0.2786  0.3984  0.8091
  154SAPE  C31217161   2.092   0.582   7.841  0.0660  0.4763 -0.2161
  154SAPE  H12X17162   2.040   0.679   7.847  0.7422  0.8820 -0.7499
  154SAPE  H12Y17163   2.201   0.603   7.848  0.2632 -0.9556  3.4657
  154SAPE  C31317164   2.056   0.493   7.965  0.4972 -0.1433  0.3053
  154SAPE  H13X17165   2.102   0.395   7.943 -1.2353 -0.9366  0.0365
  154SAPE  H13Y17166   1.949   0.483   7.993  1.0053 -0.6072  2.1612
  154SAPE  C31417167   2.122   0.547   8.085 -0.7368  0.1764 -0.1545
  154SAPE  H14X17168   2.112   0.657   8.093 -2.5432  0.0795 -0.6456
  154SAPE  H14Y17169   2.232   0.534   8.077 -0.6220  1.2998 -0.4501
  154SAPE  C31517170   2.080   0.479   8.216 -0.8419  0.5634 -1.0454
  154SAPE  H15X17171   2.053   0.375   8.191  2.0059 -0.6394  0.4772
  154SAPE  H15Y17172   1.986   0.517   8.263 -1.3290 -1.4442 -0.2912
  154SAPE  C31617173   2.185   0.487   8.337 -0.0065  0.2172  0.2340
  154SAPE  H16X17174   2.272   0.424   8.309  1.1103  1.4022  0.9358
  154SAPE  H16Y17175   2.149   0.436   8.429  1.0100 -2.1321 -0.6024
  154SAPE  C31717176   2.223   0.628   8.365 -0.9372 -0.2377 -0.3919
  154SAPE  H17X17177   2.128   0.686   8.367 -0.5984  0.3336 -0.5744
  154SAPE  H17Y17178   2.270   0.653   8.268  0.1611 -2.4598 -0.4906
  154SAPE  C31817179   2.315   0.653   8.480  0.1241  0.9272 -0.0355
  154SAPE  H18X17180   2.260   0.645   8.577  0.4983 -0.8808  0.0552
  154SAPE  H18Y17181   2.345   0.760   8.481  1.0801  0.7546  3.3376
  154SAPE  H18Z17182   2.405   0.588   8.481  1.6297  2.9096 -0.7879
  155SAPE     N17183   1.976   1.985   6.161 -0.5123  0.0316 -0.0378
  155SAPE   HN117184   2.075   1.965   6.186 -0.3228  1.0939  0.0832
  155SAPE   HN217185   1.926   2.030   6.240  1.4092 -0.3365  1.4549
  155SAPE   HN317186   1.925   1.901   6.126 -0.2315 -0.0139 -0.3454
  155SAPE   C1217187   1.973   2.074   6.040 -0.1747 -0.1035  0.1683
  155SAPE  H12A17188   1.870   2.094   6.006  0.3135  1.1768 -0.6327
  155SAPE  H12B17189   2.024   2.015   5.961 -1.7492 -2.4642  0.8244
  155SAPE   C1117190   2.036   2.208   6.072 -0.1687  0.1264 -0.1951
  155SAPE  H11A17191   2.014   2.276   5.987 -0.3389  1.9372  1.2181
  155SAPE  H11B17192   2.144   2.183   6.074 -0.8557 -3.3148 -0.0710
  155SAPE     P17193   1.983   2.406   6.232  0.1262 -0.4504 -0.3384
  155SAPE   O1317194   2.000   2.479   6.109  0.3885 -0.4252  0.6597
  155SAPE   O1417195   1.852   2.428   6.306 -0.0386 -0.2414 -0.4861
  155SAPE   O1217196   1.994   2.255   6.201 -0.2001  0.1603  0.2633
  155SAPE   O1117197   2.107   2.430   6.318  0.5125  0.1456 -0.0677
  155SAPE    C117198   2.179   2.346   6.410 -0.1286 -0.6312  0.0407
  155SAPE    HA17199   2.138   2.243   6.415 -0.3639 -0.5271  0.2390
  155SAPE    HB17200   2.285   2.345   6.376 -0.5644  2.7595 -1.8585
  155SAPE    C217201   2.179   2.384   6.558 -0.1771 -0.1163 -0.3271
  155SAPE    HS17202   2.074   2.364   6.588  0.3949 -1.5164  0.8190
  155SAPE   O2117203   2.221   2.519   6.579  0.0852  0.8865 -0.4422
  155SAPE   C2117204   2.119   2.607   6.580  0.3519  0.7051  0.0139
  155SAPE   O2217205   1.998   2.581   6.575 -0.1132  0.1738  0.0370
  155SAPE   C2217206   2.174   2.745   6.619 -0.4508  0.1025 -0.8349
  155SAPE   H2R17207   2.242   2.786   6.541  1.0375 -1.6798 -0.5498
  155SAPE   H2S17208   2.090   2.817   6.631 -0.2418  0.6182 -2.1984
  155SAPE    C317209   2.273   2.292   6.642  0.2621 -0.5758  0.0073
  155SAPE    HX17210   2.372   2.312   6.597  0.6097  1.7408  1.6187
  155SAPE    HY17211   2.245   2.184   6.635  0.2360 -0.7571  2.3116
  155SAPE   O3117212   2.293   2.336   6.779  0.0886 -1.1124  0.3691
  155SAPE   C3117213   2.183   2.342   6.857 -0.1792 -0.9505  0.3348
  155SAPE   O3217214   2.072   2.327   6.818  0.0857  0.0219 -0.4226
  155SAPE   C3217215   2.228   2.384   6.997  0.1701  0.2921  0.4802
  155SAPE   H2X17216   2.228   2.495   6.997 -1.9848  0.3248 -0.0225
  155SAPE   H2Y17217   2.335   2.361   7.016  0.5315  2.2654  1.1657
  155SAPE   C2317218   2.268   2.736   6.746 -0.1723 -0.5774  1.0102
  155SAPE   H3R17219   2.352   2.667   6.724  0.1607 -0.1999  1.1021
  155SAPE   H3S17220   2.203   2.689   6.822 -1.3264  1.4452  1.3537
  155SAPE   C2417221   2.316   2.871   6.801 -0.4581  0.4594  0.4540
  155SAPE   H4R17222   2.394   2.901   6.728 -1.9641  1.3218 -0.8859
  155SAPE   H4S17223   2.362   2.844   6.898 -0.6191 -1.2500  0.0830
  155SAPE   C2517224   2.215   2.984   6.801 -0.3504  0.2967 -0.2573
  155SAPE   H5R17225   2.201   3.033   6.703 -0.5380 -0.3647 -0.5717
  155SAPE   C2617226   2.150   3.025   6.914  0.3559 -0.3012 -0.2397
  155SAPE   H6R17227   2.059   3.082   6.890  0.0367  0.6122  2.8292
  155SAPE   C2717228   2.171   2.973   7.059 -0.1059 -0.4343  0.0400
  155SAPE   H7R17229   2.154   3.057   7.129 -0.7310  0.3072 -0.9705
  155SAPE   H7S17230   2.279   2.959   7.084 -0.4428  0.2099  1.9598
  155SAPE   C2817231   2.092   2.850   7.093 -1.1104  0.1357  0.7096
  155SAPE   H8R17232   2.058   2.798   7.003  0.2400 -0.1886  0.3615
  155SAPE   C2917233   2.075   2.790   7.214  0.1757  0.2127 -0.5221
  155SAPE   H9R17234   2.006   2.705   7.223  1.3235 -0.5877  1.5828
  155SAPE  C21017235   2.121   2.836   7.350 -0.2332  0.3707 -0.3697
  155SAPE  H10R17236   2.046   2.894   7.408  0.5825 -0.5721  1.7429
  155SAPE  H10S17237   2.206   2.906   7.336 -1.1362  1.8129  0.9741
  155SAPE  C21117238   2.170   2.718   7.434  0.9436  0.4819  0.4947
  155SAPE  H11R17239   2.201   2.631   7.373 -0.3987  0.6821 -0.5045
  155SAPE  C21217240   2.170   2.699   7.568  0.4545 -0.8667  0.7657
  155SAPE  H12R17241   2.206   2.601   7.604 -1.2287 -2.0272 -0.5921
  155SAPE  C21317242   2.123   2.802   7.670  0.0710  1.0676  0.1194
  155SAPE  H13R17243   2.034   2.762   7.723 -0.3973  1.2314 -0.5270
  155SAPE  H13S17244   2.086   2.896   7.623  1.6505  1.8922  0.4561
  155SAPE  C21417245   2.248   2.831   7.755 -0.1595  0.3244  1.0722
  155SAPE  H14R17246   2.327   2.892   7.709 -0.4368 -1.6693 -2.3456
  155SAPE  C21517247   2.270   2.785   7.879 -0.0741 -0.3055 -0.0481
  155SAPE  H15R17248   2.370   2.806   7.919 -0.3529  2.6073 -0.6784
  155SAPE  C21617249   2.183   2.692   7.959  0.3497 -0.2076  0.1381
  155SAPE  H16R17250   2.224   2.589   7.955 -0.2368 -0.4525  0.2090
  155SAPE  H16S17251   2.078   2.698   7.922  0.0899  1.4111  1.0305
  155SAPE  C21717252   2.178   2.719   8.109  0.0932  0.1828  0.0489
  155SAPE  H17R17253   2.142   2.823   8.124  2.1108  0.8627  0.5040
  155SAPE  H17S17254   2.276   2.712   8.161 -0.4934 -1.3053  0.9969
  155SAPE  C21817255   2.078   2.636   8.191 -0.3083 -0.1442 -0.4610
  155SAPE  H18R17256   2.105   2.528   8.191 -1.4730 -0.4690  1.4407
  155SAPE  H18S17257   1.979   2.663   8.150  0.1917 -0.1676 -1.7353
  155SAPE  C21917258   2.098   2.677   8.339  0.0337  0.0593 -0.1726
  155SAPE  H19R17259   2.078   2.784   8.357 -0.2545 -0.1727  0.9813
  155SAPE  H19S17260   2.201   2.657   8.376  0.0255  0.2948 -0.0237
  155SAPE  C22017261   1.998   2.591   8.424 -0.1356  0.0333  0.0042
  155SAPE  H20R17262   2.008   2.631   8.527 -0.1273 -2.6053  1.1048
  155SAPE  H20S17263   2.008   2.480   8.415  0.4413  0.1216 -0.4564
  155SAPE  H20T17264   1.895   2.612   8.386 -0.4727  0.3477  1.0522
  155SAPE   C3317265   2.132   2.334   7.105 -0.6413  0.1967  0.3498
  155SAPE   H3X17266   2.126   2.223   7.103  1.0565  0.0601  0.9393
  155SAPE   H3Y17267   2.030   2.375   7.088 -0.0036  1.0698 -1.6936
  155SAPE   C3417268   2.167   2.369   7.250  0.7738 -0.1070  0.2472
  155SAPE   H4X17269   2.156   2.479   7.239  0.1467 -0.1686  0.2283
  155SAPE   H4Y17270   2.274   2.348   7.272  0.7142 -0.2329  0.4218
  155SAPE   C3517271   2.063   2.313   7.350  0.3808  0.4903  0.4574
  155SAPE   H5X17272   2.072   2.203   7.361 -0.0745  0.2177 -1.5008
  155SAPE   H5Y17273   1.962   2.347   7.319  0.5691  1.7477  1.1470
  155SAPE   C3617274   2.082   2.376   7.486 -0.0261 -0.0177 -0.6483
  155SAPE   H6X17275   2.009   2.460   7.478 -1.5886 -1.1435  1.1112
  155SAPE   H6Y17276   2.184   2.418   7.499  0.7066 -1.7810 -0.4213
  155SAPE   C3717277   2.047   2.290   7.606 -0.1595 -0.2532  0.0166
  155SAPE   H7X17278   2.128   2.215   7.610 -0.3195 -0.6828 -2.7609
  155SAPE   H7Y17279   1.951   2.234   7.593 -0.5256  0.0716  1.2187
  155SAPE   C3817280   2.042   2.358   7.748 -0.2310  0.2619  0.6340
  155SAPE   H8X17281   1.966   2.439   7.752 -0.0413  0.4024  2.2472
  155SAPE   H8Y17282   2.142   2.403   7.762 -0.1204  1.0071 -2.1349
  155SAPE   C3917283   2.016   2.256   7.858 -0.7115 -0.3085 -0.4571
  155SAPE   H9X17284   2.088   2.175   7.834  1.2827  1.1456  0.3900
  155SAPE   H9Y17285   1.910   2.238   7.829 -0.2824 -0.1987 -2.2664
  155SAPE  C31017286   2.022   2.310   8.003  0.0903  0.4798  0.4496
  155SAPE  H10X17287   1.943   2.387   8.021 -1.3568  0.0463 -3.1386
  155SAPE  H10Y17288   2.126   2.347   8.012  0.8760 -1.5174  0.0424
  155SAPE  C31117289   2.010   2.188   8.103 -0.3717 -0.1222  0.3539
  155SAPE  H11X17290   2.098   2.122   8.087  0.9883  1.2257  1.9187
  155SAPE  H11Y17291   1.918   2.128   8.087 -1.3224  1.2765  0.3938
  155SAPE  C31217292   2.006   2.231   8.246  0.1566 -0.3073 -0.0812
  155SAPE  H12X17293   1.935   2.316   8.247 -0.7470 -0.9865 -1.7064
  155SAPE  H12Y17294   2.103   2.278   8.274  0.3464 -0.5443 -0.3343
  155SAPE  C31317295   1.970   2.115   8.336 -0.8264 -0.4212 -0.1453
  155SAPE  H13X17296   2.028   2.023   8.313 -2.8588 -1.8080 -0.0734
  155SAPE  H13Y17297   1.867   2.080   8.312 -1.0600  1.6165 -2.4893
  155SAPE  C31417298   1.985   2.148   8.490 -0.0986  0.0499  0.3774
  155SAPE  H14X17299   1.925   2.240   8.509 -0.5295 -0.2849  0.6541
  155SAPE  H14Y17300   2.090   2.175   8.514  0.3015 -1.6851  0.7007
  155SAPE  C31517301   1.948   2.037   8.590 -0.6680 -0.1198  0.1014
  155SAPE  H15X17302   2.007   1.945   8.570  1.1161  1.3768 -2.1839
  155SAPE  H15Y17303   1.840   2.020   8.569 -0.8919  1.0593  0.2057
  155SAPE  C31617304   1.965   2.088   8.734 -0.5510 -0.5086  0.1214
  155SAPE  H16X17305   1.896   2.169   8.766 -1.1725 -0.9934  0.0386
  155SAPE  H16Y17306   2.069   2.125   8.743  0.2339 -2.3727 -0.8558
  155SAPE  C31717307   1.970   1.969   8.832  0.3052  0.6240  0.3715
  155SAPE  H17X17308   2.034   1.894   8.781 -0.6459 -0.1033  0.2226
  155SAPE  H17Y17309   1.868   1.928   8.843  0.5128 -0.0009  0.0073
  155SAPE  C31817310   2.033   1.999   8.964  0.3997 -0.4620 -0.1859
  155SAPE  H18X17311   1.959   2.057   9.024 -0.6599 -2.5770  0.6502
  155SAPE  H18Y17312   2.127   2.058   8.957 -1.5036  2.6922 -1.2338
  155SAPE  H18Z17313   2.051   1.903   9.016  0.4870  0.3119  1.2815
  156SAPE     N17314   0.309   6.709   6.515 -0.5827 -0.3745 -0.1135
  156SAPE   HN117315   0.343   6.655   6.433  1.1546 -1.9050  1.5130
  156SAPE   HN217316   0.387   6.703   6.584 -1.6224  1.0925  1.2547
  156SAPE   HN317317   0.235   6.647   6.553  0.5938 -1.4487  0.5183
  156SAPE   C1217318   0.261   6.848   6.487 -0.3022  0.4168 -0.4834
  156SAPE  H12A17319   0.155   6.841   6.453 -0.7019  2.7832  0.0965
  156SAPE  H12B17320   0.315   6.884   6.396  1.5827  0.9534  0.7995
  156SAPE   C1117321   0.293   6.944   6.607  0.6086  1.1163  0.3849
  156SAPE  H11A17322   0.237   6.912   6.697 -0.3891  0.5667 -0.4174
  156SAPE  H11B17323   0.255   7.046   6.585  0.0759  0.8308 -0.0437
  156SAPE     P17324   0.530   7.040   6.545  0.2437 -0.3469 -0.1774
  156SAPE   O1317325   0.661   6.975   6.546 -0.5743  0.5667 -0.2553
  156SAPE   O1417326   0.465   7.056   6.411 -0.2223 -0.6271  0.3659
  156SAPE   O1217327   0.432   6.950   6.636 -1.2964 -0.2475  0.1594
  156SAPE   O1117328   0.540   7.176   6.622  0.2947 -0.7228 -0.2421
  156SAPE    C117329   0.547   7.181   6.771 -0.1237  0.1663  0.2887
  156SAPE    HA17330   0.455   7.231   6.808 -0.4284  0.0787 -0.3279
  156SAPE    HB17331   0.551   7.082   6.821 -3.5375 -0.5748 -0.6362
  156SAPE    C217332   0.671   7.272   6.813  0.3350 -0.4393  0.2833
  156SAPE    HS17333   0.665   7.381   6.791  1.4167 -0.0627  1.6935
  156SAPE   O2117334   0.786   7.210   6.759 -0.0167 -0.0516  0.2010
  156SAPE   C2117335   0.840   7.261   6.653 -0.4079  0.0518 -0.1721
  156SAPE   O2217336   0.808   7.368   6.602 -0.8833 -0.3799 -0.2606
  156SAPE   C2217337   0.953   7.168   6.600 -0.6588  0.2370  0.1242
  156SAPE   H2R17338   0.927   7.062   6.623 -0.2176  0.2914  0.9155
  156SAPE   H2S17339   0.954   7.188   6.491 -0.2167 -0.9061 -0.0917
  156SAPE    C317340   0.695   7.272   6.971 -0.8507 -0.2773  0.0519
  156SAPE    HX17341   0.717   7.166   6.995 -0.8684  0.0731  1.6800
  156SAPE    HY17342   0.604   7.297   7.029 -0.2741  1.7447  0.1576
  156SAPE   O3117343   0.810   7.357   7.008 -0.4395  0.2239 -0.1339
  156SAPE   C3117344   0.852   7.341   7.136  0.2949 -0.1074 -0.3913
  156SAPE   O3217345   0.806   7.266   7.218 -0.7176 -0.0459 -0.4466
  156SAPE   C3217346   0.972   7.436   7.151 -0.0217  0.2276  0.5052
  156SAPE   H2X17347   0.924   7.525   7.196  0.6745  0.7922  0.1343
  156SAPE   H2Y17348   0.997   7.470   7.049 -1.0889  0.9812  0.4855
  156SAPE   C2317349   1.085   7.211   6.658 -0.0886  0.0646  0.4005
  156SAPE   H3R17350   1.085   7.320   6.635 -1.2153 -0.2275 -1.1597
  156SAPE   H3S17351   1.162   7.153   6.602 -0.3594  0.3675 -0.2919
  156SAPE   C2417352   1.105   7.179   6.804  0.0006  0.3051 -0.4681
  156SAPE   H4R17353   1.109   7.070   6.823  0.9205 -0.1682 -2.9540
  156SAPE   H4S17354   1.028   7.225   6.868  0.0199  1.4328 -1.2246
  156SAPE   C2517355   1.233   7.246   6.845  0.1442 -0.0767  0.2664
  156SAPE   H5R17356   1.244   7.352   6.819  2.0228 -0.5938 -1.2584
  156SAPE   C2617357   1.337   7.183   6.908 -0.1504 -0.4827  0.2762
  156SAPE   H6R17358   1.414   7.255   6.941 -1.8590  1.3730  0.4345
  156SAPE   C2717359   1.343   7.040   6.952  0.0675  0.1256  0.3367
  156SAPE   H7R17360   1.244   6.990   6.955  0.9956 -1.8856 -0.6409
  156SAPE   H7S17361   1.373   7.038   7.059  0.3147 -1.6990  0.2664
  156SAPE   C2817362   1.448   6.969   6.871 -0.3703  0.0832  0.1600
  156SAPE   H8R17363   1.416   6.967   6.766 -0.4897  1.7185  0.1401
  156SAPE   C2917364   1.563   6.899   6.904  0.0823  0.5242  0.0348
  156SAPE   H9R17365   1.603   6.835   6.825  0.4718  1.8310 -0.8629
  156SAPE  C21017366   1.613   6.884   7.043 -0.1485 -0.7601 -0.2479
  156SAPE  H10R17367   1.547   6.937   7.115  0.9502 -0.5240  0.5948
  156SAPE  H10S17368   1.711   6.935   7.034 -0.6674  0.3387  0.0741
  156SAPE  C21117369   1.644   6.746   7.092 -0.3018 -0.6980  0.2270
  156SAPE  H11R17370   1.670   6.679   7.009  0.7696  1.0161 -0.8724
  156SAPE  C21217371   1.632   6.713   7.221 -1.1215 -0.1441  0.1143
  156SAPE  H12R17372   1.675   6.614   7.241  0.8865  0.1249 -2.2958
  156SAPE  C21317373   1.589   6.806   7.337  0.4175 -0.7502 -0.2420
  156SAPE  H13R17374   1.478   6.810   7.336  0.3681 -1.7796 -0.2169
  156SAPE  H13S17375   1.630   6.908   7.318 -0.2021 -0.4731 -0.1103
  156SAPE  C21417376   1.637   6.761   7.476 -1.2394 -0.3066  0.4491
  156SAPE  H14R17377   1.592   6.667   7.510  1.4119 -1.8121  0.0601
  156SAPE  C21517378   1.737   6.813   7.546 -0.1944 -0.0116 -0.4262
  156SAPE  H15R17379   1.760   6.779   7.649 -1.0174 -2.3094 -0.9430
  156SAPE  C21617380   1.825   6.927   7.507 -0.9430  0.4474  0.7424
  156SAPE  H16R17381   1.806   6.959   7.402  1.3588  1.8360  0.6822
  156SAPE  H16S17382   1.929   6.889   7.514 -1.1647  0.0674  2.3092
  156SAPE  C21717383   1.811   7.054   7.587 -0.0150  0.0539  0.1218
  156SAPE  H17R17384   1.869   7.133   7.535 -0.6942  1.3859  1.3334
  156SAPE  H17S17385   1.856   7.056   7.689 -2.1650  3.8584  1.1882
  156SAPE  C21817386   1.672   7.112   7.602  0.0065 -0.5832  0.5324
  156SAPE  H18R17387   1.594   7.034   7.618 -1.1257  0.3594 -0.2798
  156SAPE  H18S17388   1.648   7.147   7.500  2.5152  0.2473  0.1677
  156SAPE  C21917389   1.667   7.228   7.699  0.7038  0.1050  0.1517
  156SAPE  H19R17390   1.577   7.287   7.674  0.6011 -0.1954 -0.1996
  156SAPE  H19S17391   1.750   7.298   7.674 -1.1126  1.9257 -1.0806
  156SAPE  C22017392   1.664   7.209   7.856  0.1336  0.1661  0.6948
  156SAPE  H20R17393   1.562   7.174   7.884 -1.3738  3.6237  0.0585
  156SAPE  H20S17394   1.674   7.306   7.909  2.7926  0.4192 -0.1072
  156SAPE  H20T17395   1.736   7.131   7.889 -2.0623 -1.9781  0.7376
  156SAPE   C3317396   1.089   7.390   7.247 -0.1284  0.4672 -0.3120
  156SAPE   H3X17397   1.180   7.446   7.217 -0.2818  1.3113  0.7503
  156SAPE   H3Y17398   1.108   7.282   7.228 -2.0112 -0.1918  1.2264
  156SAPE   C3417399   1.051   7.410   7.395  0.1819  0.3375 -0.1509
  156SAPE   H4X17400   0.948   7.374   7.414  0.5572 -1.0667 -0.6433
  156SAPE   H4Y17401   1.046   7.517   7.427 -1.2544  0.3851 -0.4584
  156SAPE   C3517402   1.165   7.363   7.485  0.1911  0.0532  0.3777
  156SAPE   H5X17403   1.248   7.435   7.499  1.2674 -1.2972  1.1989
  156SAPE   H5Y17404   1.220   7.275   7.444 -0.2905 -0.7399  1.3786
  156SAPE   C3617405   1.118   7.328   7.627  0.2027 -0.1312 -0.0343
  156SAPE   H6X17406   1.043   7.247   7.622  1.2266 -1.1739  0.8524
  156SAPE   H6Y17407   1.043   7.406   7.651  1.8258  1.6246 -0.3966
  156SAPE   C3717408   1.227   7.318   7.742 -0.5425  0.5903  0.0685
  156SAPE   H7X17409   1.321   7.284   7.693 -0.3151 -0.0204  0.9172
  156SAPE   H7Y17410   1.194   7.248   7.821  1.2788  0.1960  0.5174
  156SAPE   C3817411   1.238   7.449   7.821 -0.0806 -1.1889 -0.3548
  156SAPE   H8X17412   1.141   7.479   7.867 -0.5226 -1.6128 -0.9767
  156SAPE   H8Y17413   1.255   7.534   7.751 -1.2185  0.9324  1.7848
  156SAPE   C3917414   1.360   7.457   7.911  0.0432 -0.5266  0.5692
  156SAPE   H9X17415   1.447   7.434   7.845  0.1960  1.3317  0.0552
  156SAPE   H9Y17416   1.350   7.379   7.989  2.2360 -0.8177  0.6147
  156SAPE  C31017417   1.385   7.592   7.973 -0.5898  1.0864  1.0621
  156SAPE  H10X17418   1.294   7.639   8.015 -1.3316  0.1112  0.5984
  156SAPE  H10Y17419   1.416   7.659   7.891  4.8168  0.1664  1.9754
  156SAPE  C31117420   1.503   7.584   8.067  0.3684 -0.6599  0.2887
  156SAPE  H11X17421   1.589   7.536   8.016 -1.6810 -3.2093 -1.0150
  156SAPE  H11Y17422   1.481   7.513   8.150 -1.6787 -1.1127 -0.5734
  156SAPE  C31217423   1.550   7.725   8.122 -0.1871 -0.9331 -0.1667
  156SAPE  H12X17424   1.463   7.756   8.183 -0.2563  0.0019 -0.7326
  156SAPE  H12Y17425   1.555   7.802   8.043  1.6438  0.9970  1.6939
  156SAPE  C31317426   1.680   7.714   8.203 -0.7381  0.3889  0.4450
  156SAPE  H13X17427   1.689   7.813   8.254 -4.8316  0.7204  0.9010
  156SAPE  H13Y17428   1.771   7.689   8.145 -0.8416 -1.8740  1.1701
  156SAPE  C31417429   1.672   7.614   8.313 -0.3421  0.0030 -0.2579
  156SAPE  H14X17430   1.663   7.512   8.269 -0.0826 -0.6100  1.0594
  156SAPE  H14Y17431   1.587   7.641   8.380  2.4558  1.8283  2.8811
  156SAPE  C31517432   1.789   7.629   8.414 -0.8308 -0.2986 -0.1501
  156SAPE  H15X17433   1.875   7.649   8.346  0.3375  0.0193  1.3642
  156SAPE  H15Y17434   1.814   7.525   8.446  0.6679 -0.2354 -1.0058
  156SAPE  C31617435   1.777   7.728   8.526  0.0120  0.2512 -0.5765
  156SAPE  H16X17436   1.732   7.675   8.612  2.8286 -0.5179  0.5173
  156SAPE  H16Y17437   1.722   7.818   8.492 -1.5179  0.2457  1.6780
  156SAPE  C31717438   1.918   7.773   8.575  0.3109  0.9186 -0.1617
  156SAPE  H17X17439   1.892   7.860   8.640  3.3740  0.5958  1.6559
  156SAPE  H17Y17440   1.977   7.816   8.491  2.9192 -1.4999  0.2880
  156SAPE  C31817441   2.000   7.664   8.637 -0.3876  0.2054  0.6952
  156SAPE  H18X17442   2.021   7.587   8.559 -0.9129  1.5723 -0.8446
  156SAPE  H18Y17443   1.929   7.614   8.706 -1.7817 -0.2784 -1.0288
  156SAPE  H18Z17444   2.100   7.701   8.669 -0.7684  1.8985 -0.0054
  157SAPE     N17445   3.074   4.080   5.927  0.2298 -0.8838  0.1977
  157SAPE   HN117446   3.039   4.040   6.016 -1.4588  1.1989  0.5606
  157SAPE   HN217447   3.048   4.181   5.927 -0.0521 -0.9566  0.0959
  157SAPE   HN317448   3.038   4.034   5.841 -1.4652  2.7765 -1.2696
  157SAPE   C1217449   3.220   4.056   5.934  0.3016 -0.5961  0.4296
  157SAPE  H12A17450   3.268   4.127   5.863  1.1980 -0.4385  1.1706
  157SAPE  H12B17451   3.231   3.946   5.922  0.2953 -0.7207  1.4897
  157SAPE   C1117452   3.264   4.105   6.078 -0.5037 -0.0582 -0.6317
  157SAPE  H11A17453   3.375   4.096   6.079 -0.6094 -1.9063  0.8693
  157SAPE  H11B17454   3.222   4.033   6.151 -0.7021  1.2328  0.5701
  157SAPE     P17455   3.188   4.307   6.241  0.1737  0.1640 -0.0756
  157SAPE   O1317456   3.149   4.444   6.211  0.0055 -0.6292  0.3899
  157SAPE   O1417457   3.086   4.224   6.310 -0.0052  0.7179  0.0144
  157SAPE   O1217458   3.228   4.240   6.104 -0.3038 -0.1451 -0.2710
  157SAPE   O1117459   3.325   4.299   6.318  0.4130 -0.0455 -0.3825
  157SAPE    C117460   3.349   4.389   6.432  0.0194  0.0324 -0.2627
  157SAPE    HA17461   3.437   4.452   6.404 -0.4257  0.4428 -0.7627
  157SAPE    HB17462   3.271   4.464   6.456  0.3197 -0.4698  2.6632
  157SAPE    C217463   3.353   4.308   6.576 -0.0607  0.2212  0.2367
  157SAPE    HS17464   3.432   4.230   6.569 -0.8065 -0.5964  0.7933
  157SAPE   O2117465   3.230   4.241   6.598 -0.1435 -0.0172  0.6789
  157SAPE   C2117466   3.238   4.124   6.667 -0.3255 -0.1731  0.1888
  157SAPE   O2217467   3.339   4.063   6.698  0.2179 -0.0230  0.1823
  157SAPE   C2217468   3.090   4.101   6.713  0.1252  0.5260  0.0200
  157SAPE   H2R17469   3.043   4.201   6.722 -0.2768  0.4860 -1.3489
  157SAPE   H2S17470   3.039   4.054   6.626 -1.8713  0.9224  0.9275
  157SAPE    C317471   3.379   4.406   6.691 -0.4507  0.5024 -0.8900
  157SAPE    HX17472   3.293   4.474   6.710 -0.7952 -0.5752  1.7838
  157SAPE    HY17473   3.466   4.468   6.660  0.2300  0.3254  0.5992
  157SAPE   O3117474   3.413   4.341   6.815 -0.4182  0.2359 -0.1256
  157SAPE   C3117475   3.454   4.429   6.909 -0.2812 -0.5281 -0.2724
  157SAPE   O3217476   3.463   4.550   6.888  0.4147 -0.0558 -0.7201
  157SAPE   C3217477   3.476   4.353   7.035 -0.1214  1.3228 -0.2666
  157SAPE   H2X17478   3.585   4.331   7.028 -0.6952 -1.9386 -0.4881
  157SAPE   H2Y17479   3.414   4.261   7.026 -2.1576  2.6050  0.0139
  157SAPE   C2317480   3.084   4.003   6.835 -0.0134 -0.5200  0.1881
  157SAPE   H3R17481   3.123   4.045   6.930  0.3199 -0.4774  0.0332
  157SAPE   H3S17482   3.150   3.924   6.794  2.0758  0.9937  0.4977
  157SAPE   C2417483   2.939   3.947   6.865 -0.0005 -0.1202 -0.4119
  157SAPE   H4R17484   2.921   3.869   6.788  0.2544  0.0388 -0.6349
  157SAPE   H4S17485   2.866   4.030   6.851  0.0971  0.4063  1.8379
  157SAPE   C2517486   2.926   3.897   7.003  0.8318  0.1132 -0.1081
  157SAPE   H5R17487   2.976   3.800   7.019  1.9532  0.6874 -0.0671
  157SAPE   C2617488   2.833   3.945   7.095 -0.3687 -0.1980  0.4037
  157SAPE   H6R17489   2.822   3.899   7.195 -1.7340  1.1236  0.9110
  157SAPE   C2717490   2.733   4.058   7.058 -0.4007 -0.5640 -0.7787
  157SAPE   H7R17491   2.785   4.144   7.010 -0.3392 -0.0513  0.1908
  157SAPE   H7S17492   2.722   4.095   7.162 -0.1069  1.9633 -1.5830
  157SAPE   C2817493   2.608   4.013   6.994 -0.2541  0.2250  0.0638
  157SAPE   H8R17494   2.613   4.020   6.885  1.1869 -3.8007 -0.3040
  157SAPE   C2917495   2.507   3.951   7.059  0.3186 -0.2448 -0.0367
  157SAPE   H9R17496   2.428   3.923   6.988  1.1095 -2.3704 -0.1502
  157SAPE  C21017497   2.496   3.931   7.206  0.3176  0.2262 -0.0144
  157SAPE  H10R17498   2.592   3.895   7.250 -1.1377 -3.0466  0.8409
  157SAPE  H10S17499   2.424   3.851   7.236 -0.8016  0.5945 -1.6069
  157SAPE  C21117500   2.430   4.051   7.272  0.4360 -0.6945 -0.3484
  157SAPE  H11R17501   2.356   4.102   7.208  1.1188  0.5373 -0.1992
  157SAPE  C21217502   2.463   4.109   7.392 -0.2954 -0.0643  0.3881
  157SAPE  H12R17503   2.414   4.197   7.436 -1.7852 -1.2160  1.1366
  157SAPE  C21317504   2.573   4.072   7.491  0.1654  0.2238 -0.6899
  157SAPE  H13R17505   2.667   4.125   7.467  0.6017  0.3147  1.1046
  157SAPE  H13S17506   2.600   3.966   7.473  3.3861  0.2585  2.7074
  157SAPE  C21417507   2.530   4.074   7.640  0.3895 -0.4557 -0.0035
  157SAPE  H14R17508   2.430   4.117   7.658  0.1940 -1.1498  0.6049
  157SAPE  C21517509   2.613   4.048   7.742 -0.2633  0.1811 -0.8174
  157SAPE  H15R17510   2.573   4.048   7.844  1.8052  0.7714  0.0559
  157SAPE  C21617511   2.756   4.014   7.728 -0.0278  0.9632 -0.2663
  157SAPE  H16R17512   2.819   4.080   7.664 -1.5589  0.2225 -2.6562
  157SAPE  H16S17513   2.756   3.915   7.679 -0.8196 -0.1196  1.7856
  157SAPE  C21717514   2.826   4.001   7.866  0.4537 -0.3289 -0.8642
  157SAPE  H17R17515   2.922   3.946   7.860  0.5436 -0.0966 -1.7218
  157SAPE  H17S17516   2.753   3.943   7.925  0.5869 -0.4181 -0.7886
  157SAPE  C21817517   2.856   4.138   7.939 -0.5697  0.2282 -0.1794
  157SAPE  H18R17518   2.770   4.191   7.985 -1.6560 -1.8647  0.3438
  157SAPE  H18S17519   2.891   4.205   7.858 -0.4842 -0.7439 -0.9658
  157SAPE  C21917520   2.964   4.123   8.052 -0.1797 -0.4880  0.0427
  157SAPE  H19R17521   2.979   4.226   8.090  1.0943 -0.6780  0.0783
  157SAPE  H19S17522   3.065   4.103   8.010  1.1453  2.4340  1.5422
  157SAPE  C22017523   2.935   4.037   8.176 -0.2985  0.5612 -0.1335
  157SAPE  H20R17524   2.928   4.100   8.268  0.4186  0.4157  0.0233
  157SAPE  H20S17525   3.017   3.967   8.203 -0.8494 -1.4990 -3.3021
  157SAPE  H20T17526   2.844   3.973   8.167  0.8039 -1.1082  0.0983
  157SAPE   C3317527   3.460   4.420   7.169 -0.2821  0.2549 -0.8466
  157SAPE   H3X17528   3.358   4.447   7.203  0.2748  0.2830  0.9189
  157SAPE   H3Y17529   3.521   4.512   7.161  1.4105 -0.8489 -1.1927
  157SAPE   C3417530   3.539   4.350   7.288 -0.6330 -0.7094  0.1678
  157SAPE   H4X17531   3.649   4.367   7.286 -0.4675 -1.6575  0.6612
  157SAPE   H4Y17532   3.524   4.240   7.281 -0.3438 -0.7087 -0.6279
  157SAPE   C3517533   3.495   4.408   7.426  0.6014 -0.2934 -1.5440
  157SAPE   H5X17534   3.384   4.397   7.433  0.4463  1.9929  1.5979
  157SAPE   H5Y17535   3.518   4.516   7.436 -2.2924  0.1947  1.7123
  157SAPE   C3617536   3.564   4.333   7.544 -0.1340  0.3866 -0.0796
  157SAPE   H6X17537   3.672   4.350   7.527 -0.4254  2.4327 -0.0991
  157SAPE   H6Y17538   3.529   4.227   7.547  0.8018  0.0793  2.8397
  157SAPE   C3717539   3.543   4.398   7.680 -0.0670 -0.2523 -0.2540
  157SAPE   H7X17540   3.435   4.378   7.695  0.4077 -1.7523  1.5780
  157SAPE   H7Y17541   3.557   4.508   7.678  1.6131 -0.4479 -0.5917
  157SAPE   C3817542   3.605   4.328   7.808 -0.2748 -0.4126 -0.3378
  157SAPE   H8X17543   3.716   4.335   7.800 -0.2797  0.1520  0.0583
  157SAPE   H8Y17544   3.583   4.219   7.806 -1.6289 -0.1734 -2.8358
  157SAPE   C3917545   3.554   4.398   7.936 -0.2966  0.0603  0.6673
  157SAPE   H9X17546   3.443   4.406   7.927 -0.0935  1.1928 -1.2486
  157SAPE   H9Y17547   3.602   4.497   7.921  0.9348 -0.5802  0.2556
  157SAPE  C31017548   3.597   4.324   8.059  0.4726 -0.1794  0.4352
  157SAPE  H10X17549   3.698   4.289   8.031  0.1893 -0.3000 -0.4896
  157SAPE  H10Y17550   3.541   4.230   8.077 -0.0064  0.3362  1.8189
  157SAPE  C31117551   3.602   4.405   8.185 -0.7809  1.1111  0.2461
  157SAPE  H11X17552   3.499   4.438   8.213 -1.0248 -0.3050  1.1480
  157SAPE  H11Y17553   3.664   4.494   8.161  1.5249 -0.7743 -1.2127
  157SAPE  C31217554   3.670   4.345   8.311  0.5037 -0.1822  0.4008
  157SAPE  H12X17555   3.725   4.432   8.352  1.3078 -1.0551  1.2085
  157SAPE  H12Y17556   3.741   4.262   8.290 -0.1633 -0.7741  0.4667
  157SAPE  C31317557   3.569   4.301   8.422 -0.4131 -0.0447 -0.4644
  157SAPE  H13X17558   3.508   4.233   8.359 -1.5832 -0.9807  1.5890
  157SAPE  H13Y17559   3.519   4.391   8.462  0.4013  0.1107  0.2417
  157SAPE  C31417560   3.632   4.217   8.537  0.2111  0.3254 -0.0907
  157SAPE  H14X17561   3.704   4.146   8.491 -0.9735 -1.0763  0.1388
  157SAPE  H14Y17562   3.552   4.159   8.589  0.4028 -1.0371 -1.2599
  157SAPE  C31517563   3.691   4.307   8.642 -0.2279  0.3584 -0.9363
  157SAPE  H15X17564   3.613   4.373   8.685  1.3855  0.9722  1.1892
  157SAPE  H15Y17565   3.764   4.382   8.604  1.6263  0.1968  2.0387
  157SAPE  C31617566   3.752   4.226   8.759  0.4828 -0.3348 -0.0447
  157SAPE  H16X17567   3.790   4.302   8.830  0.8334 -1.2222  0.7488
  157SAPE  H16Y17568   3.835   4.168   8.714  1.8169  1.1619  0.3912
  157SAPE  C31717569   3.653   4.144   8.842 -0.8289  0.0680 -0.0525
  157SAPE  H17X17570   3.713   4.080   8.910  1.3283  2.7823  0.7996
  157SAPE  H17Y17571   3.607   4.068   8.775 -0.0854 -0.9391  0.5637
  157SAPE  C31817572   3.547   4.212   8.927 -0.2518 -0.3198 -0.1217
  157SAPE  H18X17573   3.478   4.139   8.975 -0.9868  0.6617  0.3762
  157SAPE  H18Y17574   3.492   4.295   8.877  0.2557  0.5596  0.7479
  157SAPE  H18Z17575   3.600   4.270   9.005 -0.4853  1.4325 -1.2159
  158SAPE     N17576   1.667   6.260   6.091 -0.1796  0.4540  0.4946
  158SAPE   HN117577   1.650   6.325   6.170 -0.0363 -0.5116  1.3294
  158SAPE   HN217578   1.700   6.170   6.130 -0.3215  0.5378  0.8085
  158SAPE   HN317579   1.740   6.300   6.029 -1.8616 -1.1105 -2.7657
  158SAPE   C1217580   1.547   6.236   6.008 -0.5187  0.2818 -0.1540
  158SAPE  H12A17581   1.564   6.137   5.960 -0.2088  0.6685 -0.8528
  158SAPE  H12B17582   1.544   6.312   5.927  0.2161  1.5437  0.9762
  158SAPE   C1117583   1.424   6.244   6.095 -0.2474 -0.1310 -0.4933
  158SAPE  H11A17584   1.407   6.152   6.156 -2.8445  0.9611  0.5984
  158SAPE  H11B17585   1.327   6.257   6.042 -1.1302 -0.2908  1.0075
  158SAPE     P17586   1.343   6.374   6.316 -0.0736 -0.0327 -0.2924
  158SAPE   O1317587   1.361   6.512   6.372 -0.1514 -0.5870  0.3577
  158SAPE   O1417588   1.209   6.324   6.293 -0.1621 -0.3221 -0.0802
  158SAPE   O1217589   1.434   6.362   6.182 -0.2194  0.6933 -0.3570
  158SAPE   O1117590   1.425   6.268   6.398  0.4616  0.0789  0.0624
  158SAPE    C117591   1.389   6.238   6.534 -0.4004 -0.0345  0.6994
  158SAPE    HA17592   1.279   6.226   6.541 -0.3732 -3.2325 -1.9415
  158SAPE    HB17593   1.438   6.145   6.571  0.4579  0.9132  2.0218
  158SAPE    C217594   1.439   6.353   6.631  0.5095  0.9752  0.0652
  158SAPE    HS17595   1.378   6.442   6.603 -0.9292 -0.9392 -3.7281
  158SAPE   O2117596   1.576   6.378   6.610 -0.2094  0.5784 -0.3269
  158SAPE   C2117597   1.638   6.483   6.664 -0.1335  0.9676 -0.0811
  158SAPE   O2217598   1.578   6.579   6.713 -0.2157  0.2474 -0.1004
  158SAPE   C2217599   1.790   6.465   6.656 -0.2042  0.4451 -0.9594
  158SAPE   H2R17600   1.814   6.447   6.549 -0.9466  0.7775 -1.1846
  158SAPE   H2S17601   1.840   6.560   6.684 -1.1501  0.6132  0.2194
  158SAPE    C317602   1.423   6.320   6.781 -0.0086  0.4421 -0.0031
  158SAPE    HX17603   1.512   6.277   6.833 -0.8629 -0.7183  0.5699
  158SAPE    HY17604   1.348   6.237   6.787 -1.3791  1.6627  0.2738
  158SAPE   O3117605   1.377   6.432   6.853 -0.8786 -0.1757 -0.1909
  158SAPE   C3117606   1.276   6.427   6.931  0.6467  0.1413 -0.2550
  158SAPE   O3217607   1.211   6.330   6.958  0.5976 -0.2472 -0.1774
  158SAPE   C3217608   1.268   6.567   6.994  0.1622 -0.1295 -0.3658
  158SAPE   H2X17609   1.214   6.629   6.919 -3.8856  0.6419  2.8217
  158SAPE   H2Y17610   1.374   6.591   7.020  0.0131  0.8191 -0.5916
  158SAPE   C2317611   1.842   6.358   6.761  0.5488  0.0941 -0.6438
  158SAPE   H3R17612   1.949   6.333   6.746  0.5321 -1.8402  1.8754
  158SAPE   H3S17613   1.782   6.265   6.769  0.1542  0.2272 -1.7937
  158SAPE   C2417614   1.836   6.411   6.908 -0.2842 -0.3617 -0.4071
  158SAPE   H4R17615   1.730   6.413   6.941 -1.3879 -0.8420 -3.5048
  158SAPE   H4S17616   1.864   6.518   6.903  1.1270 -0.7185 -0.6846
  158SAPE   C2517617   1.929   6.344   7.005  0.1138 -0.2504  0.3481
  158SAPE   H5R17618   1.940   6.234   7.005  0.4766 -0.2182 -0.1410
  158SAPE   C2617619   2.015   6.407   7.086 -0.1780  0.1272  0.3905
  158SAPE   H6R17620   2.060   6.335   7.156 -2.2463 -2.1913 -0.5205
  158SAPE   C2717621   2.053   6.554   7.110 -0.2613  0.2697  0.1565
  158SAPE   H7R17622   1.994   6.588   7.198  0.0998  0.0697  0.4794
  158SAPE   H7S17623   2.031   6.624   7.026  0.8842  1.2056  0.6037
  158SAPE   C2817624   2.199   6.575   7.150 -0.5948  0.1833  0.1904
  158SAPE   H8R17625   2.258   6.607   7.063 -2.2682  2.1101 -0.3124
  158SAPE   C2917626   2.261   6.561   7.266  0.6701  0.5527 -0.5257
  158SAPE   H9R17627   2.365   6.596   7.279  0.4403  0.8122  0.7863
  158SAPE  C21017628   2.200   6.514   7.396  0.9958  0.3186 -0.3597
  158SAPE  H10R17629   2.091   6.536   7.401  1.1812  1.2279 -0.1472
  158SAPE  H10S17630   2.246   6.568   7.481  2.2822  1.2145 -1.5795
  158SAPE  C21117631   2.205   6.368   7.436  1.0759 -0.2525  0.3868
  158SAPE  H11R17632   2.128   6.296   7.404  1.5149 -0.8278  0.6100
  158SAPE  C21217633   2.305   6.316   7.511 -0.3531 -0.7507  0.0255
  158SAPE  H12R17634   2.299   6.208   7.531 -1.4911 -1.3353 -2.9158
  158SAPE  C21317635   2.427   6.380   7.568  0.5748 -0.0636 -0.0294
  158SAPE  H13R17636   2.463   6.326   7.658 -1.1292 -0.6072  0.3638
  158SAPE  H13S17637   2.381   6.473   7.608 -1.4029 -1.0420  0.1181
  158SAPE  C21417638   2.548   6.411   7.474 -0.0015  0.0580 -0.1234
  158SAPE  H14R17639   2.527   6.426   7.367 -0.6649 -0.4601 -0.0770
  158SAPE  C21517640   2.673   6.400   7.522  0.4463 -0.1840  0.0176
  158SAPE  H15R17641   2.764   6.420   7.465  1.7125  0.7553  2.2387
  158SAPE  C21617642   2.703   6.387   7.672 -0.0487 -0.2744  0.1346
  158SAPE  H16R17643   2.634   6.443   7.739 -0.6274  2.0992 -2.2541
  158SAPE  H16S17644   2.800   6.436   7.696 -0.8488  2.4172 -1.6084
  158SAPE  C21717645   2.711   6.248   7.734  0.2505  0.6857 -0.5328
  158SAPE  H17R17646   2.614   6.195   7.722  0.4128  0.5313 -1.2093
  158SAPE  H17S17647   2.729   6.256   7.844 -0.7316  2.0751 -0.4374
  158SAPE  C21817648   2.814   6.155   7.666  0.0104 -0.2240  0.1606
  158SAPE  H18R17649   2.918   6.193   7.672 -0.5677  2.6090 -3.6514
  158SAPE  H18S17650   2.794   6.150   7.557 -1.2531 -1.6115  0.4201
  158SAPE  C21917651   2.790   6.023   7.731 -0.3105  0.2230 -0.2798
  158SAPE  H19R17652   2.697   5.983   7.684  1.1778 -1.1953 -2.1273
  158SAPE  H19S17653   2.781   6.021   7.842  0.7101 -3.8230 -0.0991
  158SAPE  C22017654   2.898   5.923   7.690 -0.0369 -0.0487  0.3606
  158SAPE  H20R17655   2.897   5.828   7.747  1.1274 -0.9599 -1.0539
  158SAPE  H20S17656   3.000   5.961   7.714 -0.0989  1.6729 -1.7958
  158SAPE  H20T17657   2.905   5.899   7.581 -1.4657  1.0839 -0.0079
  158SAPE   C3317658   1.198   6.567   7.134 -0.0730 -0.4938 -0.7442
  158SAPE   H3X17659   1.096   6.522   7.130 -0.6902  0.6326  0.9699
  158SAPE   H3Y17660   1.190   6.676   7.154  0.8347 -0.3926 -0.8827
  158SAPE   C3417661   1.274   6.499   7.250 -0.0148 -0.1318  0.3892
  158SAPE   H4X17662   1.382   6.527   7.244  0.3329 -1.6617 -1.6722
  158SAPE   H4Y17663   1.292   6.392   7.228  1.8105  0.0983  0.6129
  158SAPE   C3517664   1.218   6.515   7.391  0.2389  1.0438  0.2064
  158SAPE   H5X17665   1.115   6.472   7.397 -0.1101  1.7805 -0.3293
  158SAPE   H5Y17666   1.207   6.622   7.417 -1.9373  0.6419  1.2304
  158SAPE   C3617667   1.298   6.459   7.503 -0.5092 -0.0688 -0.1619
  158SAPE   H6X17668   1.396   6.511   7.517 -0.9537  0.8080 -0.2301
  158SAPE   H6Y17669   1.323   6.352   7.488  0.4090  0.2099 -0.7106
  158SAPE   C3717670   1.220   6.477   7.633  0.5952  0.2505  0.4318
  158SAPE   H7X17671   1.215   6.587   7.644  0.5744  0.2728  0.2035
  158SAPE   H7Y17672   1.125   6.422   7.611  1.4951 -0.9984 -0.4518
  158SAPE   C3817673   1.284   6.416   7.757  0.4583  0.1593  0.0057
  158SAPE   H8X17674   1.308   6.309   7.738  1.0417  0.2027  0.4893
  158SAPE   H8Y17675   1.215   6.415   7.845  1.3127  0.2872  0.6816
  158SAPE   C3917676   1.396   6.510   7.799  0.5328  0.3990 -0.4730
  158SAPE   H9X17677   1.365   6.614   7.775 -2.4147 -0.4501 -0.7861
  158SAPE   H9Y17678   1.485   6.490   7.736  1.3129 -2.7608  1.4311
  158SAPE  C31017679   1.436   6.501   7.945 -0.6485 -0.3323 -0.7883
  158SAPE  H10X17680   1.344   6.516   8.006  0.2687  0.3394  0.4830
  158SAPE  H10Y17681   1.509   6.580   7.974 -1.2902 -0.7436  2.2384
  158SAPE  C31117682   1.511   6.369   7.968  0.0255 -0.4846 -0.2108
  158SAPE  H11X17683   1.599   6.374   7.900  1.5330 -2.0784  1.4973
  158SAPE  H11Y17684   1.450   6.287   7.924 -0.8715 -0.1175  0.3134
  158SAPE  C31217685   1.562   6.340   8.107  0.0876 -0.0361  0.8154
  158SAPE  H12X17686   1.489   6.370   8.185 -0.4639 -2.7958  1.4659
  158SAPE  H12Y17687   1.655   6.395   8.132  0.2732 -0.7788  1.8461
  158SAPE  C31317688   1.593   6.191   8.124  0.2041  0.5630 -0.1966
  158SAPE  H13X17689   1.687   6.171   8.068  0.1143  2.0499 -0.9201
  158SAPE  H13Y17690   1.518   6.130   8.069  1.1553  0.9118 -1.9769
  158SAPE  C31417691   1.603   6.140   8.262 -0.0442  0.4730 -0.3864
  158SAPE  H14X17692   1.611   6.030   8.258 -1.2500  0.4013 -1.1498
  158SAPE  H14Y17693   1.512   6.164   8.321  0.2778 -0.3009  0.4453
  158SAPE  C31517694   1.737   6.184   8.334  0.4394  0.0960 -0.4150
  158SAPE  H15X17695   1.758   6.285   8.295  0.6256 -0.5503 -2.0933
  158SAPE  H15Y17696   1.815   6.113   8.298 -0.5096 -0.2862 -1.7808
  158SAPE  C31617697   1.740   6.188   8.494 -0.3852 -0.2506 -0.7829
  158SAPE  H16X17698   1.741   6.086   8.538 -2.7287  0.4089  1.0004
  158SAPE  H16Y17699   1.650   6.233   8.540 -2.1644 -2.1853 -2.1982
  158SAPE  C31717700   1.858   6.257   8.561  0.3544  0.5588 -0.3782
  158SAPE  H17X17701   1.840   6.244   8.669 -0.1816 -0.0177 -0.5335
  158SAPE  H17Y17702   1.849   6.368   8.549  0.6116  1.2703  4.2139
  158SAPE  C31817703   1.994   6.190   8.529 -0.4945 -0.4813 -0.6450
  158SAPE  H18X17704   2.008   6.209   8.421 -5.0588  3.7090 -0.8537
  158SAPE  H18Y17705   2.000   6.083   8.559  2.5462  0.4239  2.7673
  158SAPE  H18Z17706   2.076   6.244   8.581 -0.6756 -1.3248  0.5488
  159SAPE     N17707   4.444   6.312   6.043 -0.0101 -0.5341  1.0464
  159SAPE   HN117708   4.387   6.369   5.977  0.0265 -1.9381 -0.2438
  159SAPE   HN217709   4.538   6.290   6.003  0.2094 -0.7857  1.6822
  159SAPE   HN317710   4.401   6.218   6.052 -2.2064  0.1757 -1.1021
  159SAPE   C1217711   4.450   6.377   6.174 -0.2197  0.0087 -0.9498
  159SAPE  H12A17712   4.543   6.439   6.170 -0.0173 -0.1856  0.2679
  159SAPE  H12B17713   4.454   6.302   6.256 -0.8053  2.0567  1.0713
  159SAPE   C1117714   4.335   6.475   6.191 -0.6489  0.6610  0.2034
  159SAPE  H11A17715   4.353   6.546   6.274  0.5913  1.1008 -0.4249
  159SAPE  H11B17716   4.241   6.421   6.216  0.1908 -0.3935  1.1877
  159SAPE     P17717   4.379   6.700   6.060 -0.1229  0.1590  0.2481
  159SAPE   O1317718   4.461   6.703   5.935  0.4293 -0.0584  0.6503
  159SAPE   O1417719   4.277   6.803   6.086 -0.1377  0.2084 -0.0605
  159SAPE   O1217720   4.323   6.553   6.080  0.4286 -0.6415  0.3445
  159SAPE   O1117721   4.484   6.708   6.176 -0.0689  0.0457 -0.2749
  159SAPE    C117722   4.529   6.829   6.234 -0.3934  0.3025 -0.2206
  159SAPE    HA17723   4.624   6.854   6.183  2.0667 -2.4871  2.6181
  159SAPE    HB17724   4.454   6.910   6.228  0.0156  0.8346  1.3936
  159SAPE    C217725   4.559   6.810   6.383 -0.0389  0.7957 -0.8864
  159SAPE    HS17726   4.475   6.752   6.426  0.8167 -0.3559 -0.7178
  159SAPE   O2117727   4.566   6.940   6.433  0.4240 -0.0850  0.3207
  159SAPE   C2117728   4.450   6.988   6.478 -0.1010 -0.1135 -1.3883
  159SAPE   O2217729   4.343   6.936   6.456  0.3030 -0.2719 -0.4240
  159SAPE   C2217730   4.469   7.126   6.541 -0.7911 -0.0425  0.1484
  159SAPE   H2R17731   4.577   7.149   6.554 -0.8023  0.3635 -0.4291
  159SAPE   H2S17732   4.430   7.208   6.477  0.4508  0.7240  0.3331
  159SAPE    C317733   4.695   6.735   6.420  0.0148 -0.3964 -0.0588
  159SAPE    HX17734   4.767   6.771   6.344 -1.7968  1.6662 -0.9057
  159SAPE    HY17735   4.697   6.625   6.404  2.3345 -0.3383 -0.4819
  159SAPE   O3117736   4.758   6.765   6.550 -0.9008 -0.1997  0.5274
  159SAPE   C3117737   4.697   6.706   6.651  0.1807 -0.4420 -0.8542
  159SAPE   O3217738   4.593   6.642   6.643 -0.1751 -0.7453  0.1775
  159SAPE   C3217739   4.762   6.771   6.777 -0.0637  0.4615  0.2913
  159SAPE   H2X17740   4.785   6.878   6.757  0.4583  0.0189 -1.7941
  159SAPE   H2Y17741   4.862   6.723   6.786  0.3288  1.5223  1.9040
  159SAPE   C2317742   4.395   7.140   6.677 -0.4322  0.2857  0.4171
  159SAPE   H3R17743   4.426   7.057   6.744 -0.7554  0.3242  0.6122
  159SAPE   H3S17744   4.286   7.135   6.657 -0.6921  1.9534  1.2381
  159SAPE   C2417745   4.443   7.261   6.750 -0.1029  0.4688 -0.0226
  159SAPE   H4R17746   4.422   7.348   6.684 -1.0257 -0.1776 -0.6088
  159SAPE   H4S17747   4.553   7.247   6.762  0.0230  1.5471  0.1630
  159SAPE   C2517748   4.374   7.266   6.885  0.0244  0.1589 -0.5716
  159SAPE   H5R17749   4.265   7.278   6.873 -0.4997 -3.3700 -0.3843
  159SAPE   C2617750   4.420   7.234   7.007  0.0362 -0.3173 -0.7968
  159SAPE   H6R17751   4.348   7.239   7.090  0.5731 -2.4903 -0.1484
  159SAPE   C2717752   4.559   7.198   7.056 -0.0051 -0.1267 -0.1675
  159SAPE   H7R17753   4.598   7.287   7.108  3.0838 -2.1267  1.1958
  159SAPE   H7S17754   4.636   7.174   6.980  0.3931 -0.0303  0.2058
  159SAPE   C2817755   4.549   7.082   7.158  0.1274 -0.6871  0.1379
  159SAPE   H8R17756   4.531   6.987   7.107 -0.3159  0.4730 -1.9861
  159SAPE   C2917757   4.550   7.093   7.292  0.1241 -1.1473 -0.5775
  159SAPE   H9R17758   4.554   6.998   7.348 -1.8747  0.0027  1.7269
  159SAPE  C21017759   4.565   7.219   7.378  0.4428 -0.5131  0.9348
  159SAPE  H10R17760   4.492   7.208   7.461  0.6909  0.0677  1.2327
  159SAPE  H10S17761   4.519   7.302   7.321 -0.9127 -0.4164  2.0975
  159SAPE  C21117762   4.700   7.255   7.419 -0.8665 -0.3547 -0.3968
  159SAPE  H11R17763   4.753   7.326   7.353 -0.9729  2.1861  2.0777
  159SAPE  C21217764   4.754   7.228   7.537 -0.5606 -0.2912 -0.8395
  159SAPE  H12R17765   4.857   7.257   7.562 -1.5852  2.0440  1.0568
  159SAPE  C21317766   4.687   7.148   7.649 -0.2351  0.6949  0.7111
  159SAPE  H13R17767   4.663   7.051   7.601 -3.2797  0.9954  1.4419
  159SAPE  H13S17768   4.595   7.204   7.676 -0.6444 -0.8338  2.7835
  159SAPE  C21417769   4.778   7.130   7.763 -0.0069 -0.2421 -0.6659
  159SAPE  H14R17770   4.831   7.036   7.742  1.5484  0.3482  0.4922
  159SAPE  C21517771   4.784   7.196   7.880  0.5409 -0.2747 -0.4498
  159SAPE  H15R17772   4.856   7.156   7.953  0.3518 -0.3805 -0.3188
  159SAPE  C21617773   4.709   7.318   7.934  0.0464 -0.7259 -0.0784
  159SAPE  H16R17774   4.653   7.362   7.848  0.6158  0.4495  0.1257
  159SAPE  H16S17775   4.786   7.395   7.957  0.7337 -1.6221  0.6825
  159SAPE  C21717776   4.624   7.291   8.052  0.2614  0.2546 -0.2820
  159SAPE  H17R17777   4.529   7.244   8.017  0.2870  0.6250 -0.8608
  159SAPE  H17S17778   4.605   7.395   8.087  3.8763  0.8153  0.3950
  159SAPE  C21817779   4.684   7.218   8.169  0.2518  0.2407 -0.1436
  159SAPE  H18R17780   4.707   7.114   8.138 -1.5810  0.3636 -2.1406
  159SAPE  H18S17781   4.606   7.196   8.246  0.3910  0.4007  0.0442
  159SAPE  C21917782   4.790   7.307   8.239 -0.4953  0.0018  0.6442
  159SAPE  H19R17783   4.727   7.390   8.278  1.0338  1.7033 -0.3457
  159SAPE  H19S17784   4.866   7.346   8.168 -0.4607  1.2177  1.3268
  159SAPE  C22017785   4.871   7.236   8.345 -0.1066  0.0166  0.4000
  159SAPE  H20R17786   4.800   7.203   8.423  0.1268 -1.1714  0.1311
  159SAPE  H20S17787   4.944   7.304   8.393  0.7450 -1.1600  0.8073
  159SAPE  H20T17788   4.923   7.144   8.312 -0.8384 -1.1605  2.3431
  159SAPE   C3317789   4.673   6.765   6.907  0.7752 -0.1941 -0.8341
  159SAPE   H3X17790   4.573   6.808   6.886  0.3289 -1.3557 -1.1693
  159SAPE   H3Y17791   4.717   6.832   6.984 -0.0105 -3.0472  2.3783
  159SAPE   C3417792   4.655   6.618   6.968 -0.0178 -0.8751 -0.0195
  159SAPE   H4X17793   4.753   6.568   6.985  0.4823  0.2568  0.5431
  159SAPE   H4Y17794   4.583   6.557   6.910 -0.5453  0.4743 -0.8428
  159SAPE   C3517795   4.592   6.642   7.111 -0.3029 -0.0061  0.5796
  159SAPE   H5X17796   4.524   6.557   7.131 -0.6998  0.0354 -0.5602
  159SAPE   H5Y17797   4.524   6.730   7.108 -0.4854 -0.0411  2.2724
  159SAPE   C3617798   4.682   6.658   7.228 -0.3124 -0.1063 -0.4338
  159SAPE   H6X17799   4.767   6.728   7.208  2.0502 -2.8295 -0.5154
  159SAPE   H6Y17800   4.735   6.563   7.249  0.1013  0.0665 -0.6643
  159SAPE   C3717801   4.614   6.672   7.360  0.2527 -0.3204  0.6346
  159SAPE   H7X17802   4.551   6.583   7.378 -0.3918  0.0021  0.0468
  159SAPE   H7Y17803   4.541   6.755   7.350  0.1530 -0.5129 -0.3449
  159SAPE   C3817804   4.715   6.702   7.468 -0.1834 -0.2787  0.2113
  159SAPE   H8X17805   4.768   6.797   7.443 -1.3132  0.3378  0.0818
  159SAPE   H8Y17806   4.797   6.627   7.469  2.9145  2.7953  3.3054
  159SAPE   C3917807   4.661   6.702   7.609 -0.0002  0.2211 -0.9597
  159SAPE   H9X17808   4.609   6.606   7.629 -0.1857  0.3025 -1.0569
  159SAPE   H9Y17809   4.579   6.776   7.619  0.4178  0.6225 -0.4615
  159SAPE  C31017810   4.771   6.713   7.713 -0.2847 -0.3429 -0.1326
  159SAPE  H10X17811   4.842   6.793   7.684  0.5703 -1.1284 -0.2756
  159SAPE  H10Y17812   4.837   6.623   7.718  1.5246  0.9787  1.2416
  159SAPE  C31117813   4.722   6.728   7.860  0.0566  0.2878  0.2201
  159SAPE  H11X17814   4.649   6.646   7.878  0.4263 -0.2575 -0.6541
  159SAPE  H11Y17815   4.667   6.824   7.871 -1.6924 -0.5807 -0.4836
  159SAPE  C31217816   4.836   6.713   7.971  0.6680  0.4654 -0.4029
  159SAPE  H12X17817   4.866   6.606   7.967 -0.6463  0.1086 -2.2857
  159SAPE  H12Y17818   4.782   6.743   8.063  1.2611  0.4079 -0.0284
  159SAPE  C31317819   4.954   6.817   7.952  0.5203 -0.7893  0.5665
  159SAPE  H13X17820   4.901   6.908   7.917 -1.0431 -1.9082 -0.1270
  159SAPE  H13Y17821   5.009   6.780   7.863  0.2812  1.8586 -0.7779
  159SAPE  C31417822   5.033   6.842   8.082  0.5641  0.4842 -0.1964
  159SAPE  H14X17823   5.057   6.746   8.131  0.0957  0.3613 -0.2009
  159SAPE  H14Y17824   4.974   6.900   8.157 -1.3617 -1.0890 -0.4122
  159SAPE  C31517825   5.170   6.913   8.044 -0.6291 -0.3906  0.1470
  159SAPE  H15X17826   5.148   7.016   8.011  3.1521  0.9505  1.3260
  159SAPE  H15Y17827   5.209   6.855   7.958 -1.1795 -3.2259  1.6488
  159SAPE  C31617828   5.268   6.923   8.167 -0.3002  0.1488  0.0926
  159SAPE  H16X17829   5.292   6.821   8.205  1.1247  0.5336  0.2727
  159SAPE  H16Y17830   5.221   6.966   8.258  0.2161 -0.4541  0.6581
  159SAPE  C31717831   5.385   7.021   8.148 -0.3630 -0.4630  0.3012
  159SAPE  H17X17832   5.348   7.123   8.173 -2.8887 -1.4000  0.7642
  159SAPE  H17Y17833   5.412   7.014   8.041  0.2493 -1.5431  0.5210
  159SAPE  C31817834   5.506   6.978   8.235 -0.6850 -0.7003  0.7915
  159SAPE  H18X17835   5.552   6.880   8.211 -0.4668 -0.7846  1.5230
  159SAPE  H18Y17836   5.488   6.966   8.344 -1.2337 -1.2622  0.6411
  159SAPE  H18Z17837   5.575   7.065   8.226  0.0119 -1.3482 -0.4624
  160SAPE     N17838   4.022   2.517   6.446 -0.3455  0.5128  0.0096
  160SAPE   HN117839   4.024   2.441   6.376 -1.1753  1.0345 -0.6026
  160SAPE   HN217840   3.924   2.522   6.483 -0.7165  0.4086 -0.9406
  160SAPE   HN317841   4.036   2.604   6.390  0.4973 -0.3950 -1.2367
  160SAPE   C1217842   4.119   2.492   6.558  0.0889  0.6956 -0.8746
  160SAPE  H12A17843   4.203   2.433   6.516  0.0017  1.0265 -1.5206
  160SAPE  H12B17844   4.068   2.427   6.633 -1.3298  0.6832 -1.8198
  160SAPE   C1117845   4.165   2.625   6.619 -0.5288  0.2525 -0.1349
  160SAPE  H11A17846   4.233   2.611   6.705  3.6753 -0.6029 -3.2908
  160SAPE  H11B17847   4.070   2.676   6.648 -1.4227 -1.2751 -0.2590
  160SAPE     P17848   4.381   2.726   6.501  0.0246  0.5339 -0.2971
  160SAPE   O1317849   4.424   2.717   6.360  0.3456 -0.8113  0.1929
  160SAPE   O1417850   4.427   2.836   6.584  0.3114  0.4574 -0.1760
  160SAPE   O1217851   4.226   2.708   6.514  0.5687  0.1941  0.1910
  160SAPE   O1117852   4.426   2.592   6.568  0.5154  0.6586 -0.6860
  160SAPE    C117853   4.565   2.563   6.549 -0.6173 -0.0238 -0.7972
  160SAPE    HA17854   4.587   2.542   6.442  0.4007 -0.9152 -0.4377
  160SAPE    HB17855   4.629   2.649   6.577  0.5311 -1.1434  0.1532
  160SAPE    C217856   4.621   2.440   6.628 -0.4450 -0.1034 -0.1707
  160SAPE    HS17857   4.582   2.348   6.579  0.4288 -0.6231  0.0936
  160SAPE   O2117858   4.569   2.448   6.766  0.2778 -0.1407  0.6282
  160SAPE   C2117859   4.450   2.399   6.777 -0.2199 -0.0088 -0.0604
  160SAPE   O2217860   4.394   2.313   6.712  0.1381  0.2363 -0.5644
  160SAPE   C2217861   4.391   2.457   6.906  0.3753  0.6289 -0.2267
  160SAPE   H2R17862   4.470   2.429   6.979  0.9765 -2.5347 -1.9151
  160SAPE   H2S17863   4.390   2.568   6.903  1.5406  0.7107  1.1264
  160SAPE    C317864   4.782   2.413   6.637  0.7423 -0.4539 -0.0466
  160SAPE    HX17865   4.806   2.512   6.683  0.3765  0.0131 -0.8550
  160SAPE    HY17866   4.840   2.413   6.542  0.2357  0.9854 -0.3827
  160SAPE   O3117867   4.808   2.296   6.723 -0.1743  0.1556 -0.3623
  160SAPE   C3117868   4.939   2.299   6.759 -0.3020 -0.0199 -0.3952
  160SAPE   O3217869   5.012   2.397   6.738  0.4404  0.1888 -0.0081
  160SAPE   C3217870   4.961   2.182   6.846  0.0122  0.8367 -0.4233
  160SAPE   H2X17871   5.001   2.101   6.780 -0.8603 -1.8653  2.1486
  160SAPE   H2Y17872   4.861   2.137   6.867  0.2906  1.2520  2.0691
  160SAPE   C2317873   4.255   2.395   6.947 -0.5840  0.0329 -0.7035
  160SAPE   H3R17874   4.261   2.287   6.969  0.0811  0.2325  0.1402
  160SAPE   H3S17875   4.183   2.411   6.863 -2.4784  0.0261  0.8506
  160SAPE   C2417876   4.187   2.470   7.072 -0.0710  0.4909  0.1153
  160SAPE   H4R17877   4.243   2.434   7.161 -0.5877 -2.9292 -0.7749
  160SAPE   H4S17878   4.091   2.415   7.083  0.1076  0.6525  3.2946
  160SAPE   C2517879   4.149   2.613   7.051  0.3857  0.1670 -0.0689
  160SAPE   H5R17880   4.143   2.651   6.948  1.1149  0.0987 -0.1397
  160SAPE   C2617881   4.126   2.697   7.154 -0.2927 -0.3160 -0.4026
  160SAPE   H6R17882   4.097   2.800   7.127  1.1244  0.4269  0.7659
  160SAPE   C2717883   4.144   2.660   7.302  0.0802 -0.1134  0.3212
  160SAPE   H7R17884   4.140   2.550   7.314  0.7078 -0.6538 -3.4127
  160SAPE   H7S17885   4.059   2.703   7.359  0.5662  0.1107  0.8936
  160SAPE   C2817886   4.265   2.722   7.367  0.6860 -0.2740 -0.2928
  160SAPE   H8R17887   4.348   2.761   7.307  0.1428  0.7811 -0.3841
  160SAPE   C2917888   4.274   2.728   7.499 -0.2847 -0.3156 -0.1615
  160SAPE   H9R17889   4.360   2.780   7.543 -0.9226  1.2038 -0.6124
  160SAPE  C21017890   4.170   2.680   7.600 -0.4992 -0.5686  0.1122
  160SAPE  H10R17891   4.211   2.589   7.650  0.5851  0.5609  1.3698
  160SAPE  H10S17892   4.069   2.665   7.556 -1.1642 -0.7821  1.6363
  160SAPE  C21117893   4.138   2.777   7.712 -1.0918 -0.7858 -0.6547
  160SAPE  H11R17894   4.047   2.838   7.707 -1.1929 -0.9641 -0.9668
  160SAPE  C21217895   4.209   2.777   7.826 -0.0826 -1.0075  0.0051
  160SAPE  H12R17896   4.184   2.849   7.906 -0.3304  0.5768 -1.4592
  160SAPE  C21317897   4.323   2.686   7.858  0.1893  0.5535  0.1635
  160SAPE  H13R17898   4.353   2.633   7.765 -3.5582  0.0889 -0.9683
  160SAPE  H13S17899   4.281   2.608   7.926 -0.3817  0.3325 -0.4272
  160SAPE  C21417900   4.443   2.742   7.929  0.5744  0.6575  1.1625
  160SAPE  H14R17901   4.429   2.793   8.025  0.1625  0.2459  1.3206
  160SAPE  C21517902   4.571   2.753   7.887  0.2233 -0.0008 -0.0228
  160SAPE  H15R17903   4.648   2.788   7.959  1.3465 -0.9030 -0.7538
  160SAPE  C21617904   4.621   2.700   7.759  0.7015  0.5696 -0.1050
  160SAPE  H16R17905   4.605   2.772   7.676  2.0939  2.1449  0.9225
  160SAPE  H16S17906   4.577   2.604   7.724 -0.1845  1.0850 -0.4335
  160SAPE  C21717907   4.772   2.656   7.751 -0.0436 -0.7832 -0.1820
  160SAPE  H17R17908   4.832   2.733   7.805  0.1992 -0.0898 -1.4086
  160SAPE  H17S17909   4.810   2.651   7.647  1.7168  1.9355  0.2235
  160SAPE  C21817910   4.800   2.521   7.810 -0.1327 -0.0365  0.3896
  160SAPE  H18R17911   4.737   2.452   7.749  0.1042  0.1006 -0.0137
  160SAPE  H18S17912   4.760   2.516   7.914 -2.6827 -2.5865 -0.5626
  160SAPE  C21917913   4.952   2.476   7.801  0.1734  0.0798  0.6970
  160SAPE  H19R17914   4.994   2.459   7.699  1.6584 -1.1353  1.4628
  160SAPE  H19S17915   4.963   2.380   7.855  1.4307  0.9808  2.1638
  160SAPE  C22017916   5.038   2.564   7.890  0.0396 -0.2027 -0.1196
  160SAPE  H20R17917   5.059   2.665   7.849 -0.7185 -0.5717 -1.4566
  160SAPE  H20S17918   5.136   2.515   7.904 -0.3030 -1.1866 -1.0639
  160SAPE  H20T17919   4.982   2.577   7.985 -1.8084 -0.0611 -1.1771
  160SAPE   C3317920   5.042   2.194   6.974  0.8227 -0.3249  0.0416
  160SAPE   H3X17921   4.971   2.260   7.030 -0.3911 -2.7489  1.5578
  160SAPE   H3Y17922   5.140   2.238   6.948  1.2359 -1.2411  0.0226
  160SAPE   C3417923   5.048   2.055   7.044 -0.2437  0.2321 -0.6996
  160SAPE   H4X17924   5.121   2.068   7.126 -0.2376 -0.9134 -0.5109
  160SAPE   H4Y17925   5.087   1.979   6.973  3.0377  0.6102  0.5288
  160SAPE   C3517926   4.916   2.015   7.100 -0.0459 -0.2019 -0.1973
  160SAPE   H5X17927   4.833   2.016   7.026 -1.0191 -1.9371  0.7812
  160SAPE   H5Y17928   4.908   2.087   7.184  2.6362 -0.8310  0.6903
  160SAPE   C3617929   4.899   1.877   7.166  0.8629  0.4968 -0.3815
  160SAPE   H6X17930   4.934   1.802   7.092 -1.3427  0.7963 -1.8417
  160SAPE   H6Y17931   4.789   1.867   7.173  0.8959 -0.7790 -1.3638
  160SAPE   C3717932   4.969   1.876   7.301 -0.5288  0.5310 -0.1800
  160SAPE   H7X17933   4.946   1.967   7.360  0.5923  1.3892 -1.0162
  160SAPE   H7Y17934   5.074   1.874   7.263 -0.2538 -1.9956  0.4714
  160SAPE   C3817935   4.926   1.749   7.375 -0.5159 -0.3176  0.2158
  160SAPE   H8X17936   4.924   1.660   7.309  1.7039  0.4904 -1.0510
  160SAPE   H8Y17937   4.819   1.766   7.398 -0.8274  1.1128 -1.9777
  160SAPE   C3917938   5.010   1.713   7.502 -0.6728 -0.4265 -0.1557
  160SAPE   H9X17939   4.973   1.777   7.585 -4.1206  1.3691 -2.7917
  160SAPE   H9Y17940   5.119   1.714   7.484 -0.4159 -0.4565  1.2811
  160SAPE  C31017941   4.984   1.565   7.541 -0.1971  0.2859 -0.0444
  160SAPE  H10X17942   5.005   1.497   7.456 -1.1072 -0.6645  0.4572
  160SAPE  H10Y17943   4.873   1.559   7.550 -0.0725 -1.9179  0.5552
  160SAPE  C31117944   5.038   1.521   7.678 -0.5058  0.3949  0.0648
  160SAPE  H11X17945   5.142   1.555   7.696 -0.3547 -0.3283  0.5947
  160SAPE  H11Y17946   5.027   1.410   7.672 -3.4348  0.5651  0.6990
  160SAPE  C31217947   4.950   1.577   7.794 -0.4576 -0.1346  0.1653
  160SAPE  H12X17948   4.842   1.570   7.767  0.1610 -0.6353 -2.5105
  160SAPE  H12Y17949   4.967   1.685   7.813 -1.3600 -0.0953  0.7930
  160SAPE  C31317950   4.980   1.508   7.930  0.4726 -0.2938  0.3078
  160SAPE  H13X17951   5.090   1.496   7.928  0.4028 -1.0942 -2.2900
  160SAPE  H13Y17952   4.947   1.402   7.924  2.4187 -0.9441  0.4451
  160SAPE  C31417953   4.924   1.588   8.052  0.0398  0.2577 -0.2330
  160SAPE  H14X17954   4.815   1.608   8.045 -0.3034  0.6813  3.8997
  160SAPE  H14Y17955   4.974   1.686   8.039  0.7948 -0.2003 -0.8781
  160SAPE  C31517956   4.976   1.539   8.186 -0.1560  0.1610  0.5294
  160SAPE  H15X17957   4.973   1.633   8.246 -2.5362  0.1558  0.5114
  160SAPE  H15Y17958   5.080   1.500   8.176 -0.5443 -0.5275 -1.1347
  160SAPE  C31617959   4.882   1.427   8.231 -0.4951 -0.0699 -0.0797
  160SAPE  H16X17960   4.882   1.353   8.148  0.9943  2.3482 -2.3784
  160SAPE  H16Y17961   4.776   1.455   8.243 -0.4293 -0.4222  1.6768
  160SAPE  C31717962   4.916   1.361   8.365  0.0848  0.0518 -0.0652
  160SAPE  H17X17963   4.826   1.297   8.380  0.3207  0.1051  1.8227
  160SAPE  H17Y17964   4.913   1.441   8.443 -0.0599  0.7307 -0.7514
  160SAPE  C31817965   5.048   1.278   8.364 -0.2496 -0.8430 -0.0562
  160SAPE  H18X17966   5.037   1.188   8.428  1.6549 -1.2564 -0.2619
  160SAPE  H18Y17967   5.122   1.350   8.405 -0.9449 -0.6167  0.8358
  160SAPE  H18Z17968   5.071   1.239   8.263  0.3142 -1.3916  0.2838
  161SOPE     N17969   1.350   5.225  10.605  0.2056 -0.0699 -0.3025
  161SOPE   HN117970   1.273   5.165  10.640  0.5714  0.7251  2.0853
  161SOPE   HN217971   1.412   5.156  10.558  1.0579 -0.9939  2.0187
  161SOPE   HN317972   1.385   5.272  10.691 -0.8339 -0.4440  0.3443
  161SOPE   C1217973   1.296   5.318  10.503 -0.5212  0.6951  0.0868
  161SOPE  H12A17974   1.266   5.243  10.426  1.1561 -1.2039  1.2005
  161SOPE  H12B17975   1.388   5.373  10.472  0.8706 -1.7964 -0.4818
  161SOPE   C1117976   1.180   5.402  10.561  0.3922  0.4723 -0.2718
  161SOPE  H11A17977   1.152   5.472  10.479  0.8071  0.3176 -0.5541
  161SOPE  H11B17978   1.226   5.459  10.645  0.8488  2.0785 -1.5520
  161SOPE     P17979   0.966   5.386  10.682 -0.1598  0.0145  0.2975
  161SOPE   O1317980   1.031   5.445  10.802 -0.4564 -0.3927 -0.0883
  161SOPE   O1417981   0.849   5.300  10.706  0.2082 -0.0834 -0.4608
  161SOPE   O1217982   1.073   5.313  10.604 -0.0574 -0.2702 -0.6167
  161SOPE   O1117983   0.926   5.507  10.584 -0.0026 -0.0226 -0.2210
  161SOPE    C117984   0.826   5.496  10.485  0.4026  0.6673  0.1133
  161SOPE    HA17985   0.803   5.591  10.434  0.4495  0.4005 -0.4132
  161SOPE    HB17986   0.723   5.483  10.524 -0.3066 -2.2306 -2.3386
  161SOPE    C217987   0.847   5.383  10.384  0.3968  0.3939 -0.6120
  161SOPE    HS17988   0.899   5.299  10.436 -1.4210 -1.7747 -2.0693
  161SOPE   O2117989   0.930   5.429  10.273 -0.2790 -0.1535 -0.0853
  161SOPE   C2117990   1.033   5.342  10.243  0.3392 -0.0108  1.3114
  161SOPE   O2217991   1.041   5.227  10.286  0.0572 -0.3101 -0.1575
  161SOPE   C2217992   1.124   5.398  10.134 -0.0926 -0.3539  0.0467
  161SOPE   H2R17993   1.200   5.320  10.113  1.0573  0.1028  2.2450
  161SOPE   H2S17994   1.181   5.484  10.174  1.4799 -2.2563  2.0997
  161SOPE    C317995   0.711   5.323  10.323 -0.3326 -0.8230 -0.1598
  161SOPE    HX17996   0.668   5.408  10.266  0.9493  0.0930  0.1987
  161SOPE    HY17997   0.635   5.309  10.403 -0.6615 -1.3920 -0.5712
  161SOPE   O3117998   0.730   5.213  10.242  0.3831 -0.1828  0.1678
  161SOPE   C3117999   0.701   5.101  10.298 -0.9127  0.3876 -0.5632
  161SOPE   O3218000   0.660   5.080  10.410  0.0168  0.4476 -0.6472
  161SOPE   C3218001   0.731   4.985  10.204  0.2046  0.5014 -0.4308
  161SOPE   H2X18002   0.830   4.947  10.237  0.1764  1.5056  0.8923
  161SOPE   H2Y18003   0.730   5.019  10.098 -1.2573  1.2632 -0.2016
  161SOPE   C2318004   1.059   5.443   9.997 -0.4172 -0.2760  0.1522
  161SOPE   H3R18005   1.018   5.546   9.990 -2.4997 -0.9842  1.1592
  161SOPE   H3S18006   0.974   5.373   9.979 -1.3994 -0.0877  3.4428
  161SOPE   C2418007   1.135   5.433   9.867  0.0431  0.1190 -0.0715
  161SOPE   H4R18008   1.208   5.517   9.865 -0.7785  0.8740  0.9260
  161SOPE   H4S18009   1.178   5.330   9.867 -0.3341 -0.0407 -0.3236
  161SOPE   C2518010   1.037   5.430   9.757 -0.1916  0.6338  0.3827
  161SOPE   H5R18011   0.996   5.327   9.744  2.0447 -0.0128 -2.8220
  161SOPE   H5S18012   0.948   5.495   9.773 -1.1766 -0.3597 -0.7891
  161SOPE   C2618013   1.097   5.469   9.621  0.0196 -0.0954 -0.2234
  161SOPE   H6R18014   1.151   5.566   9.623  0.1707 -0.1892  0.6251
  161SOPE   H6S18015   1.176   5.395   9.596 -0.4012 -0.1687 -1.4121
  161SOPE   C2718016   0.990   5.462   9.510 -0.6673  0.2457  0.2757
  161SOPE   H7R18017   0.935   5.366   9.509 -0.0741 -0.1031  0.4414
  161SOPE   H7S18018   0.918   5.546   9.524  0.5180  1.2853  0.3068
  161SOPE   C2818019   1.050   5.488   9.368 -0.2073  0.5551 -0.2697
  161SOPE   H8R18020   0.968   5.528   9.305 -0.2818 -1.9576 -1.9217
  161SOPE   H8S18021   1.128   5.567   9.375  0.0257  0.1782  2.4148
  161SOPE   C2918022   1.101   5.361   9.301  0.3622  0.8699 -0.1435
  161SOPE   H9118023   1.056   5.265   9.329  2.2500  0.0979  0.3942
  161SOPE  C21018024   1.159   5.362   9.183  0.5995  0.4528 -0.0771
  161SOPE  H10118025   1.180   5.266   9.134  0.8758  1.4827 -2.0547
  161SOPE  C21118026   1.194   5.490   9.108  0.7983 -0.2555 -0.6186
  161SOPE  H11R18027   1.303   5.506   9.119  0.9116 -0.8030 -0.9343
  161SOPE  H11S18028   1.139   5.579   9.146  1.6298 -0.2578  0.6392
  161SOPE  C21218029   1.158   5.475   8.957 -0.3259  0.6223 -0.3095
  161SOPE  H12R18030   1.055   5.433   8.957 -0.1282 -0.1177  2.9517
  161SOPE  H12S18031   1.224   5.397   8.914 -0.5419  0.2512  0.0248
  161SOPE  C21318032   1.177   5.605   8.879 -0.3832  0.2895  0.4223
  161SOPE  H13R18033   1.143   5.574   8.777  1.5566 -0.9919  0.1073
  161SOPE  H13S18034   1.283   5.636   8.868  0.0337 -1.4265 -0.7525
  161SOPE  C21418035   1.096   5.723   8.914  0.3870 -0.3032 -0.3314
  161SOPE  H14R18036   1.120   5.759   9.016 -0.5614  2.6352 -1.0573
  161SOPE  H14S18037   0.990   5.692   8.900  0.1827  0.2298  0.0145
  161SOPE  C21518038   1.113   5.844   8.824  0.3036  0.5213  0.8187
  161SOPE  H15R18039   1.129   5.815   8.718 -0.1667 -1.1978  1.1912
  161SOPE  H15S18040   1.210   5.888   8.855  0.5057  0.7763 -0.1170
  161SOPE  C21618041   1.002   5.940   8.848  0.1964  0.2410  0.1731
  161SOPE  H16R18042   0.996   5.940   8.959 -0.8987  2.5012  0.1890
  161SOPE  H16S18043   0.910   5.905   8.797 -0.4995  1.1140  0.7884
  161SOPE  C21718044   1.041   6.084   8.813 -0.6921 -1.1397 -0.2329
  161SOPE  H17R18045   1.145   6.100   8.850 -1.3781 -2.1868  2.3996
  161SOPE  H17S18046   0.985   6.160   8.872  0.9055 -0.2374  0.1779
  161SOPE  C21818047   1.033   6.111   8.662 -0.2420 -0.6766  0.2412
  161SOPE  H18R18048   1.113   6.053   8.610  0.7569 -1.9610  3.0251
  161SOPE  H18S18049   1.046   6.216   8.630 -0.7429 -0.6296  0.1789
  161SOPE  H18T18050   0.933   6.082   8.622  0.0744 -1.5900  0.0966
  161SOPE   C3318051   0.635   4.867  10.231 -0.6871 -0.1967  0.2276
  161SOPE   H3X18052   0.531   4.898  10.252 -0.6959  0.7253 -1.0537
  161SOPE   H3Y18053   0.660   4.809  10.323 -2.6182 -0.6068  0.5239
  161SOPE   C3418054   0.626   4.770  10.111 -0.1606 -0.0634 -1.0306
  161SOPE   H4X18055   0.584   4.815  10.018  0.8537 -0.4245 -1.6839
  161SOPE   H4Y18056   0.546   4.696  10.129 -1.6887  1.8273  0.2835
  161SOPE   C3518057   0.758   4.711  10.089  0.3834  0.2182  0.6392
  161SOPE   H5X18058   0.804   4.689  10.188 -1.3723  0.9611  1.6618
  161SOPE   H5Y18059   0.832   4.783  10.045  0.6022 -1.5198 -2.0904
  161SOPE   C3618060   0.754   4.593   9.984  0.2616  0.1636 -0.5630
  161SOPE   H6X18061   0.728   4.640   9.887 -0.7326 -1.1665 -0.9809
  161SOPE   H6Y18062   0.681   4.512  10.004  0.8484  0.0989  1.5007
  161SOPE   C3718063   0.900   4.533   9.989 -0.0081  0.0200  0.2011
  161SOPE   H7X18064   0.935   4.509  10.092 -1.9873 -0.7689  0.7441
  161SOPE   H7Y18065   0.963   4.612   9.943 -0.5216 -1.5410 -3.4693
  161SOPE   C3818066   0.926   4.412   9.894 -0.6117 -0.9423  0.0470
  161SOPE   H8X18067   0.875   4.321   9.934 -0.8401 -0.5482  0.6525
  161SOPE   H8Y18068   1.035   4.395   9.896 -0.0191  1.6413 -2.8082
  161SOPE   C3918069   0.875   4.425   9.748 -0.1895  0.0336  0.6045
  161SOPE   H9X18070   0.892   4.530   9.717  0.8553 -0.2687  0.0847
  161SOPE   H9Y18071   0.767   4.398   9.746  0.1190 -1.5081  1.9866
  161SOPE  C31018072   0.944   4.333   9.657 -0.1345  0.2649 -0.1268
  161SOPE  H10X18073   0.944   4.225   9.682 -1.2924  0.2803 -0.0079
  161SOPE  H10Y18074   1.053   4.358   9.659 -0.1006  0.0871  0.4599
  161SOPE  C31118075   0.887   4.342   9.517  0.0681  1.0933  0.5264
  161SOPE  H11X18076   0.897   4.452   9.505 -0.2344  1.0077 -0.6808
  161SOPE  H11Y18077   0.778   4.320   9.510  0.1145  1.4919 -2.9963
  161SOPE  C31218078   0.975   4.266   9.410  0.3231  0.5658  0.6625
  161SOPE  H12X18079   0.981   4.158   9.434 -1.1770 -0.1775 -1.8066
  161SOPE  H12Y18080   1.081   4.298   9.417  0.6892 -0.8765  2.3543
  161SOPE  C31318081   0.913   4.254   9.268 -0.2186 -0.4111 -0.1068
  161SOPE  H13X18082   0.914   4.353   9.218 -0.1367 -1.0028 -1.3028
  161SOPE  H13Y18083   0.805   4.230   9.276 -0.4488  0.8353  0.9941
  161SOPE  C31418084   0.983   4.155   9.177  0.3069  0.0511  0.0627
  161SOPE  H14X18085   0.967   4.059   9.231  0.3574  1.2732  2.3448
  161SOPE  H14Y18086   1.092   4.174   9.163  0.4598  0.1202  1.2830
  161SOPE  C31518087   0.921   4.157   9.034  0.2490  0.6482 -0.8704
  161SOPE  H15X18088   0.949   4.250   8.981  1.8643  1.0165  0.5386
  161SOPE  H15Y18089   0.810   4.149   9.042  0.1134  1.9156 -1.1698
  161SOPE  C31618090   0.961   4.030   8.960  0.1572 -0.6501  0.0687
  161SOPE  H16X18091   0.936   3.945   9.026 -1.7877  0.7576  1.2664
  161SOPE  H16Y18092   1.071   4.030   8.947  0.1210  1.1152 -0.4848
  161SOPE  C31718093   0.886   4.010   8.827 -0.5118 -0.5694 -0.5688
  161SOPE  H17X18094   0.926   3.931   8.760  0.8940  1.6857 -2.5703
  161SOPE  H17Y18095   0.898   4.104   8.769 -0.0443 -0.0964  0.2795
  161SOPE  C31818096   0.736   3.978   8.846 -0.7132  0.2969  0.2123
  161SOPE  H18X18097   0.694   3.942   8.750  1.8543  0.7947 -1.2032
  161SOPE  H18Y18098   0.678   4.066   8.881 -0.6993 -0.2428  1.6536
  161SOPE  H18Z18099   0.731   3.898   8.923 -1.3045 -0.2154 -0.3463
  162SOPE     N18100   5.448   4.883  11.024 -0.5847  0.6526  0.1023
  162SOPE   HN118101   5.362   4.913  11.075 -0.5112  0.4051  0.3764
  162SOPE   HN218102   5.502   4.824  11.090 -0.5351 -0.2097 -0.6980
  162SOPE   HN318103   5.508   4.966  11.005  1.1211 -0.6055 -0.1774
  162SOPE   C1218104   5.408   4.815  10.898 -0.2907 -0.6199  0.3611
  162SOPE  H12A18105   5.365   4.891  10.830  2.0729  0.3732 -0.1455
  162SOPE  H12B18106   5.342   4.737  10.941 -1.5114 -0.3931 -1.0244
  162SOPE   C1118107   5.533   4.749  10.841  0.1692 -0.2916  0.7009
  162SOPE  H11A18108   5.629   4.805  10.847  0.5463 -0.7485 -0.6310
  162SOPE  H11B18109   5.508   4.724  10.735  1.2234 -1.1459  0.6348
  162SOPE     P18110   5.644   4.514  10.843 -0.0008 -0.2749 -0.2034
  162SOPE   O1318111   5.607   4.386  10.909 -0.4636  0.1193 -0.3123
  162SOPE   O1418112   5.791   4.562  10.841  1.2043 -0.4560 -0.3646
  162SOPE   O1218113   5.548   4.622  10.894  0.6203 -0.3381  0.0157
  162SOPE   O1118114   5.591   4.498  10.692  0.0557 -0.9490  0.1607
  162SOPE    C118115   5.654   4.571  10.585 -0.0961 -0.1919  0.1598
  162SOPE    HA18116   5.739   4.637  10.612 -1.8686  1.0672  3.0513
  162SOPE    HB18117   5.591   4.659  10.559  2.8061  1.8262 -0.5504
  162SOPE    C218118   5.662   4.487  10.456  0.5437 -0.2317  0.0785
  162SOPE    HS18119   5.710   4.550  10.378  0.2791 -2.3325 -1.9021
  162SOPE   O2118120   5.535   4.436  10.409  0.2144  0.5081  0.1935
  162SOPE   C2118121   5.520   4.428  10.277 -0.0087 -0.1197 -0.2030
  162SOPE   O2218122   5.593   4.473  10.187 -0.0278 -0.1136 -0.6206
  162SOPE   C2218123   5.395   4.350  10.255 -0.4142  0.3777 -0.0377
  162SOPE   H2R18124   5.392   4.335  10.145  1.0680 -2.2776  0.1896
  162SOPE   H2S18125   5.303   4.403  10.287 -0.2088  0.1381  1.0186
  162SOPE    C318126   5.750   4.367  10.481 -0.8809 -0.2220 -0.5019
  162SOPE    HX18127   5.700   4.311  10.563 -2.1129  2.1958  0.4879
  162SOPE    HY18128   5.849   4.400  10.518 -1.5458  2.3951 -0.8878
  162SOPE   O3118129   5.756   4.284  10.367  0.2338  0.6341 -0.1120
  162SOPE   C3118130   5.855   4.304  10.284  0.5902  0.1111  0.2263
  162SOPE   O3218131   5.950   4.378  10.303  0.3367  0.3970 -0.2949
  162SOPE   C3218132   5.835   4.221  10.163  0.0029  0.6842  0.1311
  162SOPE   H2X18133   5.732   4.178  10.168  0.0870  0.4064 -0.4413
  162SOPE   H2Y18134   5.918   4.147  10.165  0.3831  0.9382 -2.8853
  162SOPE   C2318135   5.400   4.206  10.306  0.2250 -0.6054  0.1155
  162SOPE   H3R18136   5.397   4.189  10.416  0.2183 -0.8979  0.0719
  162SOPE   H3S18137   5.497   4.165  10.269  0.1488 -0.2021 -0.5443
  162SOPE   C2418138   5.294   4.128  10.225 -0.2030 -0.1288  0.1014
  162SOPE   H4R18139   5.214   4.201  10.198  1.0966  1.9447  1.5118
  162SOPE   H4S18140   5.336   4.101  10.126  0.4969  1.8453 -0.2062
  162SOPE   C2518141   5.241   4.008  10.299  0.0889 -0.6417 -0.1301
  162SOPE   H5R18142   5.325   3.944  10.334 -0.0997 -1.0061 -0.3463
  162SOPE   H5S18143   5.195   4.063  10.383  0.2811  0.8410 -0.9467
  162SOPE   C2618144   5.137   3.921  10.216  0.3213 -0.2837 -1.1095
  162SOPE   H6R18145   5.187   3.900  10.119 -0.0706 -1.6289 -1.0326
  162SOPE   H6S18146   5.122   3.824  10.267 -1.3671  0.3218 -0.3786
  162SOPE   C2718147   5.009   4.001  10.205  0.5066 -0.3872  0.2712
  162SOPE   H7R18148   4.951   3.995  10.300  0.5163  0.1255  0.3111
  162SOPE   H7S18149   5.037   4.107  10.186  1.3594 -0.8831 -1.4850
  162SOPE   C2818150   4.919   3.951  10.090 -0.2615 -0.4250 -0.6493
  162SOPE   H8R18151   4.918   3.842  10.111 -0.5259  0.0070  1.8467
  162SOPE   H8S18152   4.821   4.001  10.107  0.8396  0.8432  2.9130
  162SOPE   C2918153   4.980   3.969   9.952  0.2739 -1.1551  0.6738
  162SOPE   H9118154   5.080   3.928   9.936  0.6203 -0.3722  0.7898
  162SOPE  C21018155   4.934   4.045   9.848  0.0170  0.6528 -0.3033
  162SOPE  H10118156   4.985   4.039   9.751 -0.6016 -1.6064 -0.5384
  162SOPE  C21118157   4.799   4.107   9.852  0.5071  0.3686 -0.4320
  162SOPE  H11R18158   4.791   4.213   9.818 -2.3387  0.4362  0.1998
  162SOPE  H11S18159   4.765   4.117   9.957  0.7800  0.8829 -0.3884
  162SOPE  C21218160   4.689   4.025   9.774  0.1518  0.3152 -0.2529
  162SOPE  H12R18161   4.589   4.064   9.801  0.5896  1.4034 -0.1682
  162SOPE  H12S18162   4.687   3.918   9.804  0.8527  0.5583  0.7064
  162SOPE  C21318163   4.691   4.050   9.616  0.6774 -0.0168 -0.7121
  162SOPE  H13R18164   4.799   4.047   9.589  0.5238 -2.8444 -1.4122
  162SOPE  H13S18165   4.644   4.148   9.595  0.4760 -0.2718 -1.4670
  162SOPE  C21418166   4.619   3.949   9.526 -0.1248 -0.0907 -0.2414
  162SOPE  H14R18167   4.509   3.957   9.542 -0.4509 -3.5288  0.0356
  162SOPE  H14S18168   4.659   3.852   9.564  3.5946  1.1931 -0.4949
  162SOPE  C21518169   4.644   3.979   9.378 -0.5207  0.5767  0.6924
  162SOPE  H15R18170   4.754   3.991   9.368 -0.0046 -0.6038  3.7320
  162SOPE  H15S18171   4.597   4.074   9.347  0.2070  0.7579  0.1199
  162SOPE  C21618172   4.603   3.879   9.274  0.3053 -0.2067 -0.2523
  162SOPE  H16R18173   4.494   3.869   9.260  0.7456 -1.3534 -3.6430
  162SOPE  H16S18174   4.629   3.789   9.335  2.0363  0.3359 -0.1250
  162SOPE  C21718175   4.684   3.870   9.142 -0.0322 -0.1514  0.4225
  162SOPE  H17R18176   4.676   3.767   9.101  2.3670 -0.0460 -0.4395
  162SOPE  H17S18177   4.793   3.874   9.165  0.0326  0.0501  0.0814
  162SOPE  C21818178   4.645   3.973   9.033  0.4060  0.2905 -0.0138
  162SOPE  H18R18179   4.697   3.951   8.937  1.9298 -1.2094  1.0756
  162SOPE  H18S18180   4.683   4.074   9.057 -0.7686  0.7800 -0.1769
  162SOPE  H18T18181   4.536   3.980   9.016  0.7004  1.6160 -1.5960
  162SOPE   C3318182   5.838   4.295  10.035 -0.1575 -0.2068  0.6582
  162SOPE   H3X18183   5.940   4.339  10.027  0.5043 -1.2389  2.6086
  162SOPE   H3Y18184   5.768   4.381  10.024  0.2405  0.2191  1.3546
  162SOPE   C3418185   5.801   4.199   9.924 -0.0780  0.2102 -0.3384
  162SOPE   H4X18186   5.702   4.152   9.943  0.5663 -0.2217  2.2646
  162SOPE   H4Y18187   5.876   4.118   9.931 -0.8341 -0.6013 -1.2456
  162SOPE   C3518188   5.804   4.269   9.787  0.1342  0.1367 -0.8096
  162SOPE   H5X18189   5.903   4.319   9.775  0.3842  0.0207  0.6353
  162SOPE   H5Y18190   5.730   4.352   9.781  0.9419  0.8992 -0.4790
  162SOPE   C3618191   5.782   4.183   9.661  0.1179 -0.7433 -0.7174
  162SOPE   H6X18192   5.675   4.154   9.670 -0.1201  0.5858  1.1798
  162SOPE   H6Y18193   5.839   4.091   9.688 -0.1240 -0.8737 -0.6510
  162SOPE   C3718194   5.827   4.254   9.535  0.5873 -0.2948 -0.0463
  162SOPE   H7X18195   5.936   4.271   9.531  0.5740 -0.3627 -2.7743
  162SOPE   H7Y18196   5.775   4.352   9.528 -1.8476 -1.5514 -1.1999
  162SOPE   C3818197   5.802   4.165   9.410 -0.3110 -0.4804 -0.4577
  162SOPE   H8X18198   5.698   4.126   9.414 -0.5798  0.1620 -1.1290
  162SOPE   H8Y18199   5.877   4.084   9.402  0.1994  0.1121 -2.0646
  162SOPE   C3918200   5.813   4.243   9.283 -0.7803 -0.6533 -0.2429
  162SOPE   H9X18201   5.920   4.268   9.266 -0.9347  0.2378  0.0264
  162SOPE   H9Y18202   5.758   4.339   9.292 -0.1389  0.0094 -2.5236
  162SOPE  C31018203   5.744   4.182   9.159 -0.1478  0.1472 -0.0527
  162SOPE  H10X18204   5.799   4.086   9.148  1.8179  1.1081  0.8112
  162SOPE  H10Y18205   5.760   4.246   9.069 -0.3484 -2.4498 -2.0490
  162SOPE  C31118206   5.592   4.173   9.164  0.2696 -0.2818  0.5660
  162SOPE  H11X18207   5.559   4.279   9.172 -2.7156 -1.1330  0.8924
  162SOPE  H11Y18208   5.575   4.113   9.256  0.5024 -0.6275  0.3823
  162SOPE  C31218209   5.536   4.114   9.041  0.6351 -0.1035 -0.2331
  162SOPE  H12X18210   5.585   4.139   8.944 -3.3246 -1.5989 -2.8963
  162SOPE  H12Y18211   5.428   4.138   9.028  0.3633 -2.0361 -2.1942
  162SOPE  C31318212   5.536   3.953   9.033  0.0151  0.1606  0.5104
  162SOPE  H13X18213   5.471   3.930   9.120  0.8828  0.8692  1.3850
  162SOPE  H13Y18214   5.643   3.924   9.043  0.1372  0.7850  1.1482
  162SOPE  C31418215   5.477   3.901   8.899  0.1054  1.1367  0.2045
  162SOPE  H14X18216   5.529   3.956   8.818  1.2063  0.4052  0.3930
  162SOPE  H14Y18217   5.369   3.926   8.897 -0.6668 -1.8718 -1.0167
  162SOPE  C31518218   5.494   3.750   8.879  0.3179  0.3079  0.2129
  162SOPE  H15X18219   5.395   3.701   8.868  0.8285 -1.0245  1.3506
  162SOPE  H15Y18220   5.539   3.714   8.973  0.6937  3.2550  1.2544
  162SOPE  C31618221   5.576   3.717   8.751 -0.1199  0.1349 -0.0082
  162SOPE  H16X18222   5.672   3.775   8.755 -0.2619  0.5763 -2.1928
  162SOPE  H16Y18223   5.522   3.743   8.658  0.3730  2.1896  0.2211
  162SOPE  C31718224   5.609   3.565   8.730 -0.1799 -0.2859  0.1312
  162SOPE  H17X18225   5.511   3.517   8.709 -0.5863  0.1686  0.9453
  162SOPE  H17Y18226   5.642   3.503   8.816  0.2020 -0.7697 -0.3525
  162SOPE  C31818227   5.702   3.538   8.609 -0.4854 -0.1272  0.6863
  162SOPE  H18X18228   5.698   3.621   8.535 -1.2882  0.6335  1.5772
  162SOPE  H18Y18229   5.668   3.444   8.560  0.7123 -0.6759  0.8633
  162SOPE  H18Z18230   5.808   3.529   8.640 -1.1593  0.6621  3.4208
  163SOPE     N18231   4.387   2.161  10.828 -0.0560  0.7296 -0.3939
  163SOPE   HN118232   4.324   2.090  10.870  0.7347 -1.1023 -2.1221
  163SOPE   HN218233   4.422   2.235  10.893  5.4863 -0.7327 -1.1866
  163SOPE   HN318234   4.337   2.205  10.748 -0.1289  0.2746 -0.6008
  163SOPE   C1218235   4.504   2.079  10.778 -0.1413 -0.1496 -0.2658
  163SOPE  H12A18236   4.549   2.028  10.866 -2.0268  0.5758  1.1943
  163SOPE  H12B18237   4.584   2.146  10.738  0.4530 -0.6599  0.0537
  163SOPE   C1118238   4.455   1.968  10.681  0.0272 -0.9721  0.2322
  163SOPE  H11A18239   4.548   1.941  10.625 -0.1273  1.6963 -1.4823
  163SOPE  H11B18240   4.388   2.018  10.608  1.0679  0.1306  0.0062
  163SOPE     P18241   4.293   1.761  10.677  0.2716  0.1469  0.0357
  163SOPE   O1318242   4.156   1.767  10.741 -0.9915  0.2369  0.1435
  163SOPE   O1418243   4.353   1.627  10.680 -0.0785  0.0521 -0.3376
  163SOPE   O1218244   4.389   1.862  10.749 -0.0070 -0.2223 -0.4917
  163SOPE   O1118245   4.265   1.817  10.530  0.4358  0.0209  0.3759
  163SOPE    C118246   4.335   1.777  10.417  0.3748  0.2483  0.0512
  163SOPE    HA18247   4.389   1.682  10.433  0.7277  0.0913 -1.7774
  163SOPE    HB18248   4.415   1.853  10.398  1.7195 -1.4697 -1.5357
  163SOPE    C218249   4.233   1.776  10.292 -0.2082 -0.0331 -0.5992
  163SOPE    HS18250   4.300   1.747  10.208  1.7791  2.7961 -0.1463
  163SOPE   O2118251   4.182   1.907  10.272 -0.8123 -0.5019  0.0223
  163SOPE   C2118252   4.248   1.984  10.186  0.5451  0.4516  0.1012
  163SOPE   O2218253   4.342   1.944  10.118  0.4457  0.2710 -0.5737
  163SOPE   C2218254   4.183   2.122  10.168  0.5587  0.7224 -0.5406
  163SOPE   H2R18255   4.254   2.183  10.108 -0.7080 -0.2700 -3.2087
  163SOPE   H2S18256   4.174   2.160  10.272  2.2374  1.4285 -0.6196
  163SOPE    C318257   4.117   1.678  10.299 -0.1921 -0.2877 -0.4330
  163SOPE    HX18258   4.035   1.716  10.363 -0.9774 -0.2244 -1.4593
  163SOPE    HY18259   4.154   1.584  10.347  1.0534 -0.7337 -2.1574
  163SOPE   O3118260   4.067   1.643  10.169  0.5657 -0.4958  0.0011
  163SOPE   C3118261   3.980   1.724  10.108  0.5020  0.4813 -0.4007
  163SOPE   O3218262   3.920   1.822  10.161  0.2177  0.1712  0.4532
  163SOPE   C3218263   3.940   1.656   9.967  0.2356 -0.4380  0.4193
  163SOPE   H2X18264   3.841   1.704   9.948  0.4616  0.0132  0.3796
  163SOPE   H2Y18265   3.929   1.547   9.988 -2.1304 -0.1479  1.0882
  163SOPE   C2318266   4.056   2.129  10.080 -0.3838  0.0552 -0.1165
  163SOPE   H3R18267   4.008   2.229  10.078  0.7287  0.7747  3.3720
  163SOPE   H3S18268   3.983   2.059  10.126  1.2596  0.1927  2.8993
  163SOPE   C2418269   4.084   2.112   9.926 -0.7611  0.1105 -0.3694
  163SOPE   H4R18270   4.193   2.119   9.907 -0.8359  0.0537 -0.8349
  163SOPE   H4S18271   4.053   2.014   9.885 -2.4232  1.3364 -2.2548
  163SOPE   C2518272   4.026   2.218   9.837 -0.2728 -0.5722  0.1061
  163SOPE   H5R18273   3.915   2.213   9.835 -0.4323  1.7703 -0.2119
  163SOPE   H5S18274   4.047   2.319   9.880 -2.6758  0.5712 -1.1706
  163SOPE   C2618275   4.083   2.218   9.697  0.6472  0.9864  0.2256
  163SOPE   H6R18276   4.059   2.306   9.635  2.4672  1.3800  0.0148
  163SOPE   H6S18277   4.186   2.254   9.717 -0.8698  4.3079  3.1127
  163SOPE   C2718278   4.062   2.091   9.609 -0.0694  0.2996  0.5273
  163SOPE   H7R18279   4.102   2.000   9.657  2.1542  1.9470  1.9782
  163SOPE   H7S18280   3.952   2.075   9.600  0.3995 -3.1272 -0.3244
  163SOPE   C2818281   4.113   2.119   9.465  0.3808  0.3209  0.0118
  163SOPE   H8R18282   4.053   2.197   9.415  0.8769  2.0300  1.9549
  163SOPE   H8S18283   4.216   2.160   9.468 -0.0922  1.5409  0.3457
  163SOPE   C2918284   4.101   1.987   9.390  0.6182  0.9485  0.7823
  163SOPE   H9118285   4.146   1.903   9.446  0.5212  0.0003 -0.5184
  163SOPE  C21018286   4.064   1.966   9.263 -0.2504  0.0056  0.4425
  163SOPE  H10118287   4.080   1.867   9.218  0.1797  0.5122 -0.5660
  163SOPE  C21118288   4.018   2.062   9.159  0.1990 -0.0023  1.0895
  163SOPE  H11R18289   3.987   2.163   9.192 -1.5763  0.2407 -1.1316
  163SOPE  H11S18290   3.928   2.016   9.112  0.8012 -0.9674  0.8452
  163SOPE  C21218291   4.126   2.088   9.049  0.1780  0.4360  0.7615
  163SOPE  H12R18292   4.147   1.993   8.996  2.5403  0.0234  2.2929
  163SOPE  H12S18293   4.216   2.122   9.104  0.2811  0.8532  0.3423
  163SOPE  C21318294   4.075   2.193   8.945  0.0947 -0.6780 -0.1410
  163SOPE  H13R18295   4.085   2.290   8.999  3.1807 -0.4617 -0.9035
  163SOPE  H13S18296   3.967   2.180   8.923  0.3445 -4.7153  0.2497
  163SOPE  C21418297   4.152   2.189   8.813 -0.4292 -0.1201 -0.0966
  163SOPE  H14R18298   4.134   2.089   8.769 -0.9972  0.4005 -1.0912
  163SOPE  H14S18299   4.257   2.205   8.846 -1.1623  2.4366  1.3302
  163SOPE  C21518300   4.101   2.306   8.733  0.0155  0.3594 -0.1291
  163SOPE  H15R18301   4.117   2.400   8.790 -1.2588 -0.0354  0.9357
  163SOPE  H15S18302   3.992   2.287   8.720  0.1569 -1.0045  0.5011
  163SOPE  C21618303   4.157   2.313   8.588  0.8101  0.1772 -0.8439
  163SOPE  H16R18304   4.092   2.239   8.535  0.3697  1.0800 -1.5955
  163SOPE  H16S18305   4.265   2.292   8.576  0.5098 -0.9308 -1.8683
  163SOPE  C21718306   4.126   2.453   8.512 -0.1033  0.0848 -0.7634
  163SOPE  H17R18307   4.181   2.454   8.416 -0.9397 -0.0501 -1.2504
  163SOPE  H17S18308   4.167   2.537   8.573 -1.7466 -1.0048  2.0583
  163SOPE  C21818309   3.981   2.472   8.487  0.1829  0.4785  0.1025
  163SOPE  H18R18310   3.952   2.413   8.397  0.4514  2.8455 -1.6438
  163SOPE  H18S18311   3.964   2.581   8.472  4.2038  1.3534  0.7140
  163SOPE  H18T18312   3.919   2.443   8.574  4.0937 -0.3552  2.9307
  163SOPE   C3318313   4.032   1.681   9.851 -0.2202 -0.2466  0.7603
  163SOPE   H3X18314   4.140   1.668   9.872  0.0177 -1.9247 -1.1306
  163SOPE   H3Y18315   4.020   1.784   9.810 -0.1763 -0.9686 -1.1716
  163SOPE   C3418316   3.994   1.587   9.733 -0.2283  0.1880  0.6201
  163SOPE   H4X18317   3.926   1.506   9.768 -1.3421  0.3978 -0.9338
  163SOPE   H4Y18318   4.080   1.521   9.708  0.4328  1.0699  0.5584
  163SOPE   C3518319   3.927   1.662   9.624  0.5850 -0.4318  0.1515
  163SOPE   H5X18320   3.992   1.745   9.588  0.1032 -0.1487 -0.0719
  163SOPE   H5Y18321   3.840   1.720   9.661 -0.7080 -0.6616 -2.2941
  163SOPE   C3618322   3.883   1.561   9.507 -0.4484 -0.5220  0.5505
  163SOPE   H6X18323   3.814   1.484   9.547  0.1358 -1.2879  0.1234
  163SOPE   H6Y18324   3.978   1.506   9.486 -0.6407 -1.3858  1.8680
  163SOPE   C3718325   3.829   1.642   9.388 -0.1206 -0.0563 -0.9210
  163SOPE   H7X18326   3.907   1.721   9.380  0.3265 -0.1204  1.7701
  163SOPE   H7Y18327   3.735   1.688   9.426  0.3575  1.2867 -1.2959
  163SOPE   C3818328   3.814   1.553   9.259  0.7147  0.2876 -0.8522
  163SOPE   H8X18329   3.753   1.462   9.279  0.6193  0.5998  0.4018
  163SOPE   H8Y18330   3.912   1.505   9.238  0.9902  0.2042  0.4942
  163SOPE   C3918331   3.742   1.623   9.141 -0.4362  0.1448 -0.1127
  163SOPE   H9X18332   3.650   1.670   9.181 -0.9592 -0.3168 -0.7654
  163SOPE   H9Y18333   3.728   1.548   9.061  2.1411  0.8978 -1.3666
  163SOPE  C31018334   3.834   1.729   9.085  0.1496  0.6152 -0.7112
  163SOPE  H10X18335   3.935   1.695   9.053  0.8196  0.9632  0.9526
  163SOPE  H10Y18336   3.859   1.801   9.166 -0.1866 -0.3212  0.2440
  163SOPE  C31118337   3.784   1.807   8.966 -0.1091 -0.2807 -0.2978
  163SOPE  H11X18338   3.772   1.741   8.878  0.0657  0.7075 -1.0842
  163SOPE  H11Y18339   3.855   1.886   8.933 -0.5720 -0.0220 -0.6902
  163SOPE  C31218340   3.650   1.886   9.005 -0.4657  0.2362 -0.0720
  163SOPE  H12X18341   3.677   1.959   9.084  0.3070 -2.3059  2.1297
  163SOPE  H12Y18342   3.574   1.813   9.037  1.6160 -2.3717 -0.6973
  163SOPE  C31318343   3.588   1.952   8.879  0.1510 -0.6434  0.1796
  163SOPE  H13X18344   3.485   1.991   8.894  0.5159  1.4745 -2.1160
  163SOPE  H13Y18345   3.568   1.878   8.798  0.3319  0.6744 -1.1032
  163SOPE  C31418346   3.668   2.069   8.825 -0.2047 -0.4851  0.4246
  163SOPE  H14X18347   3.766   2.030   8.789 -0.2269  0.3251 -0.5511
  163SOPE  H14Y18348   3.709   2.141   8.899 -0.0804 -1.2285  1.0886
  163SOPE  C31518349   3.598   2.141   8.707 -0.3561  0.0383 -0.0402
  163SOPE  H15X18350   3.574   2.054   8.641 -0.1768  0.6645 -0.9510
  163SOPE  H15Y18351   3.678   2.201   8.659  0.4177 -1.0213 -0.1114
  163SOPE  C31618352   3.465   2.208   8.738 -0.1698 -0.8702 -0.0722
  163SOPE  H16X18353   3.489   2.284   8.816  1.3306 -2.6344  1.2808
  163SOPE  H16Y18354   3.394   2.139   8.788 -1.9007  0.9335  0.1112
  163SOPE  C31718355   3.401   2.282   8.608 -0.2328  0.2480 -0.3007
  163SOPE  H17X18356   3.311   2.340   8.639 -1.7442 -1.4539 -1.2463
  163SOPE  H17Y18357   3.371   2.205   8.533  1.4249  0.0508 -0.8076
  163SOPE  C31818358   3.500   2.367   8.527 -0.2136 -0.7351  0.1897
  163SOPE  H18X18359   3.571   2.417   8.596 -0.5456 -1.3803  1.0195
  163SOPE  H18Y18360   3.436   2.428   8.460 -0.5392 -1.0452  0.2139
  163SOPE  H18Z18361   3.570   2.303   8.468  0.4409  0.2813 -0.1765
  164SOPE     N18362   0.701   5.062  10.679  0.1833  0.2532  0.2549
  164SOPE   HN118363   0.766   5.139  10.704 -0.4534  1.0969 -0.6193
  164SOPE   HN218364   0.686   5.068  10.576  1.8677  1.6750  0.0367
  164SOPE   HN318365   0.605   5.063  10.718 -1.0808 -1.3980 -2.5208
  164SOPE   C1218366   0.739   4.923  10.715 -0.5574 -0.7324  0.2146
  164SOPE  H12A18367   0.663   4.843  10.703  0.3737 -1.9289  1.8902
  164SOPE  H12B18368   0.777   4.924  10.819  1.0762 -3.5041 -0.2591
  164SOPE   C1118369   0.863   4.889  10.627  0.3369  0.7252  0.6964
  164SOPE  H11A18370   0.849   4.889  10.517  2.4845 -2.0803  0.2977
  164SOPE  H11B18371   0.882   4.782  10.650  1.0596  0.1522 -2.1795
  164SOPE     P18372   1.109   4.940  10.712 -0.0692  0.0908  0.1069
  164SOPE   O1318373   1.096   4.843  10.823 -0.0435  0.1499  0.2907
  164SOPE   O1418374   1.193   5.063  10.738 -0.0832  0.1120  0.6062
  164SOPE   O1218375   0.968   4.980  10.658  0.1796  0.1065  0.8764
  164SOPE   O1118376   1.166   4.870  10.590 -0.0095  0.5311 -0.3434
  164SOPE    C118377   1.161   4.919  10.459 -0.2393  0.2815 -0.0915
  164SOPE    HA18378   1.222   5.012  10.445  0.0158  0.2992  1.0477
  164SOPE    HB18379   1.059   4.949  10.427  0.1128  0.9252 -0.6576
  164SOPE    C218380   1.204   4.804  10.359  0.1570 -0.1441  0.1305
  164SOPE    HS18381   1.305   4.765  10.382  0.5072 -0.1329 -1.2756
  164SOPE   O2118382   1.205   4.860  10.232 -0.1808  0.0016 -0.5081
  164SOPE   C2118383   1.296   4.949  10.188  0.0520  0.3193  0.3984
  164SOPE   O2218384   1.384   4.992  10.257  0.3444 -0.2451  0.9467
  164SOPE   C2218385   1.271   4.966  10.035  0.4491 -0.4294 -0.2232
  164SOPE   H2R18386   1.301   4.878   9.974 -0.0038  0.1909 -1.3770
  164SOPE   H2S18387   1.324   5.058  10.000 -2.1926  1.7668  1.1321
  164SOPE    C318388   1.089   4.698  10.365 -0.2945 -0.5783 -0.1244
  164SOPE    HX18389   0.992   4.747  10.345 -0.7507 -1.8522 -1.1718
  164SOPE    HY18390   1.084   4.660  10.469 -0.8266  0.1817  0.1325
  164SOPE   O3118391   1.113   4.581  10.285  0.0149 -0.1627 -1.1585
  164SOPE   C3118392   1.191   4.487  10.340  1.0716 -0.0905  0.1059
  164SOPE   O3218393   1.248   4.488  10.447 -0.4024 -0.1422  0.1948
  164SOPE   C3218394   1.201   4.377  10.235  0.5647 -0.7239 -0.8996
  164SOPE   H2X18395   1.210   4.428  10.137  0.6068  1.8018  0.3156
  164SOPE   H2Y18396   1.109   4.318  10.253  0.7100 -0.0786  2.8501
  164SOPE   C2318397   1.115   4.994  10.022 -0.0066  0.6286  0.0650
  164SOPE   H3R18398   1.087   5.076  10.091 -1.8889  2.7246 -3.0042
  164SOPE   H3S18399   1.058   4.902  10.046 -2.0677  0.8654 -3.2787
  164SOPE   C2418400   1.072   5.040   9.891  0.1933  0.0466  0.8483
  164SOPE   H4R18401   0.974   5.088   9.909 -0.0454 -0.4304  0.8136
  164SOPE   H4S18402   1.136   5.122   9.852 -0.9952  0.1883 -0.8810
  164SOPE   C2518403   1.062   4.922   9.788 -0.4266 -0.1674 -0.5871
  164SOPE   H5R18404   1.015   4.833   9.835 -0.9803  1.4434  2.0874
  164SOPE   H5S18405   0.990   4.951   9.708 -3.1106 -2.8435  0.6465
  164SOPE   C2618406   1.190   4.888   9.707  0.2484  0.7776 -0.0965
  164SOPE   H6R18407   1.276   4.867   9.774  1.3470  1.9532 -1.0845
  164SOPE   H6S18408   1.176   4.800   9.641  1.2550  1.9169 -1.9350
  164SOPE   C2718409   1.241   4.992   9.607  0.1589 -0.1446  0.6461
  164SOPE   H7R18410   1.171   4.992   9.520  2.2388 -1.2871 -1.1154
  164SOPE   H7S18411   1.241   5.091   9.657 -0.4040  0.7923 -1.1252
  164SOPE   C2818412   1.391   4.961   9.575  0.9194 -0.2690  0.2994
  164SOPE   H8R18413   1.435   4.948   9.676  1.1216 -2.4600 -0.0293
  164SOPE   H8S18414   1.405   4.859   9.534  1.8315 -0.1492  0.2934
  164SOPE   C2918415   1.456   5.057   9.481  0.2853  0.1849 -0.6814
  164SOPE   H9118416   1.519   5.131   9.532  0.7048 -0.3082 -0.4783
  164SOPE  C21018417   1.443   5.068   9.348  0.2998  0.4041 -0.7800
  164SOPE  H10118418   1.508   5.139   9.294 -0.4380 -0.2540 -2.5914
  164SOPE  C21118419   1.361   4.984   9.254 -0.7161  0.0097 -0.0651
  164SOPE  H11R18420   1.274   5.049   9.230 -0.1953  1.1091  0.9284
  164SOPE  H11S18421   1.341   4.884   9.297 -0.6586 -0.2200 -0.5685
  164SOPE  C21218422   1.426   4.970   9.117  1.0460 -0.5015 -0.7883
  164SOPE  H12R18423   1.526   4.930   9.144  1.5625 -0.6146 -2.6737
  164SOPE  H12S18424   1.423   5.072   9.074 -0.0410 -0.1542  0.0684
  164SOPE  C21318425   1.364   4.872   9.024 -0.2003 -0.7470  0.2968
  164SOPE  H13R18426   1.256   4.886   9.002 -0.4539 -0.9658  1.3130
  164SOPE  H13S18427   1.377   4.768   9.060  2.0772 -0.9234 -0.8768
  164SOPE  C21418428   1.437   4.867   8.888 -0.0295  0.0317 -0.0581
  164SOPE  H14R18429   1.434   4.968   8.842  2.2059  0.6173  0.9755
  164SOPE  H14S18430   1.392   4.789   8.822  3.7564 -3.4095  0.9592
  164SOPE  C21518431   1.589   4.825   8.901  0.1595  0.0146 -0.0711
  164SOPE  H15R18432   1.588   4.723   8.945  0.0657 -0.1993 -0.5717
  164SOPE  H15S18433   1.643   4.892   8.972 -0.2505  0.9495 -0.6211
  164SOPE  C21618434   1.675   4.822   8.775 -0.0009  0.4358 -0.4721
  164SOPE  H16R18435   1.624   4.744   8.715 -0.4266  0.3007  0.0585
  164SOPE  H16S18436   1.774   4.777   8.800 -0.5710  0.3036  1.8386
  164SOPE  C21718437   1.699   4.955   8.688 -0.0531 -0.1128 -0.9903
  164SOPE  H17R18438   1.729   5.031   8.763  0.7378 -0.9743 -0.4231
  164SOPE  H17S18439   1.605   4.983   8.635  0.7024  0.5893 -1.9884
  164SOPE  C21818440   1.806   4.933   8.578  0.1901  0.0764 -0.0398
  164SOPE  H18R18441   1.900   4.888   8.615  0.5742  0.4778 -0.5144
  164SOPE  H18S18442   1.831   5.018   8.510  0.6518 -1.8999 -2.5019
  164SOPE  H18T18443   1.765   4.852   8.514  0.2678  0.9954 -1.2956
  164SOPE   C3318444   1.330   4.286  10.248  0.6989  0.2410 -0.2127
  164SOPE   H3X18445   1.356   4.255  10.351  0.8123 -1.0196 -0.6046
  164SOPE   H3Y18446   1.411   4.350  10.207 -1.6401  2.4485 -1.6949
  164SOPE   C3418447   1.326   4.164  10.147  0.0922  0.2225 -0.4440
  164SOPE   H4X18448   1.223   4.129  10.169 -0.0653  1.1645  0.3912
  164SOPE   H4Y18449   1.403   4.086  10.165 -0.7294 -0.5557 -0.2235
  164SOPE   C3518450   1.323   4.209  10.002 -0.2981 -0.9107  0.2935
  164SOPE   H5X18451   1.388   4.298   9.989 -0.6463 -0.3735  2.0217
  164SOPE   H5Y18452   1.220   4.243   9.977  0.2482  0.4252 -0.2584
  164SOPE   C3618453   1.349   4.094   9.902 -0.0203 -0.5458  0.4655
  164SOPE   H6X18454   1.296   4.002   9.935 -0.0584 -0.8552 -0.4438
  164SOPE   H6Y18455   1.455   4.059   9.900  0.5828  1.2151  0.1702
  164SOPE   C3718456   1.314   4.134   9.757 -0.1365  0.3079 -0.5517
  164SOPE   H7X18457   1.372   4.225   9.730 -1.2059  0.3748 -2.8363
  164SOPE   H7Y18458   1.208   4.161   9.740 -0.3916  0.0181  0.5310
  164SOPE   C3818459   1.358   4.029   9.655  0.1439  1.3569  0.0311
  164SOPE   H8X18460   1.294   3.941   9.677  2.4228  0.1252  2.2888
  164SOPE   H8Y18461   1.467   4.009   9.663  0.1038  0.9625 -0.4120
  164SOPE   C3918462   1.335   4.077   9.507  0.2923 -0.2059 -0.9518
  164SOPE   H9X18463   1.365   4.184   9.504  0.2441  0.0919  3.2070
  164SOPE   H9Y18464   1.225   4.070   9.496 -0.2977 -2.5720  3.9208
  164SOPE  C31018465   1.402   3.989   9.399  0.6415 -0.0869 -0.4338
  164SOPE  H10X18466   1.368   3.887   9.427 -2.2026  0.0894 -2.8394
  164SOPE  H10Y18467   1.512   4.003   9.409  0.2086  2.6988  1.5597
  164SOPE  C31118468   1.362   4.011   9.254 -0.1185  0.7479 -0.6773
  164SOPE  H11X18469   1.379   4.118   9.231 -0.5254  0.6996 -1.2159
  164SOPE  H11Y18470   1.260   3.968   9.247  0.2708  0.0910 -2.7075
  164SOPE  C31218471   1.447   3.910   9.179 -0.1968 -0.2992 -0.1717
  164SOPE  H12X18472   1.435   3.805   9.212  2.7574 -0.6323  0.1467
  164SOPE  H12Y18473   1.553   3.941   9.186 -1.0097  2.5956  0.7070
  164SOPE  C31318474   1.421   3.931   9.034  0.1801 -0.1571  0.9617
  164SOPE  H13X18475   1.464   4.025   8.995 -0.7128 -0.2505 -0.3319
  164SOPE  H13Y18476   1.313   3.931   9.005 -0.5484 -0.8399  3.4326
  164SOPE  C31418477   1.485   3.822   8.944  0.2942 -0.0056  0.2741
  164SOPE  H14X18478   1.445   3.725   8.982 -0.0084  1.1576  3.1482
  164SOPE  H14Y18479   1.594   3.825   8.962  0.2841  1.4920  0.1716
  164SOPE  C31518480   1.450   3.819   8.792  0.5297 -0.1258 -0.3955
  164SOPE  H15X18481   1.478   3.916   8.745 -0.0707  2.3112  3.7721
  164SOPE  H15Y18482   1.339   3.813   8.783  0.3176 -0.1044  1.7358
  164SOPE  C31618483   1.513   3.703   8.714  0.1457  0.2706 -0.6929
  164SOPE  H16X18484   1.611   3.686   8.764 -0.0192 -0.3669 -0.5738
  164SOPE  H16Y18485   1.540   3.732   8.610 -1.1121  1.7111 -0.6439
  164SOPE  C31718486   1.425   3.573   8.707  0.2899 -0.5331  0.3095
  164SOPE  H17X18487   1.350   3.578   8.625  0.6465 -1.1324 -0.0629
  164SOPE  H17Y18488   1.377   3.546   8.804 -1.2866  0.5398 -0.1283
  164SOPE  C31818489   1.515   3.460   8.667  0.2371  0.3565 -0.0013
  164SOPE  H18X18490   1.596   3.448   8.742 -0.7678 -2.8991  0.7207
  164SOPE  H18Y18491   1.554   3.477   8.565 -1.0636  0.5025 -0.4938
  164SOPE  H18Z18492   1.449   3.370   8.666  0.5626  0.1084  0.3056
  165SOPE     N18493   0.792   2.557  10.899 -0.7410 -0.2158 -0.2676
  165SOPE   HN118494   0.821   2.458  10.891  0.5378  0.0131  1.1620
  165SOPE   HN218495   0.738   2.590  10.816 -0.3976  3.5557  0.8144
  165SOPE   HN318496   0.872   2.618  10.926 -1.4230 -0.5831  2.9797
  165SOPE   C1218497   0.694   2.558  11.018 -0.6811 -0.4471  0.0183
  165SOPE  H12A18498   0.750   2.509  11.101 -0.0746  3.3271  2.0638
  165SOPE  H12B18499   0.601   2.506  10.987 -2.2972  2.9634 -1.4563
  165SOPE   C1118500   0.649   2.702  11.047  0.0982 -0.4466  0.8488
  165SOPE  H11A18501   0.739   2.751  11.088  2.2497 -3.3544 -0.0727
  165SOPE  H11B18502   0.572   2.703  11.127 -0.2205 -0.1735  0.5450
  165SOPE     P18503   0.547   2.915  10.923  0.1480  0.3125 -0.2048
  165SOPE   O1318504   0.648   3.021  10.952 -1.0946 -0.1011  0.0889
  165SOPE   O1418505   0.429   2.911  11.018 -0.4413  0.0777 -0.7232
  165SOPE   O1218506   0.611   2.772  10.929 -0.6149 -0.6281 -0.0820
  165SOPE   O1118507   0.497   2.939  10.772 -0.5665  0.5668 -0.3659
  165SOPE    C118508   0.415   2.828  10.724  0.1324  0.7577 -1.2262
  165SOPE    HA18509   0.318   2.819  10.777  0.2683  1.6101 -0.8096
  165SOPE    HB18510   0.476   2.736  10.726 -1.3885 -0.3060  1.6333
  165SOPE    C218511   0.368   2.845  10.579 -0.1324  0.0738  0.7216
  165SOPE    HS18512   0.467   2.841  10.528  1.2662  1.0983  3.2123
  165SOPE   O2118513   0.302   2.971  10.566 -0.1729  0.1164  0.2247
  165SOPE   C2118514   0.335   3.033  10.449  0.0906 -0.0556 -0.2523
  165SOPE   O2218515   0.410   2.990  10.364  0.3332 -0.1008 -0.8605
  165SOPE   C2218516   0.258   3.167  10.431  0.1069  1.3476  0.1256
  165SOPE   H2R18517   0.263   3.218  10.529 -0.8181  0.7384  0.5047
  165SOPE   H2S18518   0.154   3.137  10.404  0.3390  0.8671 -0.2560
  165SOPE    C318519   0.273   2.732  10.526  0.7222  0.0129 -0.3610
  165SOPE    HX18520   0.176   2.749  10.578  0.5430 -0.0843 -0.6652
  165SOPE    HY18521   0.309   2.638  10.573  1.3383 -0.5985 -2.0016
  165SOPE   O3118522   0.249   2.737  10.387  0.1126  0.4313 -0.3656
  165SOPE   C3118523   0.353   2.694  10.315 -0.1922 -0.6794  0.5368
  165SOPE   O3218524   0.456   2.657  10.363  0.1220  0.3371 -0.0690
  165SOPE   C3218525   0.311   2.694  10.173  0.0876 -0.4715 -0.4484
  165SOPE   H2X18526   0.303   2.802  10.150  1.0160 -0.2212  0.3667
  165SOPE   H2Y18527   0.211   2.646  10.166 -0.8048  1.2926 -0.3114
  165SOPE   C2318528   0.322   3.273  10.339 -0.1620 -0.1458  0.2742
  165SOPE   H3R18529   0.431   3.285  10.324  0.0495  0.0573  1.8419
  165SOPE   H3S18530   0.290   3.370  10.383 -0.1500 -0.9255  2.0973
  165SOPE   C2418531   0.269   3.245  10.201  0.5262  0.2319 -0.4858
  165SOPE   H4R18532   0.324   3.166  10.145  2.9360  1.0706  0.5474
  165SOPE   H4S18533   0.164   3.214  10.219  1.2602 -2.1216  0.0500
  165SOPE   C2518534   0.258   3.378  10.124  0.1237  0.2626 -0.0486
  165SOPE   H5R18535   0.219   3.446  10.202  0.4289  2.2173 -1.5365
  165SOPE   H5S18536   0.359   3.412  10.093 -0.3490  1.4742 -0.2792
  165SOPE   C2618537   0.145   3.372  10.014  0.2197  0.0841 -0.2627
  165SOPE   H6R18538   0.163   3.289   9.941  2.7906 -1.2853  1.7273
  165SOPE   H6S18539   0.052   3.345  10.068  1.4758  0.2768  2.1627
  165SOPE   C2718540   0.116   3.504   9.940 -0.0106 -0.4128 -0.2795
  165SOPE   H7R18541   0.008   3.506   9.911 -0.6488 -1.0684  1.8359
  165SOPE   H7S18542   0.132   3.588  10.011  0.0504  2.3429 -3.3135
  165SOPE   C2818543   0.203   3.529   9.818  0.9696  0.0650 -0.2608
  165SOPE   H8R18544   0.307   3.517   9.855  0.4018 -0.4840  1.2095
  165SOPE   H8S18545   0.187   3.450   9.742  0.8869 -0.8378  0.6807
  165SOPE   C2918546   0.192   3.669   9.749  0.4462 -0.0971  0.0683
  165SOPE   H9118547   0.181   3.757   9.813  0.5061  1.4644 -1.9553
  165SOPE  C21018548   0.196   3.695   9.617  0.2926 -0.4343  0.8346
  165SOPE  H10118549   0.204   3.799   9.583 -1.2002 -1.0613 -1.7560
  165SOPE  C21118550   0.218   3.604   9.496 -0.8545  0.5253 -0.7491
  165SOPE  H11R18551   0.132   3.548   9.453 -0.9498  0.2189 -0.1716
  165SOPE  H11S18552   0.280   3.521   9.536 -0.7192  1.4560  1.0862
  165SOPE  C21218553   0.279   3.683   9.383 -0.0715  0.1683  1.2263
  165SOPE  H12R18554   0.370   3.736   9.417  1.1475 -0.8415 -0.3665
  165SOPE  H12S18555   0.203   3.746   9.331  0.0579  0.5369  1.4763
  165SOPE  C21318556   0.325   3.589   9.270 -0.5384 -0.2113  0.3486
  165SOPE  H13R18557   0.257   3.502   9.258  1.0597 -1.2109 -2.8920
  165SOPE  H13S18558   0.420   3.538   9.296 -1.4941 -1.6500  1.1180
  165SOPE  C21418559   0.328   3.669   9.143 -0.2515  0.1542  1.0845
  165SOPE  H14R18560   0.396   3.756   9.156  1.6903 -0.5961 -2.6152
  165SOPE  H14S18561   0.228   3.715   9.125 -0.5810 -0.9708 -0.1828
  165SOPE  C21518562   0.380   3.590   9.018  0.5473  0.1320 -0.4138
  165SOPE  H15R18563   0.313   3.501   9.012 -1.0958  1.3390 -0.5535
  165SOPE  H15S18564   0.486   3.559   9.033  0.5657  0.5681  0.4511
  165SOPE  C21618565   0.360   3.659   8.883  0.2524  0.5037  0.1276
  165SOPE  H16R18566   0.391   3.765   8.894 -1.7381  1.5495 -2.8923
  165SOPE  H16S18567   0.254   3.666   8.848 -0.0297  2.4070  1.2196
  165SOPE  C21718568   0.454   3.592   8.775 -0.3716 -0.0242 -0.4622
  165SOPE  H17R18569   0.532   3.532   8.828 -2.0645 -2.4564 -0.5757
  165SOPE  H17S18570   0.491   3.674   8.711  3.4282 -0.2826  1.1358
  165SOPE  C21818571   0.374   3.494   8.696  0.2711  0.1070  0.0776
  165SOPE  H18R18572   0.275   3.538   8.669 -0.5019 -2.1979 -1.0625
  165SOPE  H18S18573   0.346   3.411   8.765 -0.9548  0.2368 -0.2411
  165SOPE  H18T18574   0.425   3.457   8.605 -0.6030 -1.7442  0.3020
  165SOPE   C3318575   0.397   2.621  10.057  0.2613  0.1181  0.4285
  165SOPE   H3X18576   0.399   2.511  10.074  0.9118  0.1129  0.3399
  165SOPE   H3Y18577   0.501   2.657  10.073  1.2684 -1.6406 -1.6884
  165SOPE   C3418578   0.352   2.637   9.907 -0.6307 -0.2221  0.1838
  165SOPE   H4X18579   0.438   2.605   9.845  0.3941  2.0077  0.3574
  165SOPE   H4Y18580   0.331   2.744   9.886  1.0999  0.1347  0.1679
  165SOPE   C3518581   0.227   2.557   9.883  0.5338 -0.0132  0.7125
  165SOPE   H5X18582   0.153   2.570   9.965 -1.5360  2.8203 -1.4068
  165SOPE   H5Y18583   0.274   2.456   9.885  1.3375  0.3768  2.4853
  165SOPE   C3618584   0.135   2.586   9.759  0.0976 -0.8174 -0.7148
  165SOPE   H6X18585   0.120   2.696   9.757 -0.2924 -0.8139  0.9830
  165SOPE   H6Y18586   0.037   2.537   9.772 -0.6736  0.9358  0.4443
  165SOPE   C3718587   0.192   2.558   9.624  0.4086  0.1115 -0.2979
  165SOPE   H7X18588   0.212   2.449   9.624  0.1573  0.0468  1.1222
  165SOPE   H7Y18589   0.289   2.606   9.600  1.0836 -1.7968 -1.5464
  165SOPE   C3818590   0.095   2.605   9.512 -0.5449 -0.1407 -0.1561
  165SOPE   H8X18591   0.077   2.713   9.532  3.4739  0.3386  1.9249
  165SOPE   H8Y18592  -0.009   2.566   9.516 -0.6872 -0.1617 -2.6956
  165SOPE   C3918593   0.153   2.580   9.369 -0.2170  0.7038 -0.2159
  165SOPE   H9X18594   0.164   2.470   9.358 -3.2693  0.2728  0.3030
  165SOPE   H9Y18595   0.244   2.641   9.351  0.7854 -0.9550 -1.0485
  165SOPE  C31018596   0.041   2.622   9.268  0.8716  0.0264 -0.0197
  165SOPE  H10X18597  -0.014   2.715   9.293  3.6195  2.2748 -1.7691
  165SOPE  H10Y18598  -0.030   2.537   9.258  0.5544  0.3334 -0.4482
  165SOPE  C31118599   0.110   2.644   9.135 -0.0137  0.4578 -0.1792
  165SOPE  H11X18600   0.105   2.564   9.058  0.9267  0.7851 -0.5984
  165SOPE  H11Y18601   0.220   2.654   9.148  0.3469 -2.2883 -0.5044
  165SOPE  C31218602   0.058   2.767   9.068  0.3669 -0.3114 -0.3596
  165SOPE  H12X18603   0.075   2.851   9.138 -0.4516  2.9257 -3.6984
  165SOPE  H12Y18604  -0.050   2.756   9.045 -0.5421 -0.4842  3.3830
  165SOPE  C31318605   0.143   2.801   8.936  0.1940 -0.6441 -0.0505
  165SOPE  H13X18606   0.251   2.794   8.963  0.0221 -0.5891  0.6583
  165SOPE  H13Y18607   0.127   2.906   8.905 -0.2778 -0.8246 -0.4285
  165SOPE  C31418608   0.124   2.699   8.825 -0.3414 -0.3806 -0.4276
  165SOPE  H14X18609   0.018   2.666   8.816  0.1349 -1.9890 -0.4859
  165SOPE  H14Y18610   0.178   2.608   8.858  0.1390  1.0153  3.0340
  165SOPE  C31518611   0.193   2.743   8.693  0.0452  0.5579  0.1830
  165SOPE  H15X18612   0.232   2.648   8.650 -1.6099  0.1457 -0.5028
  165SOPE  H15Y18613   0.272   2.816   8.721 -0.4776  0.9120  0.7429
  165SOPE  C31618614   0.108   2.805   8.581 -0.4626 -0.1160 -0.2144
  165SOPE  H16X18615   0.170   2.836   8.494  0.7286  0.7212  0.8874
  165SOPE  H16Y18616   0.062   2.899   8.621 -0.4454 -0.0369 -0.3810
  165SOPE  C31718617  -0.004   2.709   8.535  0.2915 -0.2271  0.4437
  165SOPE  H17X18618  -0.074   2.688   8.619  0.5547 -1.0567  0.4650
  165SOPE  H17Y18619   0.026   2.612   8.490 -0.6156 -0.3743  0.1226
  165SOPE  C31818620  -0.084   2.787   8.426 -0.4411 -0.7825 -0.4189
  165SOPE  H18X18621  -0.181   2.734   8.415 -1.5737  0.2548  3.1198
  165SOPE  H18Y18622  -0.024   2.783   8.333 -0.5471 -0.6624 -0.4916
  165SOPE  H18Z18623  -0.112   2.891   8.450  0.2967 -0.6805  0.0458
  166SOPE     N18624   2.843   1.284  10.853  0.2220 -0.2839  0.0950
  166SOPE   HN118625   2.770   1.220  10.891  1.0057 -0.8330  0.7462
  166SOPE   HN218626   2.931   1.262  10.906  0.0030 -2.9088 -0.4687
  166SOPE   HN318627   2.813   1.378  10.884  0.5885 -0.3045  0.5329
  166SOPE   C1218628   2.869   1.269  10.706 -0.1286  0.7273  0.3709
  166SOPE  H12A18629   2.941   1.184  10.705 -3.5192 -2.5164 -3.0794
  166SOPE  H12B18630   2.926   1.355  10.666 -0.6053  1.6630  1.6524
  166SOPE   C1118631   2.749   1.243  10.621 -0.5222  0.0956  0.3583
  166SOPE  H11A18632   2.792   1.213  10.523  0.8098  2.4256  0.1612
  166SOPE  H11B18633   2.699   1.338  10.591  1.3613  0.7105 -1.0235
  166SOPE     P18634   2.527   1.144  10.714 -0.0033  0.2011 -0.4353
  166SOPE   O1318635   2.541   1.185  10.853 -0.1537 -0.0458 -0.7992
  166SOPE   O1418636   2.448   1.022  10.688  0.2861  0.0889  0.0446
  166SOPE   O1218637   2.669   1.135  10.662  0.6256 -0.0545 -0.0076
  166SOPE   O1118638   2.467   1.269  10.636  0.7839 -1.0950 -0.1015
  166SOPE    C118639   2.343   1.281  10.562 -0.0976  0.4148 -0.0618
  166SOPE    HA18640   2.319   1.388  10.546  3.4410  1.1318 -1.3018
  166SOPE    HB18641   2.261   1.240  10.624 -0.4666 -0.6063 -1.1979
  166SOPE    C218642   2.362   1.228  10.422 -0.1655  0.8663 -0.0024
  166SOPE    HS18643   2.356   1.117  10.434 -2.1561  1.0397  0.9956
  166SOPE   O2118644   2.494   1.262  10.368  0.2715 -0.6301 -0.2106
  166SOPE   C2118645   2.558   1.166  10.305  0.2457 -0.1041  0.0877
  166SOPE   O2218646   2.521   1.051  10.297  0.1762  0.0390 -0.5526
  166SOPE   C2218647   2.676   1.229  10.230 -0.6341  0.0457 -0.0307
  166SOPE   H2R18648   2.748   1.257  10.310 -1.6635  1.1362  0.5363
  166SOPE   H2S18649   2.645   1.324  10.182  0.7819  0.1805 -0.7373
  166SOPE    C318650   2.247   1.285  10.337 -0.0198  0.5346  0.0650
  166SOPE    HX18651   2.256   1.393  10.357 -0.6039  0.5311  0.3866
  166SOPE    HY18652   2.148   1.239  10.359 -0.1884 -1.3779 -3.8720
  166SOPE   O3118653   2.262   1.252  10.198  0.6633 -0.4974  0.4510
  166SOPE   C3118654   2.231   1.130  10.162  0.1616 -0.3232  0.5558
  166SOPE   O3218655   2.191   1.048  10.242  0.2661  0.2875  0.1455
  166SOPE   C3218656   2.230   1.121  10.010 -0.3187 -0.3712 -0.1523
  166SOPE   H2X18657   2.335   1.110   9.978 -0.1223 -0.6376  0.5740
  166SOPE   H2Y18658   2.194   1.221   9.977 -2.7441 -1.4456 -1.0296
  166SOPE   C2318659   2.744   1.148  10.108 -0.7080 -0.0624  0.7949
  166SOPE   H3R18660   2.758   1.042  10.138  2.6631  0.5028  1.6920
  166SOPE   H3S18661   2.844   1.182  10.072 -1.1911  1.2794  0.6684
  166SOPE   C2418662   2.648   1.166   9.992 -0.0111 -0.3648 -1.1199
  166SOPE   H4R18663   2.540   1.155  10.015 -0.2043  1.4927 -0.9905
  166SOPE   H4S18664   2.663   1.274   9.972  1.0916 -0.1042  0.8469
  166SOPE   C2518665   2.682   1.078   9.872 -0.8751  0.0775 -0.2180
  166SOPE   H5R18666   2.791   1.082   9.854 -0.7337 -1.0107  0.3247
  166SOPE   H5S18667   2.659   0.970   9.887  1.4682 -0.7529 -1.9928
  166SOPE   C2618668   2.599   1.133   9.755  0.2289  0.9564  0.7656
  166SOPE   H6R18669   2.578   1.053   9.681 -3.6984 -0.3763  2.9907
  166SOPE   H6S18670   2.493   1.151   9.784  0.3403  0.6132  1.3999
  166SOPE   C2718671   2.661   1.246   9.680 -0.7041  0.8341  0.0354
  166SOPE   H7R18672   2.652   1.340   9.738  1.2725  1.7964 -1.1386
  166SOPE   H7S18673   2.770   1.225   9.672 -1.1914 -1.2991 -2.1660
  166SOPE   C2818674   2.618   1.280   9.540 -0.1091  0.3112  0.1548
  166SOPE   H8R18675   2.508   1.288   9.527  0.0411  1.0472 -0.8068
  166SOPE   H8S18676   2.663   1.374   9.502  0.5828 -0.2945 -0.5855
  166SOPE   C2918677   2.662   1.169   9.443 -0.0719 -0.7544  0.1569
  166SOPE   H9118678   2.750   1.109   9.471  0.5736 -0.3728 -0.9695
  166SOPE  C21018679   2.603   1.122   9.325  0.3546 -0.3201 -0.3838
  166SOPE  H10118680   2.658   1.042   9.273 -0.9020 -1.0669 -0.5930
  166SOPE  C21118681   2.470   1.177   9.277 -0.5304  0.6805 -0.5680
  166SOPE  H11R18682   2.410   1.207   9.365  0.3779  2.2508 -0.4436
  166SOPE  H11S18683   2.400   1.102   9.234 -1.0144  1.5743 -1.3623
  166SOPE  C21218684   2.502   1.298   9.187  0.2148 -0.4051  0.0300
  166SOPE  H12R18685   2.534   1.386   9.247  2.2739 -0.5204 -0.8429
  166SOPE  H12S18686   2.410   1.328   9.131  1.0050  0.8109 -0.6753
  166SOPE  C21318687   2.617   1.273   9.074  0.0722 -0.3812  0.0061
  166SOPE  H13R18688   2.591   1.175   9.031  0.4880  0.3710 -2.0478
  166SOPE  H13S18689   2.724   1.258   9.103  0.8824 -2.8545 -3.6521
  166SOPE  C21418690   2.619   1.390   8.969  0.0974 -0.2625 -0.6650
  166SOPE  H14R18691   2.617   1.488   9.023 -0.8784  0.4710 -1.9574
  166SOPE  H14S18692   2.528   1.383   8.905  0.3722 -0.7887 -0.9997
  166SOPE  C21518693   2.744   1.385   8.885  0.1436  0.2349  0.6474
  166SOPE  H15R18694   2.832   1.407   8.949 -1.1063 -1.0554  2.9564
  166SOPE  H15S18695   2.723   1.466   8.811 -1.2234 -0.2996  0.4215
  166SOPE  C21618696   2.765   1.258   8.809 -0.5304 -0.6541  0.4479
  166SOPE  H16R18697   2.672   1.227   8.756 -1.1350  0.4659  0.8304
  166SOPE  H16S18698   2.792   1.179   8.882  2.3683  0.0653  0.2497
  166SOPE  C21718699   2.887   1.271   8.718  0.1275 -0.1606  0.6752
  166SOPE  H17R18700   2.938   1.174   8.701  1.1024  0.1060  1.9493
  166SOPE  H17S18701   2.965   1.329   8.772 -0.0988  0.2622  0.5560
  166SOPE  C21818702   2.859   1.341   8.583  0.4266  0.1257  0.3508
  166SOPE  H18R18703   2.953   1.356   8.525  1.4608 -1.5750  1.4725
  166SOPE  H18S18704   2.820   1.443   8.602 -0.0345  0.2113 -0.9850
  166SOPE  H18T18705   2.785   1.297   8.513 -0.1008  1.0505  0.3117
  166SOPE   C3318706   2.140   1.005   9.946 -0.9308  0.0626 -0.2132
  166SOPE   H3X18707   2.044   1.058   9.928  0.8937  3.1959 -1.4669
  166SOPE   H3Y18708   2.139   0.930  10.028  1.7077 -1.1817 -1.2042
  166SOPE   C3418709   2.198   0.950   9.817  0.2348  0.9200  0.6241
  166SOPE   H4X18710   2.132   0.873   9.772 -1.2349  1.5551  1.6179
  166SOPE   H4Y18711   2.294   0.899   9.836  1.2562  2.4772 -0.1155
  166SOPE   C3518712   2.221   1.058   9.711 -0.1497 -0.2904 -0.9137
  166SOPE   H5X18713   2.270   1.012   9.623 -0.9633 -2.1598 -0.4318
  166SOPE   H5Y18714   2.276   1.151   9.740 -1.8482  0.4522  0.1062
  166SOPE   C3618715   2.083   1.102   9.654  0.2382  0.6731  0.0639
  166SOPE   H6X18716   2.053   1.182   9.725  2.1097  0.9124  0.6439
  166SOPE   H6Y18717   2.006   1.021   9.653  0.3733  0.5344 -1.3698
  166SOPE   C3718718   2.092   1.156   9.510 -0.0600 -0.1485  0.2701
  166SOPE   H7X18719   2.175   1.228   9.494  0.9729 -1.5340 -0.8995
  166SOPE   H7Y18720   2.000   1.210   9.481  0.7395  1.3605  0.4429
  166SOPE   C3818721   2.106   1.050   9.401  0.8501  0.0343  0.0893
  166SOPE   H8X18722   2.045   0.958   9.415  3.4087 -2.5045 -3.7501
  166SOPE   H8Y18723   2.209   1.011   9.412  0.8771  0.0150 -0.2379
  166SOPE   C3918724   2.100   1.117   9.261 -0.3032  0.8290  0.5123
  166SOPE   H9X18725   2.198   1.170   9.258 -0.9964  2.0850 -0.5056
  166SOPE   H9Y18726   2.014   1.181   9.234 -0.7429 -0.9338 -2.7157
  166SOPE  C31018727   2.119   1.008   9.150 -0.3052 -0.5150  0.2839
  166SOPE  H10X18728   2.047   0.931   9.183  0.5501 -0.4655  2.4401
  166SOPE  H10Y18729   2.223   0.973   9.163 -0.3531 -1.6563 -2.0451
  166SOPE  C31118730   2.078   1.056   9.006 -0.3264 -0.2263 -0.6792
  166SOPE  H11X18731   1.980   1.106   8.991 -1.4117 -2.6367 -2.2270
  166SOPE  H11Y18732   2.071   0.962   8.947 -0.5499 -1.4711  1.2588
  166SOPE  C31218733   2.175   1.145   8.938 -0.0620 -0.3778 -0.7603
  166SOPE  H12X18734   2.253   1.079   8.893 -0.9252 -2.5395  0.7809
  166SOPE  H12Y18735   2.228   1.214   9.006  3.5593 -2.0566 -1.6397
  166SOPE  C31318736   2.113   1.239   8.823 -0.3154  0.1745 -0.5815
  166SOPE  H13X18737   2.044   1.306   8.879  0.9173  0.0466  1.1635
  166SOPE  H13Y18738   2.049   1.170   8.764 -1.9246  1.4887 -0.4772
  166SOPE  C31418739   2.221   1.303   8.735  0.1277  0.4063  0.3874
  166SOPE  H14X18740   2.298   1.341   8.806 -0.7580 -1.1248  2.2571
  166SOPE  H14Y18741   2.158   1.382   8.689 -0.5447 -1.4432 -2.0702
  166SOPE  C31518742   2.290   1.209   8.638  1.0560 -0.3459 -0.0029
  166SOPE  H15X18743   2.219   1.166   8.563 -1.9313  2.3331  1.0854
  166SOPE  H15Y18744   2.327   1.121   8.696  2.4682  0.9033  1.0813
  166SOPE  C31618745   2.408   1.277   8.568  0.5414 -0.1856  0.1367
  166SOPE  H16X18746   2.478   1.317   8.644  1.1214 -1.5519  0.3551
  166SOPE  H16Y18747   2.372   1.355   8.497  1.6489 -0.3288 -0.6090
  166SOPE  C31718748   2.499   1.175   8.490 -0.1941 -0.0729  0.1163
  166SOPE  H17X18749   2.519   1.087   8.554 -2.2102  0.3237  1.3803
  166SOPE  H17Y18750   2.595   1.228   8.473  0.5728 -1.5149 -0.1432
  166SOPE  C31818751   2.457   1.127   8.356 -0.1592  0.5130  0.4198
  166SOPE  H18X18752   2.537   1.077   8.298 -0.8596 -1.0686  0.7585
  166SOPE  H18Y18753   2.406   1.210   8.301  2.1584 -0.0661 -2.8911
  166SOPE  H18Z18754   2.381   1.049   8.378 -0.8977  0.5864 -1.6875
  167SOPE     N18755   3.565   0.190   6.030 -0.1920  0.1940 -0.5822
  167SOPE   HN118756   3.565   0.099   6.080  0.7751  1.8560  2.7201
  167SOPE   HN218757   3.639   0.174   5.959  1.9248  2.5260  0.9365
  167SOPE   HN318758   3.607   0.262   6.093 -0.5335 -0.3913  0.3311
  167SOPE   C1218759   3.430   0.213   5.980  0.3714  0.1993  0.5451
  167SOPE  H12A18760   3.396   0.111   5.951  0.9328 -0.2209  1.3168
  167SOPE  H12B18761   3.427   0.280   5.892  0.4548 -0.0109  0.3812
  167SOPE   C1118762   3.330   0.265   6.088 -0.4436  0.0296  0.5520
  167SOPE  H11A18763   3.222   0.266   6.060 -0.5570  1.2683  0.9579
  167SOPE  H11B18764   3.350   0.373   6.108  0.9667 -0.2583  0.7252
  167SOPE     P18765   3.258   0.192   6.327 -0.4766 -0.2465 -0.2184
  167SOPE   O1318766   3.256   0.067   6.397  0.8766  0.2112  0.3123
  167SOPE   O1418767   3.128   0.240   6.289  0.3982  0.1384  0.3167
  167SOPE   O1218768   3.355   0.179   6.199  0.1166 -0.2460  0.1931
  167SOPE   O1118769   3.321   0.297   6.422 -0.4437 -0.4690 -0.2531
  167SOPE    C118770   3.463   0.322   6.436 -0.7169 -0.6587  0.0774
  167SOPE    HA18771   3.508   0.382   6.355  2.6649  0.3318  2.4815
  167SOPE    HB18772   3.522   0.227   6.433  1.4368  0.6332 -1.3475
  167SOPE    C218773   3.504   0.387   6.572  0.1901  0.0929 -0.3653
  167SOPE    HS18774   3.611   0.375   6.599  0.3807 -0.1250 -1.1945
  167SOPE   O2118775   3.425   0.341   6.679  0.1520 -0.5311  0.1893
  167SOPE   C2118776   3.445   0.212   6.709 -0.4876 -0.1767  0.4600
  167SOPE   O2218777   3.533   0.139   6.665  0.7348 -0.0581 -0.7733
  167SOPE   C2218778   3.337   0.166   6.801 -0.3515 -0.0352 -0.1289
  167SOPE   H2R18779   3.263   0.110   6.739 -0.2482  1.3663 -1.5950
  167SOPE   H2S18780   3.279   0.251   6.842 -0.4588  0.7652 -1.8306
  167SOPE    C318781   3.486   0.546   6.567 -0.2100 -0.2427 -0.4936
  167SOPE    HX18782   3.375   0.555   6.563 -0.1278  2.2596  0.5789
  167SOPE    HY18783   3.516   0.589   6.469  0.7031  1.6742  0.5663
  167SOPE   O3118784   3.557   0.611   6.675 -0.7322  0.1235  0.1102
  167SOPE   C3118785   3.498   0.698   6.741  0.3618 -0.1649 -0.7947
  167SOPE   O3218786   3.388   0.747   6.718  0.0171 -0.0182 -0.5810
  167SOPE   C3218787   3.594   0.727   6.866  0.1851 -0.2122 -0.2408
  167SOPE   H2X18788   3.693   0.748   6.821 -0.5034 -1.4548 -2.5196
  167SOPE   H2Y18789   3.593   0.642   6.938  1.0311 -0.2752 -0.3030
  167SOPE   C2318790   3.397   0.074   6.910 -1.3058 -0.2508  0.0379
  167SOPE   H3R18791   3.483   0.123   6.960  0.5250 -1.6784 -1.5549
  167SOPE   H3S18792   3.441  -0.019   6.867  0.0500  1.0594 -1.5064
  167SOPE   C2418793   3.294   0.044   7.020  0.3275  0.6328  0.0949
  167SOPE   H4R18794   3.293   0.132   7.086  2.4051  0.4718  0.4054
  167SOPE   H4S18795   3.195   0.024   6.973  0.2679 -0.7897  0.7595
  167SOPE   C2518796   3.332  -0.074   7.111  0.1287 -0.2639 -0.5825
  167SOPE   H5R18797   3.242  -0.076   7.177  0.6209  0.3285  0.1354
  167SOPE   H5S18798   3.346  -0.170   7.058  0.7091 -0.2632 -0.4384
  167SOPE   C2618799   3.460  -0.048   7.191 -0.3726  0.0735 -0.2905
  167SOPE   H6R18800   3.480  -0.139   7.253 -0.0162 -0.2652 -0.8887
  167SOPE   H6S18801   3.543  -0.047   7.117 -0.8156  3.6062 -0.9130
  167SOPE   C2718802   3.452   0.077   7.284 -0.2302  0.1508  0.2026
  167SOPE   H7R18803   3.427   0.163   7.220 -1.9260 -0.7896 -0.4559
  167SOPE   H7S18804   3.368   0.065   7.355 -0.8294 -0.3851 -0.5872
  167SOPE   C2818805   3.579   0.111   7.365  0.4144 -0.4179  0.6054
  167SOPE   H8R18806   3.638   0.021   7.391  0.3842 -1.0171 -1.2670
  167SOPE   H8S18807   3.645   0.181   7.309 -1.3891  0.2360 -0.7990
  167SOPE   C2918808   3.551   0.184   7.493  0.3355  0.2107 -0.4967
  167SOPE   H9118809   3.455   0.235   7.507  2.0101  3.2635  0.9721
  167SOPE  C21018810   3.644   0.214   7.579 -0.4468  1.0113 -0.4243
  167SOPE  H10118811   3.622   0.264   7.675  0.7951 -2.0465  1.6107
  167SOPE  C21118812   3.789   0.175   7.573  0.0584  0.6251  0.4468
  167SOPE  H11R18813   3.853   0.252   7.621  1.9630 -2.5589  3.4581
  167SOPE  H11S18814   3.817   0.170   7.465 -0.4063 -0.3682  0.3645
  167SOPE  C21218815   3.823   0.040   7.646  0.9828 -0.0737 -0.0517
  167SOPE  H12R18816   3.927   0.023   7.610  0.9832 -0.9049  0.3268
  167SOPE  H12S18817   3.756  -0.042   7.614 -0.2865  0.4738  1.0834
  167SOPE  C21318818   3.802   0.049   7.798  0.4156  0.4824 -0.2468
  167SOPE  H13R18819   3.697   0.064   7.828  1.5510  0.9997  4.0526
  167SOPE  H13S18820   3.860   0.136   7.836  1.6930 -0.7736  0.8041
  167SOPE  C21418821   3.850  -0.069   7.886  0.6126  0.7699  0.2315
  167SOPE  H14R18822   3.960  -0.059   7.872  0.5174 -0.1367 -1.4808
  167SOPE  H14S18823   3.815  -0.168   7.849  2.8953 -0.7299  1.7727
  167SOPE  C21518824   3.821  -0.063   8.035 -0.3564 -0.5994  0.1663
  167SOPE  H15R18825   3.711  -0.068   8.049 -0.5992 -1.1357 -1.6749
  167SOPE  H15S18826   3.867   0.033   8.067  0.0374 -0.1094 -1.7031
  167SOPE  C21618827   3.897  -0.169   8.123  0.5407 -0.0468  0.3773
  167SOPE  H16R18828   4.004  -0.147   8.106 -0.1148  1.3476 -2.7688
  167SOPE  H16S18829   3.887  -0.272   8.085  1.3686  0.6258 -1.8186
  167SOPE  C21718830   3.852  -0.153   8.273  0.0436 -0.7279  0.6822
  167SOPE  H17R18831   3.741  -0.161   8.269  0.0347 -0.2866 -2.3228
  167SOPE  H17S18832   3.876  -0.047   8.298 -0.2034 -1.1943  3.1540
  167SOPE  C21818833   3.920  -0.249   8.374 -0.1882 -0.2550  0.1114
  167SOPE  H18R18834   3.871  -0.348   8.360 -1.5596  0.7241 -2.8148
  167SOPE  H18S18835   3.902  -0.207   8.475 -2.4480 -1.8399  0.4267
  167SOPE  H18T18836   4.025  -0.266   8.341 -0.6715  1.4264 -2.6641
  167SOPE   C3318837   3.536   0.843   6.960 -0.4088 -0.2698  0.5462
  167SOPE   H3X18838   3.432   0.821   6.993 -0.7691  3.0599  2.0207
  167SOPE   H3Y18839   3.551   0.936   6.901  0.3887 -0.8513 -0.2035
  167SOPE   C3418840   3.616   0.860   7.082  0.1063  0.1207 -0.1613
  167SOPE   H4X18841   3.723   0.878   7.055 -0.1383 -0.2737 -1.4561
  167SOPE   H4Y18842   3.611   0.765   7.139 -1.0211 -1.1125 -2.2063
  167SOPE   C3518843   3.559   0.968   7.164  0.0182  0.1203  0.0154
  167SOPE   H5X18844   3.449   0.952   7.167  0.2108 -1.9802 -1.8319
  167SOPE   H5Y18845   3.578   1.072   7.130 -0.1368 -0.6310 -2.5700
  167SOPE   C3618846   3.602   0.962   7.312 -0.3742  0.6499  0.3201
  167SOPE   H6X18847   3.527   0.898   7.364 -0.2240 -0.5188 -0.8527
  167SOPE   H6Y18848   3.573   1.062   7.352  0.1824  1.2061 -0.6464
  167SOPE   C3718849   3.746   0.926   7.331  0.0762 -0.4205 -0.6100
  167SOPE   H7X18850   3.797   1.008   7.277  0.1757 -0.2682 -0.2896
  167SOPE   H7Y18851   3.789   0.829   7.298 -0.3209 -1.5354  1.8798
  167SOPE   C3818852   3.782   0.945   7.480  0.3030  0.1430  0.3198
  167SOPE   H8X18853   3.806   0.847   7.528 -1.9682  0.1554  1.6259
  167SOPE   H8Y18854   3.689   0.986   7.524  0.7480  2.8321 -1.0314
  167SOPE   C3918855   3.897   1.042   7.508  0.6396  0.0782  0.1231
  167SOPE   H9X18856   3.889   1.126   7.436 -1.0299  0.7221  0.9934
  167SOPE   H9Y18857   3.995   0.993   7.491  0.2149 -0.4136 -0.9623
  167SOPE  C31018858   3.885   1.094   7.644  0.2334 -0.6819  0.4554
  167SOPE  H10X18859   3.775   1.098   7.661 -0.3739  0.8134 -2.9751
  167SOPE  H10Y18860   3.921   1.198   7.638  0.4731 -0.8190 -1.0191
  167SOPE  C31118861   3.962   1.027   7.753  0.2661 -0.7461  0.2374
  167SOPE  H11X18862   4.066   1.004   7.722 -0.7635 -2.5927 -2.0918
  167SOPE  H11Y18863   3.904   0.936   7.782 -0.2875 -0.5801 -0.3412
  167SOPE  C31218864   3.972   1.119   7.878  0.2974 -0.2242  0.5925
  167SOPE  H12X18865   3.873   1.160   7.908 -0.2755 -1.9671  1.2374
  167SOPE  H12Y18866   4.037   1.205   7.851 -1.9254  1.5856  0.6899
  167SOPE  C31318867   4.054   1.054   7.996  0.2923  0.0768 -0.0127
  167SOPE  H13X18868   4.157   1.036   7.961  1.2260  1.2619  1.9774
  167SOPE  H13Y18869   4.003   0.959   8.022  0.7609  0.7134  3.8324
  167SOPE  C31418870   4.076   1.129   8.129 -0.8640  0.0715 -0.3636
  167SOPE  H14X18871   4.152   1.077   8.193  0.0372  1.0149 -0.6462
  167SOPE  H14Y18872   3.977   1.136   8.178 -1.9364 -1.4173 -2.2042
  167SOPE  C31518873   4.130   1.262   8.106 -0.0373 -0.0753 -0.2791
  167SOPE  H15X18874   4.050   1.311   8.046 -0.4116 -0.6892 -0.2826
  167SOPE  H15Y18875   4.228   1.260   8.054  0.9881  0.2948  1.5230
  167SOPE  C31618876   4.134   1.336   8.242 -0.1300  0.1464  0.3692
  167SOPE  H16X18877   4.194   1.272   8.310 -1.7346 -2.7920 -0.8069
  167SOPE  H16Y18878   4.034   1.321   8.288 -1.0167  1.5540 -0.9937
  167SOPE  C31718879   4.170   1.484   8.232 -1.0413  0.0228 -0.4428
  167SOPE  H17X18880   4.181   1.520   8.336 -0.5667 -0.5132 -0.3064
  167SOPE  H17Y18881   4.093   1.550   8.185 -1.1127  3.5032  3.8551
  167SOPE  C31818882   4.295   1.511   8.153 -0.0285  0.7082  0.0780
  167SOPE  H18X18883   4.296   1.460   8.054  0.5330 -0.7738  0.8140
  167SOPE  H18Y18884   4.386   1.468   8.200 -0.5981  0.7888  1.2712
  167SOPE  H18Z18885   4.313   1.620   8.143  0.4561  0.5160 -1.4833
  168SOPE     N18886   0.993   3.429   6.354 -0.6393  0.1973  0.0400
  168SOPE   HN118887   0.890   3.434   6.367 -1.4411 -0.3036 -4.6020
  168SOPE   HN218888   1.033   3.520   6.386  0.1083 -1.1380  3.3434
  168SOPE   HN318889   1.009   3.424   6.252  0.5417  1.2265  0.1522
  168SOPE   C1218890   1.068   3.336   6.446  0.6437  0.1059 -0.4958
  168SOPE  H12A18891   1.029   3.349   6.550 -1.0474 -2.7810 -0.6636
  168SOPE  H12B18892   1.177   3.352   6.434  0.9555 -1.7396 -0.3526
  168SOPE   C1118893   1.041   3.196   6.398 -0.1438  1.1241 -0.2941
  168SOPE  H11A18894   1.052   3.191   6.288 -1.9273  1.8125 -0.5393
  168SOPE  H11B18895   0.938   3.158   6.414  0.0485  0.2099 -1.1481
  168SOPE     P18896   1.112   3.019   6.582  0.0889  0.1015 -0.2515
  168SOPE   O1318897   1.215   2.910   6.592  0.1140  0.2596 -0.1421
  168SOPE   O1418898   0.972   2.973   6.589  0.6204  0.2972  0.2873
  168SOPE   O1218899   1.130   3.104   6.454 -0.4200 -0.4400 -0.3138
  168SOPE   O1118900   1.126   3.117   6.699  0.3276  0.8101  0.0916
  168SOPE    C118901   1.235   3.219   6.706  0.4819  0.4562 -0.2363
  168SOPE    HA18902   1.201   3.308   6.763 -1.0246  0.6399 -1.3329
  168SOPE    HB18903   1.257   3.257   6.603  1.3537  4.1969  1.1624
  168SOPE    C218904   1.367   3.170   6.774  0.5936  0.2800  0.3867
  168SOPE    HS18905   1.400   3.073   6.732  1.8343  0.2742  1.3403
  168SOPE   O2118906   1.331   3.152   6.911 -0.4141  0.0648  0.4313
  168SOPE   C2118907   1.413   3.074   6.983  0.1608 -0.2969 -0.3729
  168SOPE   O2218908   1.500   3.004   6.931 -0.6334 -0.1022 -0.4504
  168SOPE   C2218909   1.368   3.088   7.128 -0.0904  0.0867 -0.4887
  168SOPE   H2R18910   1.258   3.101   7.127 -0.3620 -1.8076 -1.9970
  168SOPE   H2S18911   1.420   3.171   7.181 -1.3173 -0.1110  1.1069
  168SOPE    C318912   1.486   3.267   6.745 -0.5257 -0.7902 -0.6824
  168SOPE    HX18913   1.494   3.287   6.636  1.1398  0.7759 -0.3212
  168SOPE    HY18914   1.572   3.204   6.776 -0.2129 -0.0373  0.0089
  168SOPE   O3118915   1.485   3.393   6.813  0.0957 -0.1569 -0.0790
  168SOPE   C3118916   1.525   3.403   6.931 -0.1593  0.0631 -0.4603
  168SOPE   O3218917   1.584   3.328   7.006 -0.2721 -0.5232  0.6576
  168SOPE   C3218918   1.486   3.540   6.974 -0.1797 -0.4307 -0.4775
  168SOPE   H2X18919   1.377   3.553   6.959 -0.2801 -1.6845 -1.0102
  168SOPE   H2Y18920   1.538   3.605   6.900  2.9468 -0.4616  1.5021
  168SOPE   C2318921   1.387   2.959   7.216 -0.0652 -0.2651  0.5525
  168SOPE   H3R18922   1.492   2.924   7.206  0.6262  1.8711 -0.1546
  168SOPE   H3S18923   1.324   2.874   7.182 -0.7139  0.1971  0.5821
  168SOPE   C2418924   1.358   2.991   7.367  0.1436 -0.3772 -0.5006
  168SOPE   H4R18925   1.431   3.071   7.395 -0.0762 -0.1907 -0.4563
  168SOPE   H4S18926   1.255   3.028   7.383  0.0790 -0.3018 -1.0626
  168SOPE   C2518927   1.374   2.858   7.451 -0.2127  0.0988  0.3114
  168SOPE   H5R18928   1.290   2.790   7.424 -0.2589 -0.3114  1.4348
  168SOPE   H5S18929   1.463   2.808   7.407  0.4432  0.8261  0.7925
  168SOPE   C2618930   1.381   2.880   7.604  0.4585  0.0453 -0.6490
  168SOPE   H6R18931   1.437   2.796   7.651 -0.2764  0.3555  0.8430
  168SOPE   H6S18932   1.459   2.959   7.612  0.6819 -0.1818 -0.5850
  168SOPE   C2718933   1.254   2.912   7.684 -0.0487 -0.3552  0.1150
  168SOPE   H7R18934   1.197   2.999   7.648  1.1798  1.1770  1.6842
  168SOPE   H7S18935   1.185   2.825   7.672 -1.4393  0.1166  3.4415
  168SOPE   C2818936   1.271   2.935   7.840  0.5134 -0.6275 -0.0731
  168SOPE   H8R18937   1.349   3.014   7.848 -0.7453  0.4655  2.8080
  168SOPE   H8S18938   1.180   2.982   7.883 -0.2986 -2.8960  0.7981
  168SOPE   C2918939   1.312   2.815   7.923  0.4745 -0.5631  0.4849
  168SOPE   H9118940   1.355   2.740   7.855  0.5609  0.4660 -0.6392
  168SOPE  C21018941   1.304   2.798   8.058  0.3885  0.0889  0.3740
  168SOPE  H10118942   1.334   2.697   8.090 -1.2640 -0.2734  0.8899
  168SOPE  C21118943   1.251   2.875   8.169 -0.1582 -0.4302 -1.1860
  168SOPE  H11R18944   1.142   2.860   8.187  0.4506 -2.6555  1.4079
  168SOPE  H11S18945   1.263   2.984   8.152 -2.0404  0.1083  0.4492
  168SOPE  C21218946   1.317   2.837   8.300 -0.0803 -0.3787 -0.2462
  168SOPE  H12R18947   1.425   2.814   8.287  0.5031  2.6367 -1.4810
  168SOPE  H12S18948   1.268   2.746   8.343 -1.2757  1.7550  3.3265
  168SOPE  C21318949   1.307   2.952   8.404  0.8413  0.2046  0.0479
  168SOPE  H13R18950   1.202   2.979   8.427  0.3933 -1.8234  0.5899
  168SOPE  H13S18951   1.357   3.042   8.364  1.2809  0.4424  1.1015
  168SOPE  C21418952   1.376   2.913   8.534 -0.7236  0.5420 -0.0478
  168SOPE  H14R18953   1.484   2.896   8.519 -0.9076 -0.1926 -0.6249
  168SOPE  H14S18954   1.337   2.814   8.566  2.1145 -0.4065  0.7505
  168SOPE  C21518955   1.347   3.004   8.651 -0.7580 -0.1902 -0.2218
  168SOPE  H15R18956   1.375   3.106   8.618 -2.3526  0.9745  1.8145
  168SOPE  H15S18957   1.427   2.988   8.727 -0.1685 -1.7195 -1.1043
  168SOPE  C21618958   1.198   3.020   8.698 -0.1040  0.5397  0.4495
  168SOPE  H16R18959   1.161   2.919   8.723 -1.5569  0.5220 -1.5251
  168SOPE  H16S18960   1.141   3.057   8.610  0.7085 -0.1942 -0.4109
  168SOPE  C21718961   1.189   3.128   8.795  0.1428 -0.1724 -0.3838
  168SOPE  H17R18962   1.216   3.219   8.737 -2.7016  1.2042  0.3092
  168SOPE  H17S18963   1.248   3.107   8.887 -1.2563 -1.0116  0.3643
  168SOPE  C21818964   1.047   3.147   8.857 -0.5385 -0.2612 -0.1740
  168SOPE  H18R18965   1.036   3.047   8.906  0.4219  0.1860  1.0288
  168SOPE  H18S18966   0.974   3.166   8.776 -0.8346  0.9853  0.3536
  168SOPE  H18T18967   1.047   3.229   8.932 -1.1986  1.4146 -1.9499
  168SOPE   C3318968   1.532   3.575   7.122  0.0100 -0.2000  0.1424
  168SOPE   H3X18969   1.643   3.583   7.117 -0.0757  0.3980 -1.5151
  168SOPE   H3Y18970   1.500   3.496   7.193 -0.1717 -1.3160 -1.1302
  168SOPE   C3418971   1.459   3.700   7.179 -0.3404  0.4723  0.9674
  168SOPE   H4X18972   1.349   3.682   7.177 -0.8086  2.9071 -1.3938
  168SOPE   H4Y18973   1.482   3.784   7.110  0.8627 -0.3382  0.3264
  168SOPE   C3518974   1.512   3.747   7.312  0.0414 -0.2332  0.2652
  168SOPE   H5X18975   1.444   3.818   7.362  2.0253  0.9624  1.4170
  168SOPE   H5Y18976   1.601   3.809   7.289 -0.1567  0.2826  0.8819
  168SOPE   C3618977   1.546   3.639   7.418 -0.0364  0.7704 -0.2121
  168SOPE   H6X18978   1.618   3.560   7.387 -1.5339 -0.4177 -0.8224
  168SOPE   H6Y18979   1.453   3.581   7.437  0.0301  0.3127 -1.1868
  168SOPE   C3718980   1.597   3.697   7.556  0.5187 -0.4399  0.2663
  168SOPE   H7X18981   1.523   3.775   7.584 -0.2159 -1.0897  0.1604
  168SOPE   H7Y18982   1.696   3.747   7.544  0.2093  0.3502  0.9048
  168SOPE   C3818983   1.603   3.598   7.677 -0.6532 -0.8016  0.5118
  168SOPE   H8X18984   1.682   3.522   7.663  1.0535  1.2295 -1.9218
  168SOPE   H8Y18985   1.505   3.547   7.681  0.6984 -3.5788  0.3440
  168SOPE   C3918986   1.618   3.680   7.804 -0.1245  0.3992  0.4104
  168SOPE   H9X18987   1.536   3.753   7.819  0.8996  1.4489  1.0738
  168SOPE   H9Y18988   1.716   3.729   7.819  0.0242  0.2692 -0.1268
  168SOPE  C31018989   1.593   3.598   7.931  0.8899 -0.0161 -0.4496
  168SOPE  H10X18990   1.663   3.512   7.933 -0.6146 -1.3853 -2.6340
  168SOPE  H10Y18991   1.490   3.559   7.921  0.8246  0.3525 -1.3388
  168SOPE  C31118992   1.609   3.679   8.060 -0.1135 -0.8766  0.4276
  168SOPE  H11X18993   1.540   3.766   8.062  0.2934 -0.4948 -0.9459
  168SOPE  H11Y18994   1.711   3.721   8.048 -0.2217 -0.6703  0.2029
  168SOPE  C31218995   1.599   3.590   8.191  0.3603 -0.4686 -0.1190
  168SOPE  H12X18996   1.673   3.508   8.181  0.5921 -0.3376  0.4880
  168SOPE  H12Y18997   1.497   3.547   8.187  0.7856 -1.5886  0.6950
  168SOPE  C31318998   1.637   3.666   8.317 -0.3430 -0.5219 -0.6251
  168SOPE  H13X18999   1.601   3.610   8.406  0.8742  1.0627  0.9314
  168SOPE  H13Y19000   1.595   3.769   8.315  0.3445 -0.2349 -0.5156
  168SOPE  C31419001   1.785   3.670   8.335 -0.5039 -0.3324  0.9456
  168SOPE  H14X19002   1.832   3.718   8.247 -2.6471 -2.2982 -1.4279
  168SOPE  H14Y19003   1.825   3.567   8.328 -3.5855 -1.5082 -1.9252
  168SOPE  C31519004   1.831   3.742   8.459  1.3462 -0.6723 -0.4118
  168SOPE  H15X19005   1.940   3.729   8.478  0.9721 -1.5640  1.3674
  168SOPE  H15Y19006   1.779   3.701   8.548  1.7434 -0.6698 -0.1730
  168SOPE  C31619007   1.813   3.890   8.450  0.5806 -0.3360 -0.1968
  168SOPE  H16X19008   1.716   3.923   8.407  0.1662 -1.5242 -0.2266
  168SOPE  H16Y19009   1.874   3.924   8.364  0.7817 -0.2288 -0.0120
  168SOPE  C31719010   1.848   3.992   8.566  0.3385  0.7616  0.0952
  168SOPE  H17X19011   1.849   4.090   8.514 -0.6779  0.3267 -0.8020
  168SOPE  H17Y19012   1.952   3.960   8.589  0.9401  0.6113 -2.4741
  168SOPE  C31819013   1.761   3.995   8.694  0.4715 -0.1174  0.9096
  168SOPE  H18X19014   1.666   4.052   8.680  1.9922  2.1654 -0.8204
  168SOPE  H18Y19015   1.813   4.062   8.765  2.0363  0.8851 -1.1025
  168SOPE  H18Z19016   1.748   3.896   8.744  0.6885 -0.7368 -0.2212
  169SOPE     N19017   4.695   5.889   6.381 -0.5839  0.3058  0.0827
  169SOPE   HN119018   4.762   5.913   6.305  1.4608  0.3902  1.8305
  169SOPE   HN219019   4.704   5.786   6.397  0.8458  0.2599 -0.8405
  169SOPE   HN319020   4.599   5.907   6.346 -0.4633  1.4977  0.3269
  169SOPE   C1219021   4.733   5.957   6.506  0.2502 -0.2678  0.6786
  169SOPE  H12A19022   4.810   5.894   6.557 -1.4049 -1.6715  1.5334
  169SOPE  H12B19023   4.650   5.967   6.578  0.4873 -0.0367  0.9228
  169SOPE   C1119024   4.785   6.097   6.483  0.0191 -0.3185  0.0554
  169SOPE  H11A19025   4.790   6.147   6.581  1.3481 -0.4922  0.0931
  169SOPE  H11B19026   4.717   6.151   6.413  0.4358 -0.2650 -0.3180
  169SOPE     P19027   5.042   6.090   6.529 -0.0234 -0.2297  0.4123
  169SOPE   O1319028   5.043   6.211   6.615 -0.0956 -0.6593  0.1235
  169SOPE   O1419029   5.170   6.066   6.450 -0.1306  0.0830  0.0868
  169SOPE   O1219030   4.916   6.086   6.436 -0.4182  0.6840 -0.1329
  169SOPE   O1119031   5.032   5.958   6.622 -0.2942 -0.0241  0.1960
  169SOPE    C119032   5.025   5.972   6.765  0.4417 -0.5092 -0.1814
  169SOPE    HA19033   5.003   6.074   6.801  1.1019 -1.5328  3.5884
  169SOPE    HB19034   5.129   5.963   6.803  0.8921  1.5744 -0.7982
  169SOPE    C219035   4.914   5.886   6.824 -1.4427  0.2631  1.1066
  169SOPE    HS19036   4.815   5.911   6.780 -1.5002 -0.4148  0.8363
  169SOPE   O2119037   4.913   5.888   6.968 -0.1373 -0.4761  0.1642
  169SOPE   C2119038   4.798   5.846   7.029  0.3839  0.8626  0.4510
  169SOPE   O2219039   4.705   5.804   6.962 -0.0967  0.8289 -0.0797
  169SOPE   C2219040   4.816   5.860   7.180  0.6072  0.1988 -0.1902
  169SOPE   H2R19041   4.730   5.806   7.226  0.4264 -0.1654 -0.9411
  169SOPE   H2S19042   4.798   5.967   7.205 -0.4227  0.5940 -2.3499
  169SOPE    C319043   4.952   5.741   6.768 -0.1133 -0.1730 -0.6930
  169SOPE    HX19044   4.935   5.741   6.658  0.5845 -2.4072 -0.8565
  169SOPE    HY19045   4.877   5.672   6.813 -0.2028 -1.0303 -2.1035
  169SOPE   O3119046   5.091   5.708   6.797  0.0337  0.0273  0.1090
  169SOPE   C3119047   5.112   5.640   6.907 -0.5813 -0.0365  0.0212
  169SOPE   O3219048   5.028   5.596   6.983  0.0136  0.0564  0.5111
  169SOPE   C3219049   5.264   5.652   6.944  0.0826  0.7627  0.1892
  169SOPE   H2X19050   5.311   5.730   6.880  0.5235  0.8074  0.5604
  169SOPE   H2Y19051   5.313   5.559   6.907  0.5716  1.1901 -0.2579
  169SOPE   C2319052   4.953   5.815   7.236 -0.5951  0.5813 -0.5948
  169SOPE   H3R19053   5.039   5.877   7.202 -0.0331  0.3143  0.3115
  169SOPE   H3S19054   4.969   5.708   7.214 -1.2743 -0.2125  2.3939
  169SOPE   C2419055   4.961   5.824   7.388 -0.1853 -0.5042  0.6332
  169SOPE   H4R19056   4.933   5.931   7.404 -1.9135 -0.6058 -1.2637
  169SOPE   H4S19057   4.886   5.760   7.441  2.5070 -1.8845  3.0801
  169SOPE   C2519058   5.104   5.810   7.448  0.8129  0.5767 -0.6219
  169SOPE   H5R19059   5.182   5.843   7.376  1.1295  0.0053 -0.5477
  169SOPE   H5S19060   5.101   5.878   7.535  0.5587  0.6118 -0.6574
  169SOPE   C2619061   5.123   5.665   7.495 -0.5102  0.1125  0.2562
  169SOPE   H6R19062   5.033   5.631   7.552  0.3003 -0.2105  1.3923
  169SOPE   H6S19063   5.118   5.596   7.408 -0.3971 -1.1453  1.2186
  169SOPE   C2719064   5.236   5.647   7.595 -0.5020  0.4094 -0.5342
  169SOPE   H7R19065   5.330   5.630   7.540 -0.3752  1.5757 -0.6978
  169SOPE   H7S19066   5.234   5.735   7.663 -0.3747 -0.5148  0.6950
  169SOPE   C2819067   5.219   5.533   7.689  0.8979  0.3829  0.0270
  169SOPE   H8R19068   5.143   5.572   7.760  1.2097 -0.6651  0.9500
  169SOPE   H8S19069   5.178   5.449   7.630  3.3258 -0.9309  0.0647
  169SOPE   C2919070   5.335   5.490   7.773 -0.0271 -0.1521 -0.1194
  169SOPE   H9119071   5.413   5.454   7.704 -1.4044 -0.3530 -1.6391
  169SOPE  C21019072   5.339   5.474   7.907  0.7699 -0.0348  0.1408
  169SOPE  H10119073   5.435   5.439   7.948 -0.3494 -1.5172  1.5962
  169SOPE  C21119074   5.231   5.493   8.008 -0.1849 -0.4304 -0.5408
  169SOPE  H11R19075   5.134   5.524   7.964 -0.3926 -0.0309  0.1653
  169SOPE  H11S19076   5.269   5.570   8.080 -1.1387  0.9145 -1.4171
  169SOPE  C21219077   5.206   5.367   8.081  0.7058  0.0795  0.5523
  169SOPE  H12R19078   5.301   5.311   8.098  0.7454 -0.0490 -0.0797
  169SOPE  H12S19079   5.132   5.316   8.017 -0.2422 -0.3081  1.9182
  169SOPE  C21319080   5.133   5.400   8.215  0.3177  0.3316  0.2009
  169SOPE  H13R19081   5.085   5.308   8.255 -0.5506  0.5781 -0.2483
  169SOPE  H13S19082   5.042   5.464   8.209 -0.1148 -0.3688 -1.3505
  169SOPE  C21419083   5.230   5.444   8.319  0.0898  0.3919  0.7023
  169SOPE  H14R19084   5.280   5.537   8.283 -1.5805  0.9297 -0.3638
  169SOPE  H14S19085   5.305   5.365   8.336  2.5323  2.2145 -0.8603
  169SOPE  C21519086   5.166   5.467   8.458  0.3647 -0.4200  0.0961
  169SOPE  H15R19087   5.119   5.369   8.481  1.5930 -0.5423  2.3508
  169SOPE  H15S19088   5.088   5.545   8.446  1.2287  0.3638 -0.5807
  169SOPE  C21619089   5.269   5.508   8.567 -0.5370 -0.7403  0.5089
  169SOPE  H16R19090   5.219   5.540   8.662 -1.9626  2.4343 -1.1622
  169SOPE  H16S19091   5.306   5.609   8.539 -1.6550 -1.0420 -2.3118
  169SOPE  C21719092   5.380   5.407   8.602 -0.0689 -0.1144  0.9940
  169SOPE  H17R19093   5.458   5.461   8.660  0.8711 -1.7329  1.2848
  169SOPE  H17S19094   5.427   5.367   8.511  2.9275  3.1128  0.9023
  169SOPE  C21819095   5.338   5.299   8.698  0.4410  0.6079  0.0700
  169SOPE  H18R19096   5.287   5.341   8.787 -1.8651  1.5475 -1.5659
  169SOPE  H18S19097   5.418   5.228   8.726 -2.9565 -3.4697  0.3752
  169SOPE  H18T19098   5.272   5.227   8.645  0.1739  0.4404  0.6260
  169SOPE   C3319099   5.303   5.694   7.091 -0.8314  0.3082 -0.2076
  169SOPE   H3X19100   5.294   5.607   7.159  0.6704 -0.2879 -0.7144
  169SOPE   H3Y19101   5.239   5.780   7.122  0.9379  2.4509 -2.1233
  169SOPE   C3419102   5.456   5.742   7.091  0.6238 -1.4786  0.4963
  169SOPE   H4X19103   5.458   5.835   7.032  1.1487 -0.3310  2.2438
  169SOPE   H4Y19104   5.521   5.662   7.049  0.0006 -1.3876 -0.6877
  169SOPE   C3519105   5.491   5.787   7.235 -0.6977  0.1643 -0.5465
  169SOPE   H5X19106   5.487   5.701   7.306  0.9482  0.7199  0.2755
  169SOPE   H5Y19107   5.424   5.871   7.264  1.5268  1.4677  1.1508
  169SOPE   C3619108   5.637   5.850   7.269 -0.2875 -0.6720  0.2715
  169SOPE   H6X19109   5.669   5.917   7.186  0.5037 -0.9885  0.3215
  169SOPE   H6Y19110   5.716   5.773   7.275 -1.0489 -1.6065 -1.1195
  169SOPE   C3719111   5.625   5.928   7.396 -0.8041 -0.0942  0.0150
  169SOPE   H7X19112   5.524   5.975   7.389  0.6527  3.0710 -3.1917
  169SOPE   H7Y19113   5.695   6.014   7.403  0.1115 -0.7119 -1.1665
  169SOPE   C3819114   5.621   5.844   7.518  0.2379 -0.0269 -1.2254
  169SOPE   H8X19115   5.523   5.791   7.517  0.0339  0.3573 -1.5085
  169SOPE   H8Y19116   5.707   5.775   7.529  2.3061  2.3631 -1.5248
  169SOPE   C3919117   5.621   5.934   7.648 -0.5756 -0.1977 -0.3596
  169SOPE   H9X19118   5.560   6.021   7.615  3.5181  2.4526 -1.7557
  169SOPE   H9Y19119   5.722   5.981   7.645 -1.0150  0.9362  1.3414
  169SOPE  C31019120   5.575   5.868   7.780 -0.0386  0.2405  0.4473
  169SOPE  H10X19121   5.655   5.791   7.789 -0.8461 -0.6252  0.2667
  169SOPE  H10Y19122   5.477   5.820   7.763  0.2034 -0.9403  2.0885
  169SOPE  C31119123   5.594   5.968   7.893  1.0354 -0.1238 -0.0188
  169SOPE  H11X19124   5.532   6.056   7.863  1.3023  0.5242  1.2657
  169SOPE  H11Y19125   5.696   6.009   7.881  0.5768  0.6216 -1.7484
  169SOPE  C31219126   5.560   5.930   8.033 -0.1930  0.0303  0.5044
  169SOPE  H12X19127   5.577   6.013   8.105  0.9155 -0.0970  0.4106
  169SOPE  H12Y19128   5.621   5.841   8.061  0.6328 -0.4212 -2.4471
  169SOPE  C31319129   5.413   5.891   8.052 -0.2209 -0.0176  0.0114
  169SOPE  H13X19130   5.397   5.795   7.998  1.1949 -0.6046  0.5848
  169SOPE  H13Y19131   5.361   5.970   7.995 -3.4326 -0.2070  2.3308
  169SOPE  C31419132   5.360   5.876   8.199 -0.5707 -0.1034 -0.2925
  169SOPE  H14X19133   5.402   5.958   8.262  1.6286  0.9774 -2.9703
  169SOPE  H14Y19134   5.393   5.775   8.232  0.8634  0.7336  1.0074
  169SOPE  C31519135   5.209   5.875   8.238 -0.3767  0.0632  0.5572
  169SOPE  H15X19136   5.167   5.802   8.165 -0.9888  2.5815 -1.7768
  169SOPE  H15Y19137   5.156   5.966   8.204 -1.3457 -1.5127 -2.5328
  169SOPE  C31619138   5.162   5.849   8.379  0.2017  0.0004 -0.0549
  169SOPE  H16X19139   5.186   5.931   8.450 -0.3481  0.6359 -0.5891
  169SOPE  H16Y19140   5.208   5.752   8.408 -1.8830 -0.3719  2.4358
  169SOPE  C31719141   5.007   5.823   8.391  0.4561 -0.3679  0.1932
  169SOPE  H17X19142   4.977   5.765   8.481 -0.8035  1.5401  1.0555
  169SOPE  H17Y19143   4.980   5.745   8.317 -1.0742  1.8671 -1.7554
  169SOPE  C31819144   4.905   5.937   8.372  0.1982  0.1219 -0.7789
  169SOPE  H18X19145   4.932   6.030   8.427  0.0918  0.9430 -2.0619
  169SOPE  H18Y19146   4.807   5.893   8.398 -0.7783  0.5631 -3.3749
  169SOPE  H18Z19147   4.890   5.964   8.265  1.2112  1.4158 -0.6280
  170SOPE     N19148   3.288   1.848   6.085 -0.4725  0.2169  0.5730
  170SOPE   HN119149   3.251   1.933   6.039 -1.6729 -1.2550 -1.2969
  170SOPE   HN219150   3.390   1.870   6.087 -0.7701  1.6777  1.8811
  170SOPE   HN319151   3.264   1.773   6.018 -3.2829  1.5194 -0.0349
  170SOPE   C1219152   3.229   1.823   6.223  0.1564 -0.0156  0.3117
  170SOPE  H12A19153   3.225   1.713   6.241 -3.1039 -0.3383 -1.6063
  170SOPE  H12B19154   3.123   1.844   6.199  0.9698  1.8549 -2.0927
  170SOPE   C1119155   3.290   1.915   6.334  1.2400 -0.0263 -0.3280
  170SOPE  H11A19156   3.380   1.859   6.368  1.0868 -0.2321 -0.2610
  170SOPE  H11B19157   3.219   1.914   6.419  1.4957 -3.3137 -0.0188
  170SOPE     P19158   3.283   2.183   6.322 -0.3708 -0.1147  0.0384
  170SOPE   O1319159   3.138   2.192   6.342  0.4826  0.1290 -0.1846
  170SOPE   O1419160   3.345   2.290   6.235  0.3872  0.4480  0.0722
  170SOPE   O1219161   3.324   2.041   6.273 -0.2818 -0.5128  0.7914
  170SOPE   O1119162   3.349   2.181   6.464  0.0399  0.0188 -0.0112
  170SOPE    C119163   3.494   2.170   6.486  0.7605  0.4645  0.5537
  170SOPE    HA19164   3.540   2.131   6.392 -0.1394  1.0326 -0.1404
  170SOPE    HB19165   3.509   2.099   6.569  2.2915  0.4339  0.2847
  170SOPE    C219166   3.557   2.307   6.542  0.2644 -0.5568  0.5503
  170SOPE    HS19167   3.667   2.303   6.528  0.2459  3.3311 -2.1485
  170SOPE   O2119168   3.522   2.313   6.679 -0.3893  0.3221 -0.2484
  170SOPE   C2119169   3.598   2.249   6.764  0.2457  0.1054 -0.3026
  170SOPE   O2219170   3.699   2.185   6.733  0.3494 -0.2127 -0.0145
  170SOPE   C2219171   3.552   2.278   6.909  0.5757  0.1029 -0.3233
  170SOPE   H2R19172   3.473   2.203   6.929  0.6376 -0.5299 -2.1824
  170SOPE   H2S19173   3.524   2.384   6.926  1.1580 -0.1605  2.8159
  170SOPE    C319174   3.511   2.433   6.475  0.2121 -0.3775 -0.2937
  170SOPE    HX19175   3.401   2.434   6.488  0.1814 -1.1982 -0.4218
  170SOPE    HY19176   3.530   2.444   6.366  1.0507  0.8421 -0.0430
  170SOPE   O3119177   3.547   2.554   6.543 -0.4684 -0.2369 -0.2515
  170SOPE   C3119178   3.674   2.597   6.550  0.6817  0.3178 -0.4725
  170SOPE   O3219179   3.766   2.555   6.488 -0.3570 -0.5236 -0.0719
  170SOPE   C3219180   3.690   2.733   6.633  0.1070 -0.0020  0.3402
  170SOPE   H2X19181   3.590   2.768   6.666  0.1327  0.4349 -0.0441
  170SOPE   H2Y19182   3.722   2.816   6.566  1.3555  2.0885  3.3185
  170SOPE   C2319183   3.678   2.253   7.002 -0.1451 -0.3798 -0.1327
  170SOPE   H3R19184   3.741   2.344   7.006  2.5780 -2.1576 -0.0833
  170SOPE   H3S19185   3.746   2.172   6.969  1.2654  0.2573  1.1078
  170SOPE   C2419186   3.619   2.224   7.143  0.2260 -1.2555 -0.2335
  170SOPE   H4R19187   3.546   2.304   7.169 -0.5123 -2.2677  0.8862
  170SOPE   H4S19188   3.574   2.123   7.141 -1.4313 -0.5385 -0.7400
  170SOPE   C2519189   3.726   2.231   7.257 -0.3356 -0.4028  0.4780
  170SOPE   H5R19190   3.805   2.154   7.244  0.1034  0.1600 -0.2049
  170SOPE   H5S19191   3.764   2.335   7.255 -0.8642 -0.2151 -0.3819
  170SOPE   C2619192   3.677   2.198   7.395  0.1505 -0.2538  0.0038
  170SOPE   H6R19193   3.617   2.287   7.424  0.6063 -0.2980  1.1266
  170SOPE   H6S19194   3.599   2.119   7.394 -0.0903 -0.0217 -0.9981
  170SOPE   C2719195   3.792   2.176   7.493  0.3101 -0.3031  0.1627
  170SOPE   H7R19196   3.851   2.084   7.472 -1.2216 -1.2622 -0.1414
  170SOPE   H7S19197   3.864   2.258   7.473 -2.5036  2.6743  1.3496
  170SOPE   C2819198   3.745   2.159   7.638  0.0152  0.0098  0.2128
  170SOPE   H8R19199   3.656   2.093   7.638 -1.4696  1.9262 -0.5029
  170SOPE   H8S19200   3.820   2.111   7.705 -1.2587 -1.8340  0.3877
  170SOPE   C2919201   3.697   2.288   7.700 -0.2226  0.0499 -0.9287
  170SOPE   H9119202   3.594   2.307   7.664 -1.5504 -2.3325  1.2935
  170SOPE  C21019203   3.754   2.360   7.804  0.7058  0.2287 -0.1937
  170SOPE  H10119204   3.702   2.448   7.844  2.3188  0.0284  2.5656
  170SOPE  C21119205   3.881   2.341   7.887  0.2899  0.1303 -0.4805
  170SOPE  H11R19206   3.908   2.440   7.930 -1.4315 -0.0484  1.1498
  170SOPE  H11S19207   3.966   2.298   7.830  0.7568 -1.2357  1.1709
  170SOPE  C21219208   3.850   2.255   8.019  0.0177  0.5134 -0.2349
  170SOPE  H12R19209   3.920   2.290   8.098 -2.2183  1.4334  1.4436
  170SOPE  H12S19210   3.884   2.154   7.987 -0.7063  0.6698 -1.5781
  170SOPE  C21319211   3.704   2.234   8.062 -0.3328 -0.7936 -0.1700
  170SOPE  H13R19212   3.654   2.153   8.004 -1.6188  0.3110 -0.6593
  170SOPE  H13S19213   3.646   2.327   8.042  1.5633 -0.0436 -2.7421
  170SOPE  C21419214   3.691   2.210   8.216 -0.1838  0.3791  0.6421
  170SOPE  H14R19215   3.587   2.198   8.253 -1.1716  3.0407 -0.9590
  170SOPE  H14S19216   3.722   2.299   8.275 -2.3360  2.3643 -1.0051
  170SOPE  C21519217   3.758   2.075   8.245 -0.4391  0.2642  0.1497
  170SOPE  H15R19218   3.853   2.061   8.190 -0.7809 -0.8698 -0.1802
  170SOPE  H15S19219   3.696   1.988   8.211  0.1603 -0.4929  0.9503
  170SOPE  C21619220   3.798   2.063   8.390 -0.4198 -0.2898 -0.1580
  170SOPE  H16R19221   3.715   2.094   8.457  0.6743  0.9814  0.6525
  170SOPE  H16S19222   3.890   2.121   8.411 -0.5667 -0.8522  2.3770
  170SOPE  C21719223   3.835   1.920   8.422 -0.6352  0.3594 -0.7135
  170SOPE  H17R19224   3.892   1.884   8.333  1.7620 -0.2620  0.9582
  170SOPE  H17S19225   3.749   1.852   8.440 -0.3930 -0.1615 -1.4622
  170SOPE  C21819226   3.937   1.909   8.532  0.2460 -0.3166  0.2384
  170SOPE  H18R19227   4.032   1.961   8.505 -0.6676  0.5760 -1.4642
  170SOPE  H18S19228   3.975   1.806   8.549  0.7287 -0.3301 -0.8001
  170SOPE  H18T19229   3.900   1.956   8.625 -0.7665  0.9743 -0.7928
  170SOPE   C3319230   3.770   2.735   6.766  0.3660  0.1554  0.0680
  170SOPE   H3X19231   3.784   2.836   6.810  0.8201  0.2225 -0.2172
  170SOPE   H3Y19232   3.878   2.714   6.749  0.3116  1.5121 -2.3208
  170SOPE   C3419233   3.707   2.656   6.879  0.6380  0.4797  0.1504
  170SOPE   H4X19234   3.702   2.549   6.849  3.3943  0.9872 -2.6569
  170SOPE   H4Y19235   3.605   2.686   6.910 -0.2925 -1.1555 -1.1273
  170SOPE   C3519236   3.789   2.660   7.010 -0.5585 -0.1326  0.1242
  170SOPE   H5X19237   3.817   2.766   7.032 -2.2641  0.2102  0.8084
  170SOPE   H5Y19238   3.882   2.603   6.990  1.7533  2.8724  1.4409
  170SOPE   C3619239   3.713   2.607   7.137  0.1863  0.2181  0.5894
  170SOPE   H6X19240   3.676   2.503   7.126 -0.5323  0.4020  1.1640
  170SOPE   H6Y19241   3.622   2.670   7.128 -0.9127 -1.5418 -1.7097
  170SOPE   C3719242   3.774   2.638   7.270 -0.0471  0.2720  0.4662
  170SOPE   H7X19243   3.817   2.740   7.275  0.2126  0.1252  3.0662
  170SOPE   H7Y19244   3.855   2.562   7.281 -0.1896 -0.4884 -2.8137
  170SOPE   C3819245   3.668   2.625   7.380  0.4092  0.2873  0.2883
  170SOPE   H8X19246   3.605   2.534   7.381  1.6693 -0.6079  1.8521
  170SOPE   H8Y19247   3.599   2.708   7.353 -0.5801 -0.8383 -0.8001
  170SOPE   C3919248   3.743   2.640   7.523  0.0265 -0.1206  0.7792
  170SOPE   H9X19249   3.825   2.710   7.495 -0.3690  0.1240  0.2261
  170SOPE   H9Y19250   3.794   2.545   7.550  0.2367  0.0318  0.9261
  170SOPE  C31019251   3.654   2.693   7.628  0.2882  0.1536 -0.6190
  170SOPE  H10X19252   3.593   2.612   7.673  0.1774  0.6861  0.2046
  170SOPE  H10Y19253   3.586   2.765   7.578  1.4976  1.4551 -0.4451
  170SOPE  C31119254   3.742   2.756   7.736 -0.0170  0.7530 -1.2816
  170SOPE  H11X19255   3.822   2.812   7.683  1.8432 -1.2943 -0.7878
  170SOPE  H11Y19256   3.802   2.675   7.782 -0.4277  1.2810  0.2366
  170SOPE  C31219257   3.657   2.828   7.838  0.8519  0.5465  0.0072
  170SOPE  H12X19258   3.586   2.896   7.785 -1.0860  0.4895  2.3375
  170SOPE  H12Y19259   3.731   2.890   7.892  1.4773  1.3540 -1.6952
  170SOPE  C31319260   3.569   2.738   7.927 -0.4517  0.4954 -0.3385
  170SOPE  H13X19261   3.627   2.647   7.954  0.6850  1.8794  2.2349
  170SOPE  H13Y19262   3.484   2.688   7.876 -1.8564  0.5849  1.8027
  170SOPE  C31419263   3.514   2.809   8.056 -0.3339  0.8211 -0.0221
  170SOPE  H14X19264   3.422   2.861   8.021  0.0731  1.0583 -0.7688
  170SOPE  H14Y19265   3.586   2.888   8.087  0.3694  1.0382 -2.0274
  170SOPE  C31519266   3.499   2.717   8.181  0.1057 -0.1202  0.2763
  170SOPE  H15X19267   3.595   2.665   8.201 -1.3368 -2.7383  0.8419
  170SOPE  H15Y19268   3.417   2.643   8.167  1.4990 -1.7193  0.2314
  170SOPE  C31619269   3.459   2.797   8.311 -0.3018 -0.6867  0.0286
  170SOPE  H16X19270   3.446   2.717   8.387 -2.3351 -1.2968 -0.8934
  170SOPE  H16Y19271   3.361   2.838   8.281 -0.2529  0.6235  1.5342
  170SOPE  C31719272   3.554   2.910   8.359  0.3036 -0.0851  0.8395
  170SOPE  H17X19273   3.549   2.989   8.282 -0.1361 -1.7451 -0.9220
  170SOPE  H17Y19274   3.659   2.872   8.355 -0.1539 -1.2979 -0.7358
  170SOPE  C31819275   3.518   2.968   8.492 -0.4118 -0.0047 -0.4133
  170SOPE  H18X19276   3.414   3.007   8.485 -0.5692 -0.4387 -0.5091
  170SOPE  H18Y19277   3.586   3.052   8.520 -1.8067  0.4955  1.7118
  170SOPE  H18Z19278   3.512   2.893   8.573 -0.2200  0.6978  0.2687
  171SOPE     N19279   5.836   0.497   6.323  0.5198 -0.6395  0.0880
  171SOPE   HN119280   5.848   0.558   6.407 -1.2576 -0.9567  0.6205
  171SOPE   HN219281   5.740   0.510   6.283  1.5383  0.3881 -2.2033
  171SOPE   HN319282   5.846   0.395   6.337  1.0276 -1.0246 -2.5808
  171SOPE   C1219283   5.934   0.553   6.231 -0.2944  0.4754 -0.3680
  171SOPE  H12A19284   5.935   0.663   6.249  1.5566  0.4146  0.0746
  171SOPE  H12B19285   5.917   0.526   6.125  2.3504  0.2574 -0.7971
  171SOPE   C1119286   6.072   0.492   6.284  0.0030  0.2799  0.5352
  171SOPE  H11A19287   6.097   0.534   6.384  2.8218  2.4229 -0.9109
  171SOPE  H11B19288   6.150   0.539   6.220  1.5524  0.1271  2.2208
  171SOPE     P19289   6.212   0.284   6.319  0.1093  0.2482  0.1300
  171SOPE   O1319290   6.308   0.380   6.371 -0.1690 -0.2585  0.2297
  171SOPE   O1419291   6.257   0.206   6.204  0.3434  0.0351  0.0111
  171SOPE   O1219292   6.081   0.351   6.262 -0.3361 -0.6779 -0.2305
  171SOPE   O1119293   6.177   0.176   6.433  0.0231 -0.5846  0.1781
  171SOPE    C119294   6.043   0.156   6.476 -0.1295  1.1750  0.1557
  171SOPE    HA19295   5.977   0.107   6.402 -0.3838  2.0230 -0.1951
  171SOPE    HB19296   5.993   0.253   6.500  0.1966  0.9249  1.9791
  171SOPE    C219297   6.030   0.054   6.596  0.2111 -0.4334  0.4673
  171SOPE    HS19298   5.925   0.061   6.629 -0.4293  1.1434 -1.6714
  171SOPE   O2119299   6.118   0.094   6.703  0.2581  0.2339 -0.0763
  171SOPE   C2119300   6.078   0.208   6.766  0.4051  0.4611  0.1339
  171SOPE   O2219301   5.973   0.262   6.740  0.2363  0.2411  0.4120
  171SOPE   C2219302   6.162   0.243   6.882  0.0107 -0.3581 -0.0401
  171SOPE   H2R19303   6.244   0.309   6.847  0.4997 -0.7839  0.2867
  171SOPE   H2S19304   6.200   0.147   6.924  0.0310 -0.9585 -1.3555
  171SOPE    C319305   6.075  -0.087   6.560 -0.2299 -0.2147  0.6902
  171SOPE    HX19306   6.185  -0.080   6.542 -0.0675  0.8726  2.0108
  171SOPE    HY19307   6.021  -0.129   6.472 -2.4121  1.1902  1.2856
  171SOPE   O3119308   6.035  -0.175   6.666 -0.2662 -0.4569  0.4109
  171SOPE   C3119309   6.124  -0.261   6.712  0.7149  0.2450  0.0786
  171SOPE   O3219310   6.235  -0.281   6.672  0.2712 -0.3264 -0.2419
  171SOPE   C3219311   6.054  -0.330   6.826 -0.1355  0.0096 -0.1112
  171SOPE   H2X19312   6.030  -0.428   6.780 -1.9708  0.1867  0.3603
  171SOPE   H2Y19313   5.956  -0.284   6.853 -0.9021  0.4772 -3.3211
  171SOPE   C2319314   6.087   0.330   6.986 -0.3425  0.3648 -0.4523
  171SOPE   H3R19315   5.997   0.277   7.023  0.5593 -0.3929  0.7390
  171SOPE   H3S19316   6.071   0.422   6.925  1.4838 -0.0351 -1.6123
  171SOPE   C2419317   6.183   0.355   7.110  0.2217  0.0111  0.1044
  171SOPE   H4R19318   6.210   0.255   7.149  0.1419 -0.0221  0.0739
  171SOPE   H4S19319   6.275   0.404   7.071  0.1510  0.0019 -0.0760
  171SOPE   C2519320   6.118   0.440   7.222 -0.1090  0.6038  0.4047
  171SOPE   H5R19321   6.095   0.542   7.184 -0.1590 -0.1352 -1.6997
  171SOPE   H5S19322   6.032   0.382   7.262  1.2358 -1.0679  1.0387
  171SOPE   C2619323   6.223   0.479   7.340  0.4698 -0.2961  0.2758
  171SOPE   H6R19324   6.326   0.496   7.302  0.6949 -0.6836  0.7007
  171SOPE   H6S19325   6.186   0.570   7.391 -0.2818  0.4005 -1.4262
  171SOPE   C2719326   6.215   0.363   7.442 -0.6123 -0.2930 -0.3703
  171SOPE   H7R19327   6.107   0.359   7.466 -0.2339  0.5764  1.7050
  171SOPE   H7S19328   6.240   0.267   7.390  0.0499 -0.8070  0.8505
  171SOPE   C2819329   6.302   0.385   7.570 -0.3904 -0.4228 -0.1482
  171SOPE   H8R19330   6.407   0.399   7.537 -0.4438  0.5549  0.0526
  171SOPE   H8S19331   6.254   0.475   7.616 -0.5688 -1.0737  0.9849
  171SOPE   C2919332   6.297   0.271   7.675 -0.4561 -0.2057 -0.4508
  171SOPE   H9119333   6.225   0.190   7.657  0.4122 -1.1893  0.3752
  171SOPE  C21019334   6.378   0.265   7.784  0.2351 -0.7908 -0.2778
  171SOPE  H10119335   6.366   0.185   7.857 -1.1602 -0.0968  0.2890
  171SOPE  C21119336   6.474   0.387   7.816 -0.0071  0.5104 -0.0611
  171SOPE  H11R19337   6.451   0.476   7.754  3.4211  1.7180  0.2249
  171SOPE  H11S19338   6.577   0.355   7.791  0.1767 -1.1215  2.4492
  171SOPE  C21219339   6.475   0.448   7.953 -0.3093  0.2809  0.2350
  171SOPE  H12R19340   6.554   0.524   7.966  0.1809 -0.3561  1.0752
  171SOPE  H12S19341   6.512   0.370   8.023  0.7074  1.5886  1.2065
  171SOPE  C21319342   6.341   0.501   8.001  0.0770 -0.1140 -0.0442
  171SOPE  H13R19343   6.359   0.531   8.107  2.0298 -1.4339  0.0590
  171SOPE  H13S19344   6.266   0.420   8.015  0.4692 -0.4794 -0.0387
  171SOPE  C21419345   6.283   0.630   7.927  0.7633  0.2244 -0.1994
  171SOPE  H14R19346   6.293   0.611   7.817  1.7367  1.6927 -0.3932
  171SOPE  H14S19347   6.341   0.724   7.944  1.1560 -0.2930  1.3946
  171SOPE  C21519348   6.140   0.671   7.963  0.9803 -0.2122 -0.0180
  171SOPE  H15R19349   6.129   0.671   8.074  0.4406  1.3993 -0.0416
  171SOPE  H15S19350   6.064   0.599   7.924  0.4311 -0.1742  0.9298
  171SOPE  C21619351   6.110   0.820   7.923 -0.1913 -0.1062 -0.2573
  171SOPE  H16R19352   6.181   0.894   7.966 -1.5153  2.0034 -1.5227
  171SOPE  H16S19353   6.007   0.854   7.946 -0.7640 -0.1306 -2.5917
  171SOPE  C21719354   6.127   0.843   7.770 -0.0753  0.3934 -0.2924
  171SOPE  H17R19355   6.233   0.819   7.746 -0.2395  1.3953 -2.2401
  171SOPE  H17S19356   6.130   0.951   7.743  0.9695  0.2707 -0.7417
  171SOPE  C21819357   6.036   0.754   7.686  0.4690  0.0300 -0.2458
  171SOPE  H18R19358   6.057   0.771   7.578 -0.2500 -1.4506 -0.6417
  171SOPE  H18S19359   5.929   0.778   7.700 -0.2272 -2.7827 -0.2166
  171SOPE  H18T19360   6.057   0.647   7.710  1.2889  0.2025 -0.1640
  171SOPE   C3319361   6.141  -0.341   6.953  0.2421  0.4839  0.1828
  171SOPE   H3X19362   6.242  -0.386   6.938  0.3932  0.6710  0.6191
  171SOPE   H3Y19363   6.097  -0.421   7.015 -0.8980  0.4673 -0.6184
  171SOPE   C3419364   6.161  -0.210   7.029 -0.3524 -0.0437 -0.3852
  171SOPE   H4X19365   6.067  -0.178   7.078  0.8319 -0.5826  2.4778
  171SOPE   H4Y19366   6.181  -0.137   6.948 -0.0894 -2.3609 -2.5404
  171SOPE   C3519367   6.253  -0.202   7.150  0.2036 -0.5367  0.0746
  171SOPE   H5X19368   6.247  -0.098   7.186  0.3482  0.2626 -2.0862
  171SOPE   H5Y19369   6.359  -0.232   7.137 -0.0723 -1.6618  0.2759
  171SOPE   C3619370   6.214  -0.304   7.255  0.4022  0.2921  0.1571
  171SOPE   H6X19371   6.208  -0.405   7.208 -1.7773  0.6051 -0.3275
  171SOPE   H6Y19372   6.105  -0.289   7.272  0.3761 -0.3764  0.6032
  171SOPE   C3719373   6.298  -0.301   7.382  0.0394  0.1039 -1.1911
  171SOPE   H7X19374   6.307  -0.203   7.434  0.2554 -0.7367  0.4324
  171SOPE   H7Y19375   6.401  -0.309   7.343 -0.4806  0.4218 -2.6878
  171SOPE   C3819376   6.288  -0.414   7.487 -0.2345 -0.1777  0.1895
  171SOPE   H8X19377   6.359  -0.404   7.572 -0.2628 -0.9668  0.3116
  171SOPE   H8Y19378   6.325  -0.505   7.435 -0.1043 -0.0689  0.0868
  171SOPE   C3919379   6.153  -0.444   7.553 -0.2605 -0.5121 -0.3141
  171SOPE   H9X19380   6.087  -0.455   7.465 -0.3844  0.4986 -0.3681
  171SOPE   H9Y19381   6.118  -0.351   7.603  0.0750 -0.7329  0.3363
  171SOPE  C31019382   6.146  -0.560   7.651  0.6251 -0.1999  0.5086
  171SOPE  H10X19383   6.209  -0.647   7.621  0.4705 -0.0924 -0.1391
  171SOPE  H10Y19384   6.050  -0.615   7.649 -0.4011  1.5398 -0.8439
  171SOPE  C31119385   6.172  -0.539   7.801  0.1341 -0.3007  0.8550
  171SOPE  H11X19386   6.188  -0.635   7.853  2.0229  0.1225  1.1176
  171SOPE  H11Y19387   6.083  -0.486   7.841  1.0850  3.3820 -1.3785
  171SOPE  C31219388   6.300  -0.459   7.845  0.2949 -0.1240 -0.4972
  171SOPE  H12X19389   6.308  -0.367   7.783 -0.3263  0.9704  1.0179
  171SOPE  H12Y19390   6.383  -0.529   7.818 -1.0079 -1.7246 -0.5093
  171SOPE  C31319391   6.298  -0.418   7.990  0.1945 -0.1326 -0.2137
  171SOPE  H13X19392   6.213  -0.348   8.000  2.0216  1.9501  2.0056
  171SOPE  H13Y19393   6.379  -0.351   8.026 -0.7974  0.0440  1.8217
  171SOPE  C31419394   6.277  -0.532   8.099 -0.0557 -0.1394  0.2125
  171SOPE  H14X19395   6.359  -0.607   8.097  1.0348  0.9669  1.3059
  171SOPE  H14Y19396   6.188  -0.592   8.071  1.5106 -2.4320 -0.1453
  171SOPE  C31519397   6.231  -0.477   8.237  1.5565 -0.0856  0.7876
  171SOPE  H15X19398   6.225  -0.564   8.305 -1.2270 -0.1537  0.6018
  171SOPE  H15Y19399   6.135  -0.421   8.227  1.0900 -0.3630  3.0188
  171SOPE  C31619400   6.330  -0.378   8.296 -0.2453 -0.2362 -0.3597
  171SOPE  H16X19401   6.329  -0.285   8.235 -2.1621  1.0114  1.4347
  171SOPE  H16Y19402   6.434  -0.415   8.286  0.7554  1.7516  1.7794
  171SOPE  C31719403   6.310  -0.335   8.440  0.3139  0.3397 -0.2071
  171SOPE  H17X19404   6.337  -0.423   8.502 -0.4255  1.0159  1.1118
  171SOPE  H17Y19405   6.208  -0.295   8.459  1.5692  2.2871  3.1687
  171SOPE  C31819406   6.398  -0.227   8.513  0.2841 -0.1716  1.0389
  171SOPE  H18X19407   6.342  -0.175   8.594  1.4348 -0.8693  2.3359
  171SOPE  H18Y19408   6.430  -0.154   8.437  0.9973  0.2738  1.7504
  171SOPE  H18Z19409   6.494  -0.273   8.545 -0.4097 -3.2283 -0.8550
  172SOPE     N19410   6.518   0.305   6.530  0.1097  0.2372  0.1811
  172SOPE   HN119411   6.524   0.375   6.607  0.3643  0.9337 -0.4642
  172SOPE   HN219412   6.434   0.319   6.470 -1.2989 -0.6998  1.8321
  172SOPE   HN319413   6.505   0.213   6.576 -3.6210  0.5054 -0.0685
  172SOPE   C1219414   6.649   0.305   6.459  1.0718 -0.2411  0.4358
  172SOPE  H12A19415   6.656   0.406   6.412  0.1127 -0.9605 -1.3558
  172SOPE  H12B19416   6.644   0.224   6.384  1.9442  0.0631  0.0335
  172SOPE   C1119417   6.750   0.281   6.574  0.0887  0.4873  0.3106
  172SOPE  H11A19418   6.850   0.259   6.532 -0.6438  0.0567 -1.2652
  172SOPE  H11B19419   6.713   0.192   6.628  0.7722 -0.3012 -0.4962
  172SOPE     P19420   6.847   0.518   6.631 -0.1761 -0.3352  0.1497
  172SOPE   O1319421   6.756   0.627   6.605 -0.1016 -0.3454  0.0910
  172SOPE   O1419422   6.946   0.491   6.528 -0.1994  0.3575  0.4976
  172SOPE   O1219423   6.757   0.393   6.660  0.3915 -0.2040  0.4020
  172SOPE   O1119424   6.917   0.544   6.771 -0.4885 -0.0006 -0.0409
  172SOPE    C119425   6.966   0.434   6.852 -0.1581 -0.2785  0.1218
  172SOPE    HA19426   7.061   0.463   6.900  0.0235  1.1353 -1.0064
  172SOPE    HB19427   6.996   0.348   6.790  1.0573  0.4873 -0.3787
  172SOPE    C219428   6.860   0.373   6.952 -0.6142  0.4244  0.5062
  172SOPE    HS19429   6.774   0.344   6.889  0.1671  1.5464 -1.1555
  172SOPE   O2119430   6.833   0.469   7.061  0.1848  0.1703 -0.4712
  172SOPE   C2119431   6.705   0.478   7.098 -0.4957 -0.5503 -0.5886
  172SOPE   O2219432   6.615   0.409   7.055  0.4047 -0.3991  0.0870
  172SOPE   C2219433   6.682   0.579   7.215  0.1907  0.5626  1.3811
  172SOPE   H2R19434   6.573   0.577   7.234 -0.0065  1.8666  0.4919
  172SOPE   H2S19435   6.699   0.677   7.165  1.3892 -1.5842 -2.9366
  172SOPE    C319436   6.914   0.239   7.008 -0.0525  0.6997  0.3528
  172SOPE    HX19437   6.960   0.185   6.922 -1.2732 -0.0083  0.1264
  172SOPE    HY19438   6.826   0.181   7.044  1.0938 -2.3658 -1.3642
  172SOPE   O3119439   7.014   0.270   7.109  0.3810 -0.3867 -0.3392
  172SOPE   C3119440   7.124   0.198   7.117 -0.2317  0.1098  0.2309
  172SOPE   O3219441   7.156   0.108   7.039  0.1954 -0.0220 -0.2450
  172SOPE   C3219442   7.204   0.235   7.240 -0.5403  0.4892 -0.1076
  172SOPE   H2X19443   7.140   0.239   7.331  3.8680  0.6474  3.2652
  172SOPE   H2Y19444   7.260   0.327   7.213 -0.8087  1.1039  1.3405
  172SOPE   C2319445   6.779   0.549   7.330 -0.2949 -0.0098 -0.0027
  172SOPE   H3R19446   6.755   0.622   7.410 -0.3617  0.7043 -0.6584
  172SOPE   H3S19447   6.884   0.570   7.301 -0.6921  0.5895 -1.0424
  172SOPE   C2419448   6.770   0.410   7.390 -0.0956  0.1421  0.3292
  172SOPE   H4R19449   6.666   0.388   7.422 -1.2055  2.8494 -1.0733
  172SOPE   H4S19450   6.801   0.329   7.320 -2.1945 -1.2511  0.8955
  172SOPE   C2519451   6.859   0.388   7.516  0.1744  0.2677 -0.7411
  172SOPE   H5R19452   6.964   0.367   7.486 -0.1079 -0.5916 -1.1486
  172SOPE   H5S19453   6.864   0.485   7.570  0.2108 -0.5583  0.8107
  172SOPE   C2619454   6.805   0.277   7.607  0.3957  0.2021 -0.9288
  172SOPE   H6R19455   6.699   0.296   7.631  0.6532  0.6165 -0.0932
  172SOPE   H6S19456   6.827   0.178   7.562  1.0140  1.2755 -3.1651
  172SOPE   C2719457   6.881   0.291   7.741  0.1475 -0.3824  0.0350
  172SOPE   H7R19458   6.991   0.281   7.724  0.1238 -0.4995 -0.0487
  172SOPE   H7S19459   6.868   0.398   7.769  0.4747 -0.2739 -0.2132
  172SOPE   C2819460   6.852   0.181   7.842 -0.3041 -0.4556 -0.1071
  172SOPE   H8R19461   6.748   0.194   7.879 -0.8293  1.3647 -2.0090
  172SOPE   H8S19462   6.861   0.083   7.789  0.2070 -0.3792 -0.1619
  172SOPE   C2919463   6.944   0.160   7.964  0.3606 -0.2854 -0.1861
  172SOPE   H9119464   7.000   0.066   7.958 -0.7879 -1.0564  0.7307
  172SOPE  C21019465   6.951   0.244   8.067 -0.4078 -1.2067 -0.4204
  172SOPE  H10119466   7.019   0.228   8.152  0.0909 -2.5091 -1.0363
  172SOPE  C21119467   6.863   0.363   8.071  0.1472 -0.2669 -0.6547
  172SOPE  H11R19468   6.763   0.347   8.026 -0.1355  1.1705 -0.5840
  172SOPE  H11S19469   6.913   0.444   8.014 -0.5550  0.5031 -0.1941
  172SOPE  C21219470   6.841   0.410   8.215  0.1065 -0.3869 -0.6054
  172SOPE  H12R19471   6.781   0.334   8.269  2.5261 -2.7620 -1.0452
  172SOPE  H12S19472   6.770   0.495   8.221  0.3315 -0.1858 -0.7653
  172SOPE  C21319473   6.964   0.462   8.292 -0.1575 -0.3928  0.1344
  172SOPE  H13R19474   7.021   0.541   8.239  0.4870  0.5103  2.0898
  172SOPE  H13S19475   7.042   0.384   8.311 -1.7312 -2.0233  0.2028
  172SOPE  C21419476   6.917   0.515   8.427 -0.6008  0.4566 -0.3142
  172SOPE  H14R19477   6.852   0.430   8.457  1.1898 -0.5517  0.9338
  172SOPE  H14S19478   6.846   0.597   8.405  0.5305  1.5805  0.1484
  172SOPE  C21519479   7.021   0.553   8.536 -0.1178 -1.0071 -0.3765
  172SOPE  H15R19480   7.079   0.645   8.515 -0.9710 -0.8123 -2.0579
  172SOPE  H15S19481   7.104   0.481   8.549  1.5195  1.0447  1.2743
  172SOPE  C21619482   6.943   0.573   8.667  0.2097  0.6291 -1.4107
  172SOPE  H16R19483   6.846   0.627   8.659 -1.8881 -2.0748  2.3262
  172SOPE  H16S19484   7.013   0.636   8.724  0.3018  0.0759 -0.9070
  172SOPE  C21719485   6.921   0.445   8.749  0.2914  0.1005 -0.1466
  172SOPE  H17R19486   7.020   0.397   8.768  0.0364 -0.3319  0.1199
  172SOPE  H17S19487   6.860   0.369   8.695  0.7845 -1.0609  0.8653
  172SOPE  C21819488   6.858   0.460   8.881  0.4067 -0.0070  0.0024
  172SOPE  H18R19489   6.853   0.367   8.941  0.7878 -0.1220 -0.1372
  172SOPE  H18S19490   6.754   0.498   8.877  0.4304  0.5002  2.6192
  172SOPE  H18T19491   6.918   0.523   8.949 -2.2363  0.8282  1.6970
  172SOPE   C3319492   7.314   0.133   7.264  0.6765  0.2341 -0.0809
  172SOPE   H3X19493   7.390   0.131   7.184 -0.5115  0.8990 -1.2740
  172SOPE   H3Y19494   7.267   0.032   7.259 -0.0730  0.5273  0.7549
  172SOPE   C3419495   7.387   0.161   7.403  0.3956  0.2295 -0.5084
  172SOPE   H4X19496   7.311   0.199   7.474 -2.9823  2.1538 -4.6912
  172SOPE   H4Y19497   7.460   0.243   7.385 -1.3588  1.8212 -0.5833
  172SOPE   C3519498   7.469   0.040   7.442  0.2003 -0.4471  0.1501
  172SOPE   H5X19499   7.544   0.017   7.364 -0.4145 -2.7267  0.1419
  172SOPE   H5Y19500   7.404  -0.049   7.455  0.2602 -1.0016 -2.8063
  172SOPE   C3619501   7.534   0.078   7.574  0.1034 -0.4482  0.5517
  172SOPE   H6X19502   7.460   0.110   7.650 -0.5096  0.3904 -0.3761
  172SOPE   H6Y19503   7.601   0.165   7.556 -1.4663  0.6523 -0.2342
  172SOPE   C3719504   7.622  -0.032   7.626 -0.2063  0.8556  0.9222
  172SOPE   H7X19505   7.711  -0.044   7.560 -1.5845  0.6485 -1.0017
  172SOPE   H7Y19506   7.553  -0.120   7.632  0.2892  0.4986  1.4514
  172SOPE   C3819507   7.680  -0.010   7.768 -0.0982  0.0128 -0.3087
  172SOPE   H8X19508   7.588   0.018   7.825  0.5906 -1.4373  1.6343
  172SOPE   H8Y19509   7.754   0.071   7.782  0.3304 -0.8260  3.5355
  172SOPE   C3919510   7.729  -0.140   7.847 -0.2248 -0.4358 -0.2690
  172SOPE   H9X19511   7.806  -0.199   7.794  0.5336  0.9040 -0.7178
  172SOPE   H9Y19512   7.642  -0.208   7.857  0.0022 -0.5897  0.8437
  172SOPE  C31019513   7.775  -0.104   7.985  0.2376 -0.1424  0.3672
  172SOPE  H10X19514   7.712  -0.022   8.026  0.2354  0.8572 -1.5142
  172SOPE  H10Y19515   7.874  -0.056   7.967 -0.6068  0.7089 -2.6452
  172SOPE  C31119516   7.801  -0.225   8.069  0.5922 -0.5686 -0.9922
  172SOPE  H11X19517   7.819  -0.317   8.010 -2.3743 -0.6669 -1.8780
  172SOPE  H11Y19518   7.709  -0.251   8.126  0.6870  0.7706 -0.1843
  172SOPE  C31219519   7.915  -0.197   8.169  0.2934  0.4209 -0.3940
  172SOPE  H12X19520   7.883  -0.120   8.244  0.5742 -0.5783  0.7824
  172SOPE  H12Y19521   8.006  -0.161   8.117  0.4871 -1.5977 -1.5267
  172SOPE  C31319522   7.952  -0.328   8.233 -0.2415 -0.3369  0.2683
  172SOPE  H13X19523   7.997  -0.391   8.153  1.6078  0.1643  0.8866
  172SOPE  H13Y19524   7.857  -0.381   8.256 -1.4000  1.5388 -0.0159
  172SOPE  C31419525   8.040  -0.322   8.357  0.1214  0.3374  1.2417
  172SOPE  H14X19526   7.979  -0.266   8.431  1.0543  0.8336  1.6598
  172SOPE  H14Y19527   8.136  -0.268   8.340  0.1259  0.8145  2.6663
  172SOPE  C31519528   8.057  -0.459   8.418 -0.4116  0.0146 -0.0953
  172SOPE  H15X19529   8.122  -0.535   8.369  4.3026  2.1938  2.1318
  172SOPE  H15Y19530   7.952  -0.495   8.411  0.0430 -1.0593 -2.4873
  172SOPE  C31619531   8.091  -0.437   8.565 -0.1622 -0.3981  0.0983
  172SOPE  H16X19532   8.103  -0.538   8.610  1.1383 -1.0602 -1.6098
  172SOPE  H16Y19533   8.015  -0.385   8.628  0.4915  1.2446 -0.4099
  172SOPE  C31719534   8.223  -0.370   8.589 -0.4304  0.8854  0.5047
  172SOPE  H17X19535   8.223  -0.261   8.570  1.2849  0.5931 -1.6937
  172SOPE  H17Y19536   8.285  -0.422   8.513 -0.3064 -2.1543  2.4888
  172SOPE  C31819537   8.263  -0.403   8.735 -0.1193  0.1453  0.5752
  172SOPE  H18X19538   8.212  -0.324   8.794 -0.6678 -0.7539  1.3453
  172SOPE  H18Y19539   8.372  -0.397   8.752 -0.0722 -1.5388  1.0795
  172SOPE  H18Z19540   8.231  -0.505   8.768 -2.6910  1.2946  1.9270
  173SAPI   C1219541   0.291   2.051  10.975  0.1651  0.3002  0.0014
  173SAPI    H219542   0.268   1.943  10.980  2.2197 -0.1464  0.6691
  173SAPI    O219543   0.240   2.114  11.088 -0.5730 -0.0475 -0.6428
  173SAPI   HO219544   0.161   2.162  11.062  0.0655  0.8169 -1.0603
  173SAPI   C1319545   0.440   2.073  10.955  0.0350 -0.0591 -0.3513
  173SAPI    H319546   0.478   2.025  10.862 -0.7602 -0.8391 -0.2815
  173SAPI    O319547   0.521   2.012  11.062 -0.0491  0.0990  0.0890
  173SAPI   HO319548   0.555   1.927  11.033  1.7208  0.7607  0.0745
  173SAPI   C1419549   0.470   2.223  10.945 -0.6343 -0.4312 -0.6773
  173SAPI    H419550   0.427   2.281  11.029  0.2312  0.4290 -0.8045
  173SAPI    O419551   0.616   2.242  10.947  0.0552 -0.2417  0.0756
  173SAPI   HO419552   0.653   2.193  10.874  0.8367 -0.2964  0.4989
  173SAPI   C1519553   0.400   2.280  10.824  1.0232 -0.4565  0.2370
  173SAPI    H519554   0.434   2.223  10.735 -1.0089 -3.7901  1.3793
  173SAPI    O519555   0.431   2.422  10.802 -0.0773 -0.0048 -0.0864
  173SAPI   HO519556   0.466   2.443  10.716  0.4626  0.0024  0.1341
  173SAPI   C1619557   0.239   2.255  10.836  0.1458 -0.2470  1.4127
  173SAPI    H619558   0.197   2.314  10.920 -1.8345  1.9537 -0.9211
  173SAPI    O619559   0.172   2.293  10.718  0.3592  0.1628  0.4345
  173SAPI   HO619560   0.090   2.244  10.724  0.9056 -0.8479 -0.1204
  173SAPI   C1119561   0.216   2.107  10.849  0.4610  0.0483 -0.5442
  173SAPI    H119562   0.252   2.060  10.754 -1.0976 -3.1489  0.2848
  173SAPI     P19563   0.010   1.941  10.812 -0.4427 -0.1130  0.1532
  173SAPI   O1319564  -0.117   1.919  10.887 -0.3455 -0.0064 -0.2817
  173SAPI   O1419565   0.112   1.831  10.814  0.3427 -0.3297  0.4600
  173SAPI   O1219566   0.076   2.077  10.874  0.6651 -0.0565  0.2254
  173SAPI   O1119567  -0.020   1.983  10.663 -0.4330  0.0678 -0.7616
  173SAPI    C119568   0.015   1.899  10.549 -0.5890  0.3056  0.4362
  173SAPI    HA19569   0.059   1.798  10.561 -1.5436 -0.2975 -0.8707
  173SAPI    HB19570  -0.071   1.887  10.480 -0.4755 -2.4427  0.6493
  173SAPI    C219571   0.136   1.952  10.460 -0.0593 -0.0898  0.3788
  173SAPI    HS19572   0.230   1.927  10.513 -0.5785 -0.1216  1.2905
  173SAPI   O2119573   0.113   2.092  10.439 -0.0977  0.0368 -0.2033
  173SAPI   C2119574   0.223   2.155  10.422  0.1207 -0.7100 -0.8513
  173SAPI   O2219575   0.338   2.117  10.431  0.1446 -0.5215 -0.1109
  173SAPI   C2219576   0.195   2.298  10.396  0.4810  0.2582 -0.2784
  173SAPI   H2R19577   0.115   2.337  10.461  1.7035 -1.5491  2.4932
  173SAPI   H2S19578   0.287   2.347  10.435  0.4475  1.0482 -1.1430
  173SAPI    C319579   0.151   1.881  10.321 -0.6172 -0.3920  0.4135
  173SAPI    HX19580   0.056   1.905  10.269 -0.9477 -2.3276  0.0212
  173SAPI    HY19581   0.151   1.771  10.341  0.4765 -0.6786 -0.9765
  173SAPI   O3119582   0.262   1.918  10.238  0.4043  0.5094  0.3280
  173SAPI   C3119583   0.379   1.850  10.255  0.0528  0.4280 -0.2467
  173SAPI   O3219584   0.403   1.773  10.344 -0.2552  0.5419  0.3472
  173SAPI   C3219585   0.466   1.902  10.144 -0.2628 -0.0515  0.3889
  173SAPI   H2X19586   0.537   1.972  10.193 -1.9585  0.5644  2.0906
  173SAPI   H2Y19587   0.415   1.965  10.067 -1.5797  0.2150  1.4493
  173SAPI   C2319588   0.155   2.344  10.254  0.2632 -0.0751 -0.0850
  173SAPI   H3R19589   0.198   2.271  10.183  2.1066  1.3899 -0.5546
  173SAPI   H3S19590   0.195   2.444  10.226 -3.3015  1.5614  0.1897
  173SAPI   C2419591  -0.004   2.354  10.237 -0.1617  0.3420  0.3367
  173SAPI   H4R19592  -0.044   2.433  10.304 -0.4183 -1.5313  2.5134
  173SAPI   H4S19593  -0.063   2.270  10.280  0.0643  0.2311  0.4343
  173SAPI   C2519594  -0.036   2.385  10.097 -0.4593  0.1104  0.3651
  173SAPI   H5R19595  -0.098   2.472  10.069  0.3373  0.7255  0.4518
  173SAPI   C2619596  -0.010   2.303   9.988 -0.2046 -0.3767 -0.1301
  173SAPI   H6R19597  -0.038   2.336   9.886 -0.7058  1.6790  0.6250
  173SAPI   C2719598   0.039   2.161   9.996 -0.2899 -0.2439 -0.0169
  173SAPI   H7R19599  -0.030   2.089   9.946  0.1062  1.2669 -2.9712
  173SAPI   H7S19600   0.040   2.122  10.100  0.5146  0.8346  0.3958
  173SAPI   C2819601   0.174   2.133   9.950  0.7106 -0.5312  0.9340
  173SAPI   H8R19602   0.243   2.174  10.025  0.3915  1.3065  0.2641
  173SAPI   C2919603   0.210   2.091   9.827 -0.5359 -0.0399 -0.1721
  173SAPI   H9R19604   0.316   2.070   9.810 -0.3253  0.9296 -0.1462
  173SAPI  C21019605   0.126   2.056   9.710  0.6763 -0.9265 -1.0153
  173SAPI  H10R19606   0.018   2.050   9.737  1.2700 -1.0517  1.6024
  173SAPI  H10S19607   0.145   1.947   9.694 -0.6261 -1.5913  1.5021
  173SAPI  C21119608   0.139   2.136   9.583  0.4381 -0.1466 -0.3664
  173SAPI  H11R19609   0.205   2.224   9.589  1.2051 -0.7362 -0.0287
  173SAPI  C21219610   0.075   2.110   9.469 -0.2380  0.4459  0.0017
  173SAPI  H12R19611   0.103   2.180   9.389 -0.2617 -1.1254 -1.4423
  173SAPI  C21319612  -0.030   2.012   9.424  0.5562 -0.1852 -0.0315
  173SAPI  H13R19613  -0.126   2.055   9.459  1.4252 -0.1061  2.3882
  173SAPI  H13S19614  -0.028   1.919   9.484 -1.4841  0.1445  0.6123
  173SAPI  C21419615  -0.009   1.970   9.283  0.3226 -0.1302  0.4246
  173SAPI  H14R19616   0.083   1.924   9.243 -0.4584 -0.8903 -0.5406
  173SAPI  C21519617  -0.104   1.988   9.191  0.0877 -0.2839 -0.1621
  173SAPI  H15R19618  -0.081   1.960   9.087 -0.7150  1.2296 -0.7971
  173SAPI  C21619619  -0.240   2.048   9.201  0.1618 -0.0643 -0.0163
  173SAPI  H16R19620  -0.258   2.070   9.308  2.4228 -0.9203  0.5997
  173SAPI  H16S19621  -0.319   1.978   9.167 -0.5528  0.5652  0.3252
  173SAPI  C21719622  -0.268   2.187   9.139 -0.5038 -0.9673 -0.3823
  173SAPI  H17R19623  -0.184   2.253   9.170 -1.8751  1.6189 -1.7767
  173SAPI  H17S19624  -0.368   2.226   9.168 -0.0060  0.2888 -0.2691
  173SAPI  C21819625  -0.253   2.195   8.988  0.1110 -0.4041  0.3798
  173SAPI  H18R19626  -0.316   2.115   8.942  1.1257 -0.3448 -1.1824
  173SAPI  H18S19627  -0.149   2.170   8.958 -0.2367 -1.2490 -0.1450
  173SAPI  C21919628  -0.284   2.338   8.934  0.1921  0.0759  0.1384
  173SAPI  H19R19629  -0.390   2.357   8.960  0.4361  0.0260  1.2000
  173SAPI  H19S19630  -0.276   2.346   8.823  3.6666 -1.1380  0.1827
  173SAPI  C22019631  -0.197   2.457   8.989 -0.0526  0.6573  0.4835
  173SAPI  H20R19632  -0.092   2.432   8.964 -0.7510 -3.4582  1.0344
  173SAPI  H20S19633  -0.216   2.469   9.098  2.2124  0.8770  0.8989
  173SAPI  H20T19634  -0.229   2.551   8.940  0.9375  1.6279  1.6301
  173SAPI   C3319635   0.554   1.791  10.087  1.2317  0.2372 -0.2267
  173SAPI   H3X19636   0.492   1.723  10.025 -0.4001  0.9459  0.5756
  173SAPI   H3Y19637   0.588   1.740  10.180  0.2217  1.2999  0.7611
  173SAPI   C3419638   0.667   1.854  10.005  0.6518 -0.2690  0.1848
  173SAPI   H4X19639   0.735   1.773   9.972  0.1389 -0.9639  0.8110
  173SAPI   H4Y19640   0.739   1.920  10.058  2.8422 -2.1337 -0.3062
  173SAPI   C3519641   0.620   1.921   9.873 -0.2388 -0.2666 -0.6507
  173SAPI   H5X19642   0.709   1.964   9.821 -0.1932  1.2627  0.6107
  173SAPI   H5Y19643   0.557   2.009   9.897  1.1940  0.4891  0.5549
  173SAPI   C3619644   0.551   1.826   9.774  0.1814 -0.2106  0.1388
  173SAPI   H6X19645   0.448   1.808   9.810 -0.9619  0.8646 -2.3944
  173SAPI   H6Y19646   0.608   1.731   9.773  1.7889  0.6807  0.9135
  173SAPI   C3719647   0.536   1.894   9.645 -0.2947  0.3139  0.4497
  173SAPI   H7X19648   0.614   1.971   9.626  0.5166 -1.0238 -2.2363
  173SAPI   H7Y19649   0.436   1.940   9.629  0.6326  2.8965  1.5962
  173SAPI   C3819650   0.549   1.803   9.517  0.3101 -0.4970 -0.8867
  173SAPI   H8X19651   0.488   1.712   9.536 -0.2018 -0.5578 -2.6153
  173SAPI   H8Y19652   0.658   1.785   9.523  0.6290  1.6912  3.1307
  173SAPI   C3919653   0.501   1.866   9.389 -0.0377 -0.2830 -0.6396
  173SAPI   H9X19654   0.555   1.962   9.375 -1.2991  0.6701  0.7421
  173SAPI   H9Y19655   0.391   1.875   9.397  0.0715 -0.7526  2.4962
  173SAPI  C31019656   0.534   1.767   9.276  0.3185  0.7293  0.2774
  173SAPI  H10X19657   0.465   1.683   9.300  0.3628  0.3721 -0.7889
  173SAPI  H10Y19658   0.637   1.727   9.280 -0.5840 -1.7832  0.2477
  173SAPI  C31119659   0.488   1.807   9.136 -0.5420 -0.2153  0.3018
  173SAPI  H11X19660   0.399   1.873   9.132 -0.2601  0.1183 -0.6180
  173SAPI  H11Y19661   0.468   1.718   9.073 -2.2283  1.3617 -1.5183
  173SAPI  C31219662   0.588   1.897   9.059 -0.3248 -0.5387 -0.7339
  173SAPI  H12X19663   0.680   1.834   9.064  0.5126  0.7174  0.1892
  173SAPI  H12Y19664   0.607   1.989   9.118 -2.0988 -1.5275  1.5211
  173SAPI  C31319665   0.549   1.926   8.915 -1.5710 -0.2655  0.4726
  173SAPI  H13X19666   0.455   1.985   8.916 -2.4203 -1.5293 -1.1509
  173SAPI  H13Y19667   0.529   1.834   8.856 -0.8824  0.0203 -0.2201
  173SAPI  C31419668   0.660   2.009   8.842  0.1061 -0.1541 -0.5716
  173SAPI  H14X19669   0.764   1.973   8.854  1.2602  2.4893 -1.7023
  173SAPI  H14Y19670   0.660   2.112   8.885  1.2898 -0.4226  0.1119
  173SAPI  C31519671   0.630   2.019   8.689 -0.0897 -0.3410  0.0424
  173SAPI  H15X19672   0.523   2.026   8.661  0.4564  1.9408 -1.8043
  173SAPI  H15Y19673   0.663   1.925   8.640 -1.1135  0.4758 -2.3618
  173SAPI  C31619674   0.720   2.132   8.631 -0.1487  0.6871  0.4250
  173SAPI  H16X19675   0.824   2.108   8.662  0.6255 -0.6153 -2.7356
  173SAPI  H16Y19676   0.681   2.229   8.668  1.1496  1.1944  0.5449
  173SAPI  C31719677   0.727   2.144   8.479 -0.2065  0.4876 -0.3781
  173SAPI  H17X19678   0.800   2.064   8.455  0.0738  0.3165  1.0012
  173SAPI  H17Y19679   0.771   2.242   8.451 -2.1309  0.9760 -1.8922
  173SAPI  C31819680   0.593   2.129   8.402 -0.1542  0.5712 -0.0211
  173SAPI  H18X19681   0.618   2.137   8.294  1.0006 -0.0819  0.1814
  173SAPI  H18Y19682   0.517   2.203   8.436  1.0891  1.6664  0.4719
  173SAPI  H18Z19683   0.557   2.026   8.419  2.0447 -0.5722 -1.6970
  174SAPI   C1219684   1.249   2.331  10.892 -0.9194 -0.3242 -0.1761
  174SAPI    H219685   1.187   2.281  10.970 -0.7781 -1.4359 -0.7542
  174SAPI    O219686   1.175   2.440  10.841  0.7647  0.2835 -0.1750
  174SAPI   HO219687   1.155   2.509  10.904  0.2009  2.0526 -2.1745
  174SAPI   C1319688   1.383   2.378  10.948 -0.1305 -0.8490  0.0237
  174SAPI    H319689   1.435   2.290  10.993 -3.0300 -2.1245  1.1534
  174SAPI    O319690   1.361   2.464  11.057  0.2095  0.5276  0.1077
  174SAPI   HO319691   1.322   2.544  11.020 -0.0180  0.1512 -0.4784
  174SAPI   C1419692   1.476   2.441  10.843 -0.0109  0.8834  0.4932
  174SAPI    H419693   1.432   2.528  10.789  1.0440  0.2221 -1.5253
  174SAPI    O419694   1.604   2.490  10.899  0.0660  0.0512  0.5273
  174SAPI   HO419695   1.671   2.473  10.832  0.6348 -1.4214  1.4074
  174SAPI   C1519696   1.500   2.334  10.735 -0.7066 -0.7106  0.1304
  174SAPI    H519697   1.548   2.248  10.786  3.0630  1.5676  0.7448
  174SAPI    O519698   1.601   2.377  10.641  0.1751 -0.1317  0.0565
  174SAPI   HO519699   1.656   2.309  10.600  0.4636  0.7853 -1.1151
  174SAPI   C1619700   1.361   2.301  10.676  0.8132  0.3146  0.2351
  174SAPI    H619701   1.317   2.392  10.632  0.1334 -1.9306 -4.2804
  174SAPI    O619702   1.369   2.202  10.571  0.0738  0.4532  0.0211
  174SAPI   HO619703   1.303   2.137  10.594  1.1984 -1.9110 -2.7780
  174SAPI   C1119704   1.274   2.228  10.788 -0.1093  0.3255  0.3272
  174SAPI    H119705   1.335   2.146  10.833 -1.2086 -0.4837  0.3841
  174SAPI     P19706   1.105   2.011  10.780 -0.2663 -0.3414  0.5925
  174SAPI   O1319707   0.960   2.005  10.775 -0.3108  0.0452 -0.6113
  174SAPI   O1419708   1.181   1.965  10.900 -0.2472  0.1551 -0.3548
  174SAPI   O1219709   1.150   2.170  10.743 -0.6707  0.4983  0.5054
  174SAPI   O1119710   1.170   1.953  10.644  0.2897  0.5448 -0.2729
  174SAPI    C119711   1.123   2.017  10.520 -0.6435 -0.7111  0.8659
  174SAPI    HA19712   1.075   2.117  10.528 -1.6241 -1.0245 -0.6069
  174SAPI    HB19713   1.207   2.034  10.450 -0.6917  2.4282  1.4404
  174SAPI    C219714   1.018   1.926  10.449 -0.2511  0.0686  0.3274
  174SAPI    HS19715   0.929   1.928  10.516  0.5434  0.6647  1.3993
  174SAPI   O2119716   1.078   1.793  10.434 -0.2051 -0.3106 -0.1256
  174SAPI   C2119717   0.983   1.698  10.411 -0.1614  0.1197 -0.2881
  174SAPI   O2219718   0.864   1.710  10.391  0.1480  0.2884 -0.0096
  174SAPI   C2219719   1.050   1.566  10.426 -0.5493 -0.2880 -0.1816
  174SAPI   H2R19720   1.155   1.573  10.460 -0.2724  0.4798 -1.1350
  174SAPI   H2S19721   0.980   1.510  10.491 -1.9299  1.6296  0.0670
  174SAPI    C319722   0.974   1.983  10.310  0.0567  0.5459  0.1411
  174SAPI    HX19723   0.896   1.922  10.260  0.5338  0.1351 -0.1138
  174SAPI    HY19724   1.070   1.981  10.254  0.3658  0.2056  0.6810
  174SAPI   O3119725   0.927   2.121  10.308 -0.7484  0.5008 -0.2148
  174SAPI   C3119726   0.798   2.146  10.350 -0.6230  0.7019 -0.5890
  174SAPI   O3219727   0.715   2.059  10.377 -0.2121 -0.1486  0.4803
  174SAPI   C3219728   0.773   2.298  10.362  0.2942 -0.2232  0.1932
  174SAPI   H2X19729   0.845   2.344  10.291 -0.9479  3.2022  0.9650
  174SAPI   H2Y19730   0.800   2.322  10.467  1.1899 -0.5575  0.0510
  174SAPI   C2319731   1.056   1.500  10.283 -0.2820 -0.1289  0.3583
  174SAPI   H3R19732   0.955   1.511  10.239 -0.4268  0.4536  0.8212
  174SAPI   H3S19733   1.064   1.390  10.297 -2.5187 -0.9215 -3.3519
  174SAPI   C2419734   1.175   1.545  10.205  0.0438 -0.2814  0.2682
  174SAPI   H4R19735   1.255   1.514  10.276  2.3319  1.7620 -1.2423
  174SAPI   H4S19736   1.185   1.655  10.200  0.4985 -0.3662 -1.4059
  174SAPI   C2519737   1.203   1.479  10.075 -0.0795 -0.0504  0.3716
  174SAPI   H5R19738   1.221   1.370  10.068  0.3946 -0.0238  1.1193
  174SAPI   C2619739   1.182   1.540   9.953  0.8511  0.3171 -1.1204
  174SAPI   H6R19740   1.223   1.499   9.860 -0.7605  1.2018 -2.2715
  174SAPI   C2719741   1.139   1.680   9.925  0.8480  0.8883 -0.0256
  174SAPI   H7R19742   1.217   1.736   9.869  1.5454 -0.5169 -0.4904
  174SAPI   H7S19743   1.142   1.734  10.022  0.0963 -0.9786  1.0767
  174SAPI   C2819744   0.999   1.697   9.864 -0.6118  0.6304 -0.6012
  174SAPI   H8R19745   0.916   1.646   9.915 -1.0376  0.8933 -1.0181
  174SAPI   C2919746   0.977   1.755   9.742  0.3840 -0.5404  0.3637
  174SAPI   H9R19747   0.881   1.726   9.696  1.3054  0.1074 -2.1674
  174SAPI  C21019748   1.083   1.806   9.646 -0.3166 -0.1222  0.0472
  174SAPI  H10R19749   1.149   1.877   9.701  0.7101  1.0323 -2.5450
  174SAPI  H10S19750   1.040   1.861   9.559 -0.5576 -1.9619 -1.0324
  174SAPI  C21119751   1.149   1.680   9.590 -0.2727  0.1491  0.2896
  174SAPI  H11R19752   1.250   1.663   9.632 -0.5523 -1.7206  0.2977
  174SAPI  C21219753   1.106   1.597   9.492 -0.3362 -0.4417  0.1935
  174SAPI  H12R19754   1.169   1.511   9.461 -0.5861 -0.9998  1.1903
  174SAPI  C21319755   0.973   1.612   9.420 -0.6131  0.3874 -1.0233
  174SAPI  H13R19756   0.953   1.719   9.399 -0.7843  0.0079 -2.9147
  174SAPI  H13S19757   0.889   1.580   9.485 -0.8627  3.4390  0.3525
  174SAPI  C21419758   0.965   1.531   9.293 -0.9023 -1.0543  0.4014
  174SAPI  H14R19759   0.876   1.466   9.295 -1.7009  0.0155  0.2767
  174SAPI  C21519760   1.040   1.549   9.181  0.2475 -0.5373 -0.1857
  174SAPI  H15R19761   1.026   1.484   9.093  1.4558 -1.7935  0.5121
  174SAPI  C21619762   1.154   1.647   9.167  0.2618  0.0138  0.1873
  174SAPI  H16R19763   1.246   1.584   9.172  0.2713 -0.2665 -2.2260
  174SAPI  H16S19764   1.168   1.707   9.259 -3.6592  0.8923  0.3441
  174SAPI  C21719765   1.155   1.728   9.036 -0.6547  0.3824  0.7138
  174SAPI  H17R19766   1.125   1.662   8.952  2.4268 -2.5348  1.6410
  174SAPI  H17S19767   1.262   1.742   9.011 -1.2339 -0.6017 -2.8134
  174SAPI  C21819768   1.095   1.866   9.027  0.1493 -0.3242  0.1077
  174SAPI  H18R19769   1.147   1.925   9.106  1.5358  0.5271 -1.3779
  174SAPI  H18S19770   0.986   1.858   9.049  0.0349 -0.4842 -0.4994
  174SAPI  C21919771   1.118   1.936   8.888  0.2598  0.2286  0.1081
  174SAPI  H19R19772   1.065   1.874   8.813  0.2597  0.6916 -0.2850
  174SAPI  H19S19773   1.226   1.921   8.866 -0.1600 -0.3434 -1.7420
  174SAPI  C22019774   1.074   2.082   8.883 -0.0371  0.3290  0.0576
  174SAPI  H20R19775   1.120   2.146   8.961 -1.2597  2.5457 -0.9349
  174SAPI  H20S19776   0.964   2.092   8.892  0.1152  1.7065  0.5674
  174SAPI  H20T19777   1.084   2.131   8.784 -0.1307  0.2278 -0.0013
  174SAPI   C3319778   0.632   2.346  10.328  0.0677 -0.2944  0.0976
  174SAPI   H3X19779   0.634   2.457  10.329 -2.3373 -0.0363 -3.3395
  174SAPI   H3Y19780   0.561   2.300  10.400  1.2654 -2.1685  0.1388
  174SAPI   C3419781   0.593   2.314  10.183  0.3817  0.2374  0.7612
  174SAPI   H4X19782   0.484   2.330  10.170  0.5652  2.1930  1.3651
  174SAPI   H4Y19783   0.616   2.208  10.156  3.2408  1.6094 -3.1571
  174SAPI   C3519784   0.659   2.398  10.078 -0.4581  0.7711 -0.0044
  174SAPI   H5X19785   0.768   2.413  10.098 -0.3553 -0.5444  0.5500
  174SAPI   H5Y19786   0.619   2.501  10.068 -2.1822  0.0344 -1.1025
  174SAPI   C3619787   0.637   2.344   9.936  0.7780  0.3928  0.0339
  174SAPI   H6X19788   0.531   2.349   9.903  0.9870  0.8948 -0.5906
  174SAPI   H6Y19789   0.660   2.236   9.933  1.3924  0.5438 -1.1874
  174SAPI   C3719790   0.720   2.413   9.824  0.1353  0.6928 -0.6463
  174SAPI   H7X19791   0.826   2.403   9.855  0.0412 -0.0621 -0.5553
  174SAPI   H7Y19792   0.687   2.519   9.818 -1.1523  0.3649  0.2380
  174SAPI   C3819793   0.701   2.338   9.687 -0.5122  0.3208 -0.1534
  174SAPI   H8X19794   0.727   2.230   9.684 -0.2861  0.3853 -0.5275
  174SAPI   H8Y19795   0.772   2.383   9.616 -1.0420 -2.7644 -2.8811
  174SAPI   C3919796   0.566   2.359   9.613 -0.9883  0.2141  0.3685
  174SAPI   H9X19797   0.555   2.470   9.615  0.6386  0.4146  2.7278
  174SAPI   H9Y19798   0.482   2.311   9.668 -3.0794  0.9678 -1.9770
  174SAPI  C31019799   0.558   2.300   9.465  0.7381 -0.4628  0.1759
  174SAPI  H10X19800   0.541   2.191   9.468 -1.6616 -0.1112  2.6733
  174SAPI  H10Y19801   0.659   2.312   9.420  1.4494 -2.1364  1.2674
  174SAPI  C31119802   0.446   2.361   9.385 -0.1845  0.7364  0.2908
  174SAPI  H11X19803   0.487   2.455   9.341 -2.0702  0.9511 -1.1205
  174SAPI  H11Y19804   0.349   2.373   9.437 -1.4959 -1.4315 -1.4833
  174SAPI  C31219805   0.409   2.255   9.278  0.2032  0.4025  0.6368
  174SAPI  H12X19806   0.354   2.170   9.324 -1.4611  2.2289  2.2023
  174SAPI  H12Y19807   0.499   2.216   9.226  0.8589 -0.4488  2.3543
  174SAPI  C31319808   0.329   2.315   9.157  0.6369  0.0590 -0.1555
  174SAPI  H13X19809   0.377   2.411   9.129  0.7325  0.2339  0.5910
  174SAPI  H13Y19810   0.232   2.349   9.200 -0.4661  0.0056 -2.4439
  174SAPI  C31419811   0.313   2.213   9.044 -0.3013 -0.0817  0.0412
  174SAPI  H14X19812   0.286   2.112   9.082 -1.5492  0.1873 -0.0586
  174SAPI  H14Y19813   0.415   2.210   9.002 -0.7515  0.6664 -1.1731
  174SAPI  C31519814   0.203   2.252   8.948 -0.0345  0.0586  0.6251
  174SAPI  H15X19815   0.197   2.360   8.922 -1.5691  0.1023  1.0670
  174SAPI  H15Y19816   0.105   2.222   8.992  0.5923 -1.8245  0.8107
  174SAPI  C31619817   0.225   2.182   8.811 -0.1216 -0.4356 -0.2908
  174SAPI  H16X19818   0.243   2.074   8.827  1.0861 -0.3267 -0.7708
  174SAPI  H16Y19819   0.320   2.223   8.769 -0.6394 -0.6472 -1.6984
  174SAPI  C31719820   0.111   2.211   8.701  0.0975  0.3004  0.5862
  174SAPI  H17X19821   0.015   2.189   8.751 -1.1180  1.8101 -0.9690
  174SAPI  H17Y19822   0.127   2.136   8.620  1.8193  1.4580 -0.2063
  174SAPI  C31819823   0.108   2.352   8.645 -0.0572  0.6101  0.4846
  174SAPI  H18X19824   0.189   2.362   8.569  0.1219  2.1784  0.8532
  174SAPI  H18Y19825   0.112   2.429   8.725 -0.1287  0.6305  0.4697
  174SAPI  H18Z19826   0.013   2.365   8.588  0.0649  1.6587  0.4972
  175SAPI   C1219827   0.975   4.355   6.415  0.1081  0.3866 -0.7015
  175SAPI    H219828   0.991   4.326   6.521 -0.3642 -1.8168 -1.1976
  175SAPI    O219829   1.058   4.465   6.386 -0.1055  0.0307  0.0435
  175SAPI   HO219830   1.113   4.502   6.455  0.3805 -0.5584 -0.0245
  175SAPI   C1319831   1.014   4.230   6.344 -0.2550  0.2277 -0.0447
  175SAPI    H319832   0.934   4.154   6.355 -0.4116  0.6082  1.5916
  175SAPI    O319833   1.138   4.166   6.389 -0.3602 -0.0718  0.3352
  175SAPI   HO319834   1.205   4.234   6.384 -2.1229  1.7002 -0.3429
  175SAPI   C1419835   1.013   4.267   6.193  0.5429 -0.8281 -0.5688
  175SAPI    H419836   1.083   4.352   6.177  0.1180 -0.1926  0.8137
  175SAPI    O419837   1.058   4.151   6.118  0.0491 -0.8501 -0.3374
  175SAPI   HO419838   1.137   4.120   6.161 -0.1549  1.1419  1.6477
  175SAPI   C1519839   0.876   4.313   6.147 -0.3530 -0.9796 -0.2700
  175SAPI    H519840   0.815   4.222   6.162 -0.3984 -1.6887 -3.9144
  175SAPI    O519841   0.876   4.334   6.000  0.6869  0.4857  0.5365
  175SAPI   HO519842   0.931   4.412   5.987 -0.1754  0.7570 -2.1435
  175SAPI   C1619843   0.824   4.430   6.224 -0.0405 -0.1074 -0.7464
  175SAPI    H619844   0.884   4.520   6.197  2.4743 -0.4721  2.9460
  175SAPI    O619845   0.691   4.447   6.192  0.0313  0.3453  0.3649
  175SAPI   HO619846   0.675   4.503   6.116 -0.6704 -0.2611  0.0505
  175SAPI   C1119847   0.829   4.393   6.375  0.0565 -0.7800 -0.3278
  175SAPI    H119848   0.763   4.305   6.389  2.6176 -2.5840  1.1178
  175SAPI     P19849   0.759   4.488   6.621 -0.2550 -0.1203 -0.1305
  175SAPI   O1319850   0.783   4.349   6.659  0.1846 -0.1925 -0.1643
  175SAPI   O1419851   0.633   4.554   6.657  0.4463  0.5921 -0.3769
  175SAPI   O1219852   0.786   4.501   6.454 -0.4555  0.0821 -0.2447
  175SAPI   O1119853   0.876   4.572   6.678  0.0246  0.2629 -0.0085
  175SAPI    C119854   0.887   4.594   6.823  0.3408  0.4856 -0.2772
  175SAPI    HA19855   0.840   4.687   6.859 -0.4491  0.2552 -0.6878
  175SAPI    HB19856   0.851   4.505   6.879  0.2184 -0.5516 -1.9279
  175SAPI    C219857   1.034   4.586   6.866  0.4182  0.2544 -0.2678
  175SAPI    HS19858   1.075   4.484   6.852  1.3377  0.6731 -0.7632
  175SAPI   O2119859   1.040   4.623   7.008  0.9143  0.9751 -0.3348
  175SAPI   C2119860   1.111   4.540   7.089  0.3863 -0.1057  0.4811
  175SAPI   O2219861   1.161   4.437   7.058  0.4723 -0.2063  0.1307
  175SAPI   C2219862   1.090   4.581   7.228  0.4221  0.2094  0.0371
  175SAPI   H2R19863   1.101   4.691   7.238  2.3011  0.2530 -1.7713
  175SAPI   H2S19864   0.982   4.564   7.248  0.1860  1.5472  0.0040
  175SAPI    C319865   1.116   4.681   6.770  0.0281 -0.1773 -0.0827
  175SAPI    HX19866   1.055   4.774   6.768  0.6780  0.2742  0.7550
  175SAPI    HY19867   1.116   4.647   6.664 -2.4682  1.8945 -0.8632
  175SAPI   O3119868   1.244   4.723   6.818 -0.0157  0.4852  0.2510
  175SAPI   C3119869   1.303   4.824   6.754 -0.0872 -0.6679  0.3865
  175SAPI   O3219870   1.248   4.893   6.671 -0.2148 -0.2245  0.3744
  175SAPI   C3219871   1.459   4.846   6.801  0.3011  0.5210  0.5919
  175SAPI   H2X19872   1.457   4.957   6.809 -2.3291  0.6708 -0.7808
  175SAPI   H2Y19873   1.524   4.810   6.719 -1.4215 -0.4548 -0.3935
  175SAPI   C2319874   1.170   4.500   7.329 -0.2943 -0.1052  0.0436
  175SAPI   H3R19875   1.272   4.544   7.334 -0.3763 -0.0372  2.8379
  175SAPI   H3S19876   1.188   4.398   7.288  1.5201 -0.4684  1.6084
  175SAPI   C2419877   1.092   4.477   7.459 -0.0055  0.1532  0.3021
  175SAPI   H4R19878   1.008   4.408   7.434 -0.1158  1.1611 -2.4735
  175SAPI   H4S19879   1.047   4.574   7.488 -2.3121 -0.7205 -0.0936
  175SAPI   C2519880   1.177   4.435   7.575  0.2750  0.3883 -0.1666
  175SAPI   H5R19881   1.280   4.472   7.578  0.6260 -0.6071  0.9157
  175SAPI   C2619882   1.137   4.370   7.682  0.0161 -0.3196  0.3931
  175SAPI   H6R19883   1.216   4.346   7.754  1.4475  1.0098 -0.6662
  175SAPI   C2719884   1.003   4.314   7.717 -0.1651  0.6866  0.0448
  175SAPI   H7R19885   0.986   4.235   7.641  1.7156  0.8607 -0.6183
  175SAPI   H7S19886   0.926   4.393   7.701  0.4544  1.2137 -0.3965
  175SAPI   C2819887   0.991   4.247   7.849  0.1232 -0.1726 -0.6337
  175SAPI   H8R19888   1.055   4.158   7.862  0.1095 -0.6336 -3.2594
  175SAPI   C2919889   0.926   4.297   7.959 -0.2677  0.2852 -0.5441
  175SAPI   H9R19890   0.918   4.230   8.046 -0.1741  0.1451 -0.6432
  175SAPI  C21019891   0.849   4.424   7.970 -0.1912 -0.3141  0.0947
  175SAPI  H10R19892   0.894   4.497   7.900 -0.1624  0.4546  0.9048
  175SAPI  H10S19893   0.873   4.472   8.067 -0.3283  2.0031 -0.9524
  175SAPI  C21119894   0.690   4.415   7.941 -0.3224  0.1995 -0.8297
  175SAPI  H11R19895   0.665   4.436   7.836 -1.2921  1.2374 -0.4047
  175SAPI  C21219896   0.597   4.367   8.028 -0.0346 -0.5787  0.0892
  175SAPI  H12R19897   0.492   4.375   7.995  0.3622 -0.4443 -1.2060
  175SAPI  C21319898   0.627   4.322   8.168 -0.0946 -0.4430 -0.0715
  175SAPI  H13R19899   0.729   4.351   8.198  0.8996 -1.5421 -2.1453
  175SAPI  H13S19900   0.614   4.212   8.176  1.1600 -0.5555  0.5765
  175SAPI  C21419901   0.531   4.380   8.266 -0.2418  0.1253 -0.5065
  175SAPI  H14R19902   0.447   4.435   8.222 -0.2195 -1.2118 -2.3654
  175SAPI  C21519903   0.535   4.351   8.399 -0.0068  0.2829  0.4299
  175SAPI  H15R19904   0.457   4.393   8.464  0.3962  2.8309 -0.6166
  175SAPI  C21619905   0.643   4.273   8.468 -0.2507 -0.5342  0.7202
  175SAPI  H16R19906   0.686   4.318   8.560 -1.0185  1.7572  0.0130
  175SAPI  H16S19907   0.732   4.248   8.407  0.0500 -2.5369  1.8517
  175SAPI  C21719908   0.580   4.130   8.486  0.3175 -0.1369  0.2241
  175SAPI  H17R19909   0.668   4.067   8.511  0.2148 -0.4299 -0.1479
  175SAPI  H17S19910   0.535   4.088   8.394  0.8574  1.4340 -0.7996
  175SAPI  C21819911   0.479   4.122   8.603 -0.4636 -0.3206 -0.0948
  175SAPI  H18R19912   0.419   4.214   8.618  1.3421  1.1609 -1.3853
  175SAPI  H18S19913   0.543   4.114   8.694  1.2863 -0.6360 -1.3098
  175SAPI  C21919914   0.385   4.000   8.595  0.5771 -0.1912 -0.6903
  175SAPI  H19R19915   0.443   3.905   8.600 -0.6025 -1.0333 -2.2344
  175SAPI  H19S19916   0.337   4.005   8.495 -1.1972 -1.0628  0.0873
  175SAPI  C22019917   0.275   3.997   8.698  0.2198 -0.2575 -1.0558
  175SAPI  H20R19918   0.220   4.093   8.692  0.9740  0.2998  0.4633
  175SAPI  H20S19919   0.323   3.988   8.798  1.0386 -1.3211 -1.5203
  175SAPI  H20T19920   0.209   3.908   8.688 -0.7449 -0.1889  3.0443
  175SAPI   C3319921   1.520   4.790   6.932  0.3865 -0.0799 -0.3148
  175SAPI   H3X19922   1.624   4.823   6.950  0.4342 -0.0600 -0.6285
  175SAPI   H3Y19923   1.521   4.679   6.924  1.4174 -0.1434  0.5488
  175SAPI   C3419924   1.436   4.837   7.051 -0.1817 -0.0572  0.6443
  175SAPI   H4X19925   1.340   4.783   7.041 -0.6467  0.7933  0.3565
  175SAPI   H4Y19926   1.422   4.947   7.057  1.1590  0.5234 -3.6011
  175SAPI   C3519927   1.500   4.782   7.175  0.2806 -0.3599 -0.1145
  175SAPI   H5X19928   1.601   4.828   7.189 -0.3605  1.2638 -0.6152
  175SAPI   H5Y19929   1.520   4.674   7.163 -0.0224 -0.4071 -0.1982
  175SAPI   C3619930   1.424   4.806   7.304  0.3931  0.3302 -0.5070
  175SAPI   H6X19931   1.318   4.775   7.291 -0.3387  1.9162  1.3305
  175SAPI   H6Y19932   1.421   4.916   7.320 -0.0135  0.2438  0.0025
  175SAPI   C3719933   1.485   4.721   7.419 -0.2401  0.1325 -0.1748
  175SAPI   H7X19934   1.595   4.729   7.407 -0.0523 -2.3940 -0.6700
  175SAPI   H7Y19935   1.465   4.614   7.399 -2.6373  0.2062  1.4885
  175SAPI   C3819936   1.439   4.739   7.566 -0.1262  0.2241 -0.0130
  175SAPI   H8X19937   1.330   4.718   7.565  0.1311 -1.1664 -0.9636
  175SAPI   H8Y19938   1.452   4.843   7.604 -1.1000 -0.3286  1.9602
  175SAPI   C3919939   1.506   4.634   7.665 -0.0084 -0.5970  0.3009
  175SAPI   H9X19940   1.616   4.651   7.666 -0.1876  1.9184 -3.0858
  175SAPI   H9Y19941   1.496   4.531   7.626 -0.9863 -0.1524 -0.6891
  175SAPI  C31019942   1.440   4.644   7.799  0.0703  0.9544  0.1752
  175SAPI  H10X19943   1.478   4.558   7.857 -2.6431 -0.9642 -0.7237
  175SAPI  H10Y19944   1.333   4.628   7.774  0.6879 -1.1682 -1.4112
  175SAPI  C31119945   1.479   4.770   7.879 -0.2158 -0.1542 -0.2154
  175SAPI  H11X19946   1.451   4.855   7.815 -0.5269 -1.5199 -1.9736
  175SAPI  H11Y19947   1.589   4.771   7.896 -0.1235  0.9072 -0.8023
  175SAPI  C31219948   1.406   4.785   8.017 -0.0694  0.5491 -0.3106
  175SAPI  H12X19949   1.439   4.880   8.062  0.1264 -0.3557  1.5369
  175SAPI  H12Y19950   1.445   4.703   8.082  2.2097 -0.0445 -2.2564
  175SAPI  C31319951   1.258   4.797   8.006  0.2676 -1.1414 -0.0400
  175SAPI  H13X19952   1.206   4.708   7.964 -3.0597  0.5331  0.2201
  175SAPI  H13Y19953   1.253   4.883   7.937  3.0884 -0.1260  0.8645
  175SAPI  C31419954   1.193   4.830   8.138 -0.3210  0.8348 -0.0708
  175SAPI  H14X19955   1.084   4.850   8.136 -1.2266 -3.1375  0.9447
  175SAPI  H14Y19956   1.241   4.925   8.171 -1.8548  1.1218  1.4412
  175SAPI  C31519957   1.211   4.722   8.245  0.5027  0.2955  0.3458
  175SAPI  H15X19958   1.160   4.767   8.333 -0.1522 -1.3730  0.8510
  175SAPI  H15Y19959   1.318   4.714   8.273  1.6422  1.3028 -3.1247
  175SAPI  C31619960   1.130   4.596   8.209 -0.2867 -0.2819 -0.3334
  175SAPI  H16X19961   1.160   4.546   8.115 -0.1918 -1.3826  0.2586
  175SAPI  H16Y19962   1.022   4.621   8.207 -0.4761 -1.1150 -0.7700
  175SAPI  C31719963   1.142   4.486   8.321 -0.1969 -0.9394  0.4671
  175SAPI  H17X19964   1.118   4.540   8.415 -1.5164  1.3427 -1.0951
  175SAPI  H17Y19965   1.246   4.447   8.320  0.5332  0.8922 -0.8662
  175SAPI  C31819966   1.061   4.366   8.303  0.1862 -0.5696  0.1958
  175SAPI  H18X19967   1.082   4.310   8.209 -0.0989 -2.6318  1.2947
  175SAPI  H18Y19968   0.953   4.393   8.308 -0.0496 -1.4501  0.1393
  175SAPI  H18Z19969   1.076   4.284   8.377  0.0559 -0.8698 -0.1086
  176SAPI   C1219970   0.433   4.017   6.216 -0.0059  0.3722  0.9297
  176SAPI    H219971   0.455   3.927   6.278 -0.9677  0.9076  2.0838
  176SAPI    O219972   0.541   4.108   6.239 -0.0600  0.4465  0.0562
  176SAPI   HO219973   0.595   4.072   6.309  0.6314 -1.6009 -1.4416
  176SAPI   C1319974   0.430   3.983   6.070  0.5193 -0.1904  0.5027
  176SAPI    H319975   0.342   3.915   6.063 -0.0726  0.3565  2.2613
  176SAPI    O319976   0.541   3.905   6.030 -0.7420  0.3398 -0.5340
  176SAPI   HO319977   0.622   3.953   6.049 -0.5078 -0.7007  1.2802
  176SAPI   C1419978   0.415   4.108   5.987  0.2008 -0.5569  1.0919
  176SAPI    H419979   0.501   4.174   6.009  0.5639 -0.1281 -1.3143
  176SAPI    O419980   0.428   4.085   5.841 -0.2026 -0.3698 -0.1154
  176SAPI   HO419981   0.344   4.101   5.798 -0.0807 -0.2769 -0.3210
  176SAPI   C1519982   0.279   4.180   6.015 -0.2505 -0.3328 -0.3459
  176SAPI    H519983   0.194   4.111   5.997 -1.0305  0.5786 -0.2212
  176SAPI    O519984   0.259   4.295   5.938 -0.5730  0.3794 -0.8702
  176SAPI   HO519985   0.334   4.351   5.956 -2.4153  2.4033  1.1511
  176SAPI   C1619986   0.286   4.207   6.166 -0.1906  0.9311 -0.1280
  176SAPI    H619987   0.380   4.265   6.175  1.2531 -1.0113 -1.7829
  176SAPI    O619988   0.177   4.285   6.216  0.0227 -0.1939 -0.3964
  176SAPI   HO619989   0.199   4.326   6.300  0.4095  1.4298 -1.2470
  176SAPI   C1119990   0.304   4.073   6.254 -0.0112 -0.5221  0.2986
  176SAPI    H119991   0.220   4.008   6.222 -1.3416  1.3513 -0.2360
  176SAPI     P19992   0.277   3.999   6.516 -0.4272  0.0044 -0.6492
  176SAPI   O1319993   0.249   3.867   6.454  0.9198  0.1166  0.3280
  176SAPI   O1419994   0.176   4.058   6.610  0.1176  0.5391 -0.4239
  176SAPI   O1219995   0.300   4.111   6.395 -0.1640  0.4348 -0.3421
  176SAPI   O1119996   0.418   3.990   6.590  0.4829  0.0004  0.3001
  176SAPI    C119997   0.471   4.104   6.656  0.1985 -0.0448 -0.3213
  176SAPI    HA19998   0.564   4.138   6.604 -0.2940  2.4537  0.2844
  176SAPI    HB19999   0.404   4.193   6.652 -0.4107 -0.5547 -2.6945
  176SAPI    C220000   0.506   4.065   6.811 -0.3193  0.0048 -0.1897
  176SAPI    HS20001   0.571   3.975   6.816  0.8110  0.8561  2.7840
  176SAPI   O2120002   0.382   4.052   6.887 -0.1186 -0.1436  0.0721
  176SAPI   C2120003   0.340   3.927   6.881  0.2919 -0.3591 -0.3503
  176SAPI   O2220004   0.404   3.830   6.844  0.5724 -0.1380  0.3629
  176SAPI   C2220005   0.190   3.919   6.918 -0.4957 -0.2516 -0.2486
  176SAPI   H2R20006   0.162   4.021   6.950  1.2787 -0.4942  2.3783
  176SAPI   H2S20007   0.145   3.889   6.821 -0.4413 -0.9596 -0.0634
  176SAPI    C320008   0.600   4.177   6.871 -0.2606  0.3800 -0.3633
  176SAPI    HX20009   0.566   4.277   6.837  0.1755  0.7357  0.2225
  176SAPI    HY20010   0.701   4.152   6.831 -0.8236  0.7814 -2.1381
  176SAPI   O3120011   0.599   4.159   7.009 -0.8335  0.4127  0.5348
  176SAPI   C3120012   0.679   4.240   7.074  0.4875 -0.2485 -0.2515
  176SAPI   O3220013   0.747   4.330   7.032  0.9788 -0.2858  0.0752
  176SAPI   C3220014   0.668   4.205   7.222 -0.4587  0.7158  0.2508
  176SAPI   H2X20015   0.728   4.114   7.245  0.4406  0.8824 -1.3032
  176SAPI   H2Y20016   0.558   4.204   7.240 -0.5254  0.9590 -0.1367
  176SAPI   C2320017   0.163   3.815   7.030  0.2288 -0.0593 -0.1033
  176SAPI   H3R20018   0.202   3.713   7.009  1.1799 -0.1568  1.8969
  176SAPI   H3S20019   0.054   3.813   7.053  0.3628  1.0696  0.7233
  176SAPI   C2420020   0.235   3.845   7.168 -0.4482 -0.6776  0.1078
  176SAPI   H4R20021   0.345   3.845   7.153 -0.6195 -1.1661 -1.2707
  176SAPI   H4S20022   0.225   3.753   7.228 -2.0800 -1.5328 -1.3765
  176SAPI   C2520023   0.173   3.966   7.233  0.1095 -0.8553 -0.1613
  176SAPI   H5R20024   0.152   4.045   7.159  2.7360 -0.7589 -0.8883
  176SAPI   C2620025   0.141   3.966   7.365  0.3306 -0.9957  0.5946
  176SAPI   H6R20026   0.094   4.055   7.411 -0.0660 -2.6166  3.5464
  176SAPI   C2720027   0.166   3.860   7.465  0.1408  0.3516  0.2842
  176SAPI   H7R20028   0.175   3.758   7.421  1.0254  1.1192 -1.4191
  176SAPI   H7S20029   0.077   3.860   7.531  2.5649  0.5807  3.8335
  176SAPI   C2820030   0.287   3.893   7.560  0.5184  0.0917  0.0827
  176SAPI   H8R20031   0.380   3.852   7.517  0.6652 -1.0120  1.3715
  176SAPI   C2920032   0.278   3.963   7.675 -0.6076  0.1894  0.3111
  176SAPI   H9R20033   0.376   3.976   7.723  0.0744  0.1640 -1.0278
  176SAPI  C21020034   0.156   4.008   7.745  0.2719 -0.2992  0.7718
  176SAPI  H10R20035   0.088   4.039   7.663  0.1402 -2.0570  0.1725
  176SAPI  H10S20036   0.181   4.095   7.808  0.7665 -0.3638  0.6669
  176SAPI  C21120037   0.073   3.910   7.824 -0.5093 -0.6641  0.2898
  176SAPI  H11R20038   0.079   3.804   7.794 -1.1041 -0.4673 -0.5841
  176SAPI  C21220039  -0.016   3.933   7.920  0.5762 -0.8355 -0.0251
  176SAPI  H12R20040  -0.058   3.844   7.970  0.9479 -1.0403 -0.0752
  176SAPI  C21320041  -0.067   4.065   7.980  0.2956  0.7359  0.0547
  176SAPI  H13R20042   0.007   4.146   7.969  1.1685 -0.0106  0.3090
  176SAPI  H13S20043  -0.071   4.046   8.090  1.1985 -3.8788 -0.4919
  176SAPI  C21420044  -0.197   4.111   7.913  0.1067  0.0194  0.2015
  176SAPI  H14R20045  -0.174   4.133   7.808 -0.3918 -1.0761 -0.1613
  176SAPI  C21520046  -0.322   4.136   7.964 -0.0754 -0.4196 -0.0295
  176SAPI  H15R20047  -0.402   4.182   7.905 -0.8865  0.8490  1.9781
  176SAPI  C21620048  -0.355   4.102   8.109 -0.4149 -0.6529  0.1019
  176SAPI  H16R20049  -0.274   4.038   8.148 -0.5351 -0.4080  0.7660
  176SAPI  H16S20050  -0.446   4.039   8.121  0.1701 -1.7314 -0.9706
  176SAPI  C21720051  -0.368   4.232   8.192  0.3552 -0.6018 -0.4865
  176SAPI  H17R20052  -0.460   4.291   8.173 -0.9902 -2.9048 -1.5998
  176SAPI  H17S20053  -0.275   4.290   8.173  1.6123 -2.6915 -1.0537
  176SAPI  C21820054  -0.365   4.204   8.349 -0.1059  0.3902  0.6535
  176SAPI  H18R20055  -0.288   4.130   8.378  0.4385  0.7128  0.0485
  176SAPI  H18S20056  -0.466   4.166   8.375 -0.3320 -0.2985 -1.1473
  176SAPI  C21920057  -0.345   4.333   8.430  0.0839  0.6248  0.7916
  176SAPI  H19R20058  -0.422   4.408   8.401  2.6017  2.4200 -1.7500
  176SAPI  H19S20059  -0.248   4.378   8.401 -0.9834  1.3804 -1.9088
  176SAPI  C22020060  -0.352   4.306   8.581 -0.2256 -0.4427 -0.0812
  176SAPI  H20R20061  -0.452   4.273   8.614  0.5062 -1.8199  0.8768
  176SAPI  H20S20062  -0.323   4.404   8.624  1.4900 -0.6173 -0.7415
  176SAPI  H20T20063  -0.268   4.238   8.606  0.8242  0.7898 -0.1460
  176SAPI   C3320064   0.730   4.324   7.303  0.0497  0.1235 -0.0867
  176SAPI   H3X20065   0.676   4.414   7.267 -2.6195 -1.5000 -0.4298
  176SAPI   H3Y20066   0.830   4.342   7.258  0.1208 -0.9685 -0.3993
  176SAPI   C3420067   0.709   4.320   7.451  0.5226  0.0469 -0.3980
  176SAPI   H4X20068   0.604   4.358   7.458  0.6577  0.2248  0.7567
  176SAPI   H4Y20069   0.781   4.386   7.505 -0.0248  2.1434 -2.0725
  176SAPI   C3520070   0.704   4.182   7.512  0.1869 -0.5382 -0.1070
  176SAPI   H5X20071   0.806   4.142   7.493 -0.9407 -3.3414 -0.7312
  176SAPI   H5Y20072   0.632   4.117   7.457  0.9540 -0.2147 -1.5315
  176SAPI   C3620073   0.676   4.174   7.672 -0.3932 -0.2315 -0.5389
  176SAPI   H6X20074   0.576   4.221   7.675 -1.0455 -1.5762 -0.6601
  176SAPI   H6Y20075   0.743   4.247   7.724 -0.9776 -1.0556  1.4628
  176SAPI   C3720076   0.687   4.037   7.729 -0.0270 -0.7586  0.0181
  176SAPI   H7X20077   0.792   4.004   7.712 -0.3132 -0.9280 -1.5853
  176SAPI   H7Y20078   0.613   3.966   7.687 -0.7083 -0.6763  1.0441
  176SAPI   C3820079   0.663   4.029   7.879  0.0131 -0.0207  0.0317
  176SAPI   H8X20080   0.553   4.035   7.892  0.0481 -0.5662  0.6255
  176SAPI   H8Y20081   0.704   4.121   7.926 -1.5174  0.6494  0.1140
  176SAPI   C3920082   0.721   3.907   7.948 -0.4402  0.1609 -0.2379
  176SAPI   H9X20083   0.831   3.904   7.936 -0.5482  0.0900 -1.3506
  176SAPI   H9Y20084   0.673   3.821   7.896  1.9897 -1.6073  0.2653
  176SAPI  C31020085   0.674   3.871   8.091 -0.7955  0.3481  0.2252
  176SAPI  H10X20086   0.712   3.957   8.150 -1.9300  1.8680 -1.1784
  176SAPI  H10Y20087   0.711   3.776   8.135 -0.4668 -0.7829 -2.3122
  176SAPI  C31120088   0.532   3.882   8.120 -0.6897 -0.1637  0.1164
  176SAPI  H11X20089   0.493   3.984   8.100  0.2802 -0.0270 -1.1845
  176SAPI  H11Y20090   0.520   3.874   8.230  1.9269  0.1335  0.4819
  176SAPI  C31220091   0.424   3.784   8.052 -0.6195 -0.5653  0.0355
  176SAPI  H12X20092   0.491   3.706   8.010 -1.1180  0.2271 -2.3752
  176SAPI  H12Y20093   0.376   3.831   7.964 -0.2719 -0.7180 -0.2396
  176SAPI  C31320094   0.322   3.730   8.155  0.1057  0.0970  0.5890
  176SAPI  H13X20095   0.379   3.726   8.251  1.9747  1.1976 -0.4078
  176SAPI  H13Y20096   0.292   3.625   8.137 -0.4235  0.1489  1.1511
  176SAPI  C31420097   0.189   3.816   8.170  0.0925  0.2111 -0.3471
  176SAPI  H14X20098   0.130   3.807   8.076  0.6310 -0.9169 -0.5888
  176SAPI  H14Y20099   0.212   3.924   8.181  1.0286  0.1233 -1.3061
  176SAPI  C31520100   0.103   3.762   8.285  0.2355 -0.1639 -0.8609
  176SAPI  H15X20101   0.126   3.798   8.387 -2.0115 -0.5954 -0.1502
  176SAPI  H15Y20102   0.105   3.651   8.277  0.4211 -0.0621 -2.7568
  176SAPI  C31620103  -0.040   3.818   8.280  0.4830  0.3138  0.6076
  176SAPI  H16X20104  -0.092   3.744   8.215  0.8747 -0.3132  0.9940
  176SAPI  H16Y20105  -0.034   3.920   8.238 -0.0312 -0.3162 -1.0748
  176SAPI  C31720106  -0.109   3.836   8.411 -0.1747  0.0766 -0.0201
  176SAPI  H17X20107  -0.095   3.739   8.464 -1.0162 -0.4080 -0.6563
  176SAPI  H17Y20108  -0.218   3.858   8.401 -0.2613 -0.1733  0.3525
  176SAPI  C31820109  -0.046   3.948   8.501 -0.6919 -0.3428 -0.2232
  176SAPI  H18X20110   0.061   3.933   8.524 -0.3008  1.2485 -0.8448
  176SAPI  H18Y20111  -0.088   3.955   8.604  0.8562  2.2503  0.3228
  176SAPI  H18Z20112  -0.062   4.046   8.450  0.1852  0.9601  1.9062
  177SLPC     N20113   6.309   2.950  11.131 -0.1527 -0.2426 -0.3233
  177SLPC   C1320114   6.388   3.055  11.190  0.1504  0.3912  0.2819
  177SLPC  H13A20115   6.488   3.017  11.176 -0.3525 -0.0615 -2.7757
  177SLPC  H13B20116   6.372   3.149  11.140 -1.3561 -0.5060 -1.0111
  177SLPC  H13C20117   6.361   3.072  11.293  0.4690  1.0843  0.2564
  177SLPC   C1420118   6.171   3.011  11.093 -0.2203  0.2160  0.5503
  177SLPC  H14A20119   6.110   2.939  11.041 -0.8407 -0.1136  1.7008
  177SLPC  H14B20120   6.115   3.054  11.174 -1.0458  3.0459 -1.3589
  177SLPC  H14C20121   6.193   3.090  11.022 -0.9836  2.0855  2.3059
  177SLPC   C1520122   6.280   2.838  11.217  0.4384  0.6450 -0.3735
  177SLPC  H15A20123   6.360   2.780  11.261 -0.3423 -0.9169 -0.9402
  177SLPC  H15B20124   6.238   2.874  11.310 -0.1274 -1.9572  0.4596
  177SLPC  H15C20125   6.200   2.781  11.172  0.8630  0.0011 -0.3387
  177SLPC   C1220126   6.376   2.894  11.005  0.0102  0.5368  0.5998
  177SLPC  H12A20127   6.481   2.879  11.023  0.2912 -0.3875 -1.5583
  177SLPC  H12B20128   6.373   2.974  10.933 -1.6597  1.5748  1.7209
  177SLPC   C1120129   6.323   2.761  10.953  0.4156 -0.0719  0.2010
  177SLPC  H11A20130   6.330   2.679  11.027  2.7805 -1.4008 -1.3835
  177SLPC  H11B20131   6.403   2.733  10.881 -0.1754 -0.8966 -0.1528
  177SLPC     P20132   6.082   2.679  10.914  0.0559  0.3828 -0.5937
  177SLPC   O1320133   6.107   2.547  10.857 -0.7567  0.5471 -0.1925
  177SLPC   O1420134   6.060   2.688  11.062 -1.0001 -0.4942  0.2323
  177SLPC   O1220135   6.198   2.773  10.885 -0.3997  0.2351  0.2590
  177SLPC   O1120136   5.955   2.745  10.845  0.3917  0.6785  0.1858
  177SLPC    C120137   5.977   2.785  10.707 -0.3395 -0.2565  0.0369
  177SLPC    HA20138   6.028   2.715  10.638 -1.4196 -0.6687 -0.3594
  177SLPC    HB20139   5.878   2.800  10.661 -0.3379 -2.6851 -0.8757
  177SLPC    C220140   6.037   2.926  10.694  0.0302 -0.9613  0.3404
  177SLPC    HS20141   6.120   2.937  10.766 -0.5224  1.0366  0.7419
  177SLPC   O2120142   5.937   3.021  10.731  0.1350  0.2988  0.0763
  177SLPC   C2120143   5.985   3.131  10.784 -0.4967  0.4654  1.0596
  177SLPC   O2220144   6.105   3.163  10.805  0.1520  0.0511  0.3470
  177SLPC   C2220145   5.867   3.228  10.796  0.3774  0.9255  0.1364
  177SLPC   H2R20146   5.774   3.167  10.798  0.5582  0.6248 -0.3708
  177SLPC   H2S20147   5.870   3.270  10.899  1.8164 -1.3783  1.1055
  177SLPC    C320148   6.106   2.967  10.561 -0.0124  0.1136  0.4394
  177SLPC    HX20149   6.187   2.895  10.539  0.5341  1.3751 -1.9995
  177SLPC    HY20150   6.141   3.070  10.585  0.2309 -0.2374  1.6660
  177SLPC   O3120151   6.024   2.959  10.443 -0.0613  0.0861 -0.5957
  177SLPC   C3120152   6.052   3.048  10.356  0.6555 -0.3512  0.2859
  177SLPC   O3220153   6.131   3.137  10.367 -0.8671  0.2207  0.1141
  177SLPC   C3220154   5.962   3.031  10.238  0.9955  0.3525  0.2154
  177SLPC   H2X20155   5.877   3.102  10.239 -0.3383 -1.1989  0.1716
  177SLPC   H2Y20156   5.921   2.928  10.231  0.0708  0.6716  0.8169
  177SLPC   C2320157   5.848   3.345  10.696 -0.4929  0.7243 -0.2791
  177SLPC   H3R20158   5.941   3.405  10.692  0.6638 -1.0416 -2.6530
  177SLPC   H3S20159   5.760   3.404  10.728 -0.9096  0.1771 -0.4050
  177SLPC   C2420160   5.820   3.286  10.554  0.0470 -0.7671 -0.5901
  177SLPC   H4R20161   5.750   3.199  10.548 -2.0643  0.8694 -0.8559
  177SLPC   H4S20162   5.922   3.258  10.521  0.8226  2.3026 -1.0724
  177SLPC   C2520163   5.759   3.398  10.466 -0.1723  0.2851 -0.4266
  177SLPC   H5R20164   5.803   3.493  10.503  2.1400 -0.7106 -0.4324
  177SLPC   H5S20165   5.649   3.406  10.481 -0.3455  0.1883 -1.5720
  177SLPC   C2620166   5.796   3.381  10.313 -0.0276  0.5928  0.0302
  177SLPC   H6R20167   5.783   3.273  10.293  1.6289  0.6495 -1.5826
  177SLPC   H6S20168   5.903   3.410  10.310 -0.2183  1.5098  0.9847
  177SLPC   C2720169   5.710   3.453  10.204  0.3888  0.3098  0.3533
  177SLPC   H7R20170   5.712   3.564  10.202 -1.1684  0.4440  2.5334
  177SLPC   H7S20171   5.604   3.421  10.217  0.4885 -0.6023 -0.8946
  177SLPC   C2820172   5.750   3.422  10.059  0.5522  0.2546  0.0933
  177SLPC   H8R20173   5.660   3.438   9.996  2.6903  0.0951 -3.2644
  177SLPC   H8S20174   5.775   3.316  10.040 -0.0624  0.0652  0.3430
  177SLPC   C2920175   5.861   3.515  10.012  0.4297  0.5788  0.3318
  177SLPC   H9R20176   5.945   3.518  10.083 -0.6827 -4.3254  2.2597
  177SLPC  C21020177   5.863   3.586   9.900  0.6430  0.0415 -0.3423
  177SLPC  H10R20178   5.948   3.654   9.887  1.5664 -1.1514 -0.7962
  177SLPC  C21120179   5.755   3.588   9.791 -0.7420  0.0932  0.4294
  177SLPC  H11R20180   5.656   3.573   9.839 -0.5401 -2.2720  0.2140
  177SLPC  H11S20181   5.760   3.673   9.720 -0.0329 -0.3156 -0.0243
  177SLPC  C21220182   5.776   3.462   9.706 -0.8540  0.5791  0.2705
  177SLPC  H12R20183   5.792   3.364   9.754  1.2615 -0.9068 -3.1293
  177SLPC  C21320184   5.771   3.452   9.575  0.2742 -0.3350 -0.1846
  177SLPC  H13R20185   5.801   3.358   9.526  0.8496  0.1150 -0.7220
  177SLPC  C21420186   5.741   3.554   9.468  0.7823 -0.6508 -0.0556
  177SLPC  H14R20187   5.687   3.639   9.516  0.8064 -0.1307 -0.9237
  177SLPC  H14S20188   5.661   3.502   9.412  2.2130 -1.4761 -1.4053
  177SLPC  C21520189   5.834   3.603   9.355 -0.1620  0.3315 -0.2221
  177SLPC  H15R20190   5.874   3.506   9.321  0.6085  0.1484  1.1513
  177SLPC  H15S20191   5.905   3.670   9.409 -0.1421 -0.0828  0.2662
  177SLPC  C21620192   5.761   3.675   9.253 -0.6802  0.4517 -0.6027
  177SLPC  H16R20193   5.699   3.758   9.292  0.5653  0.7084  0.9311
  177SLPC  H16S20194   5.708   3.598   9.193  1.9412 -0.6908 -1.6286
  177SLPC  C21720195   5.857   3.747   9.151 -0.6494  0.1179  0.6622
  177SLPC  H17R20196   5.895   3.844   9.188 -1.7508  0.7501  0.1865
  177SLPC  H17S20197   5.797   3.769   9.060 -0.7956  0.1768  0.7734
  177SLPC  C21820198   5.966   3.650   9.104 -0.0214  0.6366 -0.3497
  177SLPC  H18R20199   6.030   3.682   9.019 -0.6994 -0.5096 -1.3126
  177SLPC  H18S20200   5.906   3.566   9.063 -2.5754  1.6976  0.9737
  177SLPC  H18T20201   6.020   3.603   9.189 -1.0795 -0.4362 -0.2492
  177SLPC   C3320202   6.037   3.048  10.101 -0.5547 -0.7285 -0.6815
  177SLPC   H3X20203   6.099   2.958  10.080 -0.9642 -0.7166 -1.9710
  177SLPC   H3Y20204   6.096   3.141  10.089 -1.9457  0.2770 -0.0287
  177SLPC   C3420205   5.940   3.041   9.984 -0.0348 -0.4657  0.0657
  177SLPC   H4X20206   5.875   3.130   9.997 -1.4349 -0.9239 -3.0225
  177SLPC   H4Y20207   5.861   2.964   9.987 -1.9987  1.3458 -1.8900
  177SLPC   C3520208   6.013   3.041   9.846  0.9369 -0.0445 -0.3552
  177SLPC   H5X20209   6.083   2.955   9.850 -0.1888 -0.9459  0.5430
  177SLPC   H5Y20210   6.071   3.135   9.858  0.6812  0.1380 -0.5283
  177SLPC   C3620211   5.912   3.043   9.728  0.1128 -0.2542 -0.2635
  177SLPC   H6X20212   5.844   3.130   9.738  1.5383  0.9191 -0.5120
  177SLPC   H6Y20213   5.857   2.947   9.735  1.3255 -0.8470  2.4386
  177SLPC   C3720214   5.990   3.036   9.598  0.5760  0.4407  0.3458
  177SLPC   H7X20215   5.917   2.989   9.528  1.5800 -2.2985  1.0313
  177SLPC   H7Y20216   6.072   2.962   9.609  0.4629  0.3899  0.8578
  177SLPC   C3820217   6.036   3.172   9.545 -0.2869 -0.1997  0.1000
  177SLPC   H8X20218   6.123   3.216   9.597 -0.7795  3.1145 -1.5934
  177SLPC   H8Y20219   5.961   3.246   9.580 -0.0583  0.9099 -1.6289
  177SLPC   C3920220   6.038   3.173   9.386 -0.1549 -0.4038 -0.0799
  177SLPC   H9X20221   6.040   3.277   9.349 -0.1753 -0.0816  0.8018
  177SLPC   H9Y20222   5.942   3.129   9.353 -0.3414 -0.2210  0.2176
  177SLPC  C31020223   6.146   3.086   9.323  0.0767 -0.5244  0.7413
  177SLPC  H10X20224   6.131   2.979   9.350 -1.4650 -0.9347 -1.4839
  177SLPC  H10Y20225   6.244   3.128   9.354  0.1273  1.8348 -2.1420
  177SLPC  C31120226   6.138   3.099   9.171  0.2584 -0.2763 -0.1234
  177SLPC  H11X20227   6.035   3.132   9.146  0.3113  0.4493  0.5492
  177SLPC  H11Y20228   6.149   3.002   9.119 -0.2509  0.2113 -1.1729
  177SLPC  C31220229   6.227   3.214   9.112  0.0742  0.2016 -0.2233
  177SLPC  H12X20230   6.332   3.183   9.095  0.1482  0.5379 -0.3888
  177SLPC  H12Y20231   6.236   3.298   9.184  0.5214  1.8436 -2.0961
  177SLPC  C31320232   6.159   3.288   8.991  0.1731  0.6131 -0.6549
  177SLPC  H13X20233   6.214   3.381   8.967  0.3314  0.3849 -1.2024
  177SLPC  H13Y20234   6.057   3.324   9.018  0.5784  1.7455 -0.5541
  177SLPC  C31420235   6.153   3.194   8.872  0.1101 -1.4974 -0.2697
  177SLPC  H14X20236   6.070   3.120   8.873 -1.6148  0.3432  0.7272
  177SLPC  H14Y20237   6.249   3.138   8.873  2.2450  1.8509  1.6251
  177SLPC  C31520238   6.138   3.264   8.734  0.4791 -0.0390 -0.3449
  177SLPC  H15X20239   6.223   3.220   8.678  0.4939  0.1938 -0.5043
  177SLPC  H15Y20240   6.146   3.374   8.739 -0.9850  0.1425 -1.3393
  177SLPC  C31620241   6.013   3.236   8.656  0.2129  0.4031  0.4123
  177SLPC  H16X20242   5.917   3.265   8.705 -2.1176 -2.8236 -1.8319
  177SLPC  H16Y20243   5.997   3.126   8.656 -2.0397  0.6516  1.6246
  177SLPC  C31720244   6.015   3.304   8.524 -0.4302 -0.5852  0.3363
  177SLPC  H17X20245   6.040   3.410   8.544  0.1302 -0.8216  0.9282
  177SLPC  H17Y20246   5.918   3.312   8.470  0.1846  3.4945 -0.4797
  177SLPC  C31820247   6.120   3.248   8.429 -1.1288  0.1823 -0.2667
  177SLPC  H18X20248   6.102   3.274   8.323 -0.6539 -1.1621 -0.6966
  177SLPC  H18Y20249   6.120   3.137   8.434 -0.8546  0.2137  0.8231
  177SLPC  H18Z20250   6.221   3.280   8.463 -1.1734 -1.7118  1.9355
  178SLPC     N20251   6.271   0.010  11.188  0.5064  0.0691  0.1699
  178SLPC   C1320252   6.195  -0.023  11.310  0.5257 -0.5258 -1.1258
  178SLPC  H13A20253   6.116   0.047  11.333  0.7487 -0.4302 -0.6486
  178SLPC  H13B20254   6.147  -0.120  11.301  0.9133 -0.8853  0.5028
  178SLPC  H13C20255   6.255  -0.026  11.399 -2.2789 -2.1494  0.8607
  178SLPC   C1420256   6.339   0.143  11.210  0.2221  0.3661 -0.1711
  178SLPC  H14A20257   6.377   0.144  11.311 -0.5260  0.5908  0.1132
  178SLPC  H14B20258   6.425   0.154  11.145 -1.1188  0.9056 -1.9482
  178SLPC  H14C20259   6.274   0.229  11.201  1.3599  1.6267  2.6737
  178SLPC   C1520260   6.185   0.021  11.062  0.4498  0.6312 -0.9576
  178SLPC  H15A20261   6.226   0.033  10.963 -0.7084  2.0278 -1.2944
  178SLPC  H15B20262   6.115  -0.060  11.060 -0.4904  1.3692  0.3828
  178SLPC  H15C20263   6.121   0.106  11.081 -0.5897 -0.3980  0.3057
  178SLPC   C1220264   6.371  -0.102  11.154  0.2165  0.4786  0.0581
  178SLPC  H12A20265   6.307  -0.188  11.145  0.4744  0.3985 -1.1964
  178SLPC  H12B20266   6.440  -0.100  11.237  0.8432 -0.0951 -0.4305
  178SLPC   C1120267   6.457  -0.076  11.023  0.8730 -0.3307 -0.3155
  178SLPC  H11A20268   6.400  -0.053  10.931  1.1102  1.2451 -0.0840
  178SLPC  H11B20269   6.512  -0.171  11.009  1.3140 -0.5914  2.5453
  178SLPC     P20270   6.632   0.124  10.960 -0.5281 -0.2672 -0.0072
  178SLPC   O1320271   6.554   0.251  10.966  0.0222 -0.3590 -0.0132
  178SLPC   O1420272   6.776   0.135  10.992  0.0567 -0.3209 -0.6038
  178SLPC   O1220273   6.559   0.021  11.050  0.3049 -0.2107  0.2006
  178SLPC   O1120274   6.623   0.063  10.807 -0.8483  0.3707 -0.7478
  178SLPC    C120275   6.696  -0.058  10.768 -0.2352  0.3491 -0.0566
  178SLPC    HA20276   6.807  -0.045  10.773 -0.1331 -0.4445 -0.2169
  178SLPC    HB20277   6.676  -0.146  10.832 -1.8147  2.1923  2.1392
  178SLPC    C220278   6.658  -0.101  10.627 -0.1426 -0.4379 -0.1291
  178SLPC    HS20279   6.724  -0.185  10.596  0.7340  0.3992 -0.5808
  178SLPC   O2120280   6.685  -0.001  10.535 -0.0474 -0.1293  0.1986
  178SLPC   C2120281   6.814   0.031  10.499 -0.2720  0.3684  0.5453
  178SLPC   O2220282   6.909  -0.030  10.546 -0.2138  0.3675 -0.0556
  178SLPC   C2220283   6.814   0.153  10.407 -0.1464  0.5857  0.4798
  178SLPC   H2R20284   6.713   0.197  10.408 -0.8042 -0.8795  0.8352
  178SLPC   H2S20285   6.886   0.228  10.445  1.5655 -0.1513 -1.0971
  178SLPC    C320286   6.515  -0.141  10.616  0.1506 -0.0128  0.0747
  178SLPC    HX20287   6.460  -0.068  10.679 -1.2452 -0.8453 -0.1221
  178SLPC    HY20288   6.505  -0.234  10.677 -0.2811 -0.7204 -1.0329
  178SLPC   O3120289   6.465  -0.168  10.486 -0.5503  0.4737  0.5717
  178SLPC   C3120290   6.403  -0.065  10.427 -0.7706  1.6779 -0.3165
  178SLPC   O3220291   6.364   0.038  10.480 -0.2038  0.0239  0.2426
  178SLPC   C3220292   6.380  -0.092  10.282 -0.0093  0.4327  0.1542
  178SLPC   H2X20293   6.288  -0.155  10.285  0.3354 -0.3171 -2.6431
  178SLPC   H2Y20294   6.470  -0.143  10.242  0.0790  0.9799 -0.3453
  178SLPC   C2320295   6.832   0.119  10.256 -0.2748  0.0706 -0.4423
  178SLPC   H3R20296   6.750   0.063  10.206 -0.4101  0.3148 -0.4964
  178SLPC   H3S20297   6.920   0.055  10.234 -1.0113 -1.2652  0.3038
  178SLPC   C2420298   6.864   0.247  10.168  0.0726 -0.4346  0.1560
  178SLPC   H4R20299   6.964   0.275  10.208 -0.2085 -1.9854  2.1454
  178SLPC   H4S20300   6.788   0.327  10.180  0.6853  0.0066  1.2682
  178SLPC   C2520301   6.878   0.212  10.020  0.2148 -0.6328  0.2853
  178SLPC   H5R20302   6.779   0.193   9.973 -0.6684  4.8490 -0.6783
  178SLPC   H5S20303   6.949   0.130   9.996 -1.2027 -1.7515 -0.2333
  178SLPC   C2620304   6.914   0.337   9.944  0.2102 -0.4345 -0.2623
  178SLPC   H6R20305   7.007   0.387   9.978 -0.6789 -0.3162  2.2105
  178SLPC   H6S20306   6.831   0.410   9.954  0.4756 -0.4609  4.5779
  178SLPC   C2720307   6.942   0.308   9.794 -0.1069  0.3560 -0.3439
  178SLPC   H7R20308   6.953   0.399   9.731  0.3387  1.4273  1.2300
  178SLPC   H7S20309   6.852   0.260   9.750  0.0818  1.2745 -1.8045
  178SLPC   C2820310   7.070   0.224   9.763 -0.1187 -0.2177  0.3939
  178SLPC   H8R20311   7.064   0.179   9.662 -0.2389 -1.3463  0.8874
  178SLPC   H8S20312   7.076   0.134   9.828  1.3941 -0.2318  0.2815
  178SLPC   C2920313   7.191   0.312   9.779  0.0518 -0.4835  0.0762
  178SLPC   H9R20314   7.228   0.312   9.882 -0.9015  0.5515  0.4379
  178SLPC  C21020315   7.252   0.392   9.684  0.5688  0.5341 -0.3829
  178SLPC  H10R20316   7.337   0.451   9.720 -1.0531  2.3392  0.6942
  178SLPC  C21120317   7.216   0.392   9.540 -0.6223 -0.4962 -0.2170
  178SLPC  H11R20318   7.218   0.498   9.509 -0.9441 -0.2279  0.6420
  178SLPC  H11S20319   7.109   0.366   9.522 -1.2161  0.7534  1.2715
  178SLPC  C21220320   7.306   0.308   9.459  0.7777 -0.0728  0.0156
  178SLPC  H12R20321   7.359   0.228   9.515  1.5632  0.7251  0.4382
  178SLPC  C21320322   7.326   0.315   9.323 -0.0269 -0.7172 -0.5510
  178SLPC  H13R20323   7.372   0.232   9.268 -0.9148  0.4132 -3.1757
  178SLPC  C21420324   7.264   0.413   9.224  0.2627  0.1954 -0.7187
  178SLPC  H14R20325   7.346   0.465   9.171  1.6480 -0.3583  0.8082
  178SLPC  H14S20326   7.200   0.493   9.267 -1.1360  0.0346 -2.3635
  178SLPC  C21520327   7.178   0.350   9.113 -1.0125 -0.1031  0.4360
  178SLPC  H15R20328   7.248   0.288   9.052  1.0759  2.1684  0.3736
  178SLPC  H15S20329   7.144   0.428   9.042  1.7432 -1.8059 -3.0895
  178SLPC  C21620330   7.066   0.262   9.164  0.0468 -0.2645 -0.4547
  178SLPC  H16R20331   7.105   0.177   9.224 -0.7828 -1.2139 -1.1994
  178SLPC  H16S20332   7.020   0.211   9.076 -0.1598 -0.2937 -0.3298
  178SLPC  C21720333   6.965   0.344   9.256  0.0863 -0.9021 -0.7728
  178SLPC  H17R20334   6.978   0.450   9.223 -2.0402 -0.6608 -0.9791
  178SLPC  H17S20335   6.997   0.344   9.362  0.4526  2.0483 -0.7980
  178SLPC  C21820336   6.817   0.308   9.245  0.1746 -0.4644  0.4140
  178SLPC  H18R20337   6.759   0.388   9.296  2.3210 -0.2918  2.7685
  178SLPC  H18S20338   6.799   0.211   9.296  0.7247 -1.2933 -0.9066
  178SLPC  H18T20339   6.783   0.296   9.140  0.5043 -1.6512  0.4296
  178SLPC   C3320340   6.354   0.037  10.195 -0.1474  0.8402 -0.0722
  178SLPC   H3X20341   6.287   0.110  10.245 -3.5686 -2.4106  0.5092
  178SLPC   H3Y20342   6.306   0.016  10.097 -2.8121 -0.1776  1.3637
  178SLPC   C3420343   6.493   0.094  10.162  0.1899 -0.4468 -0.2361
  178SLPC   H4X20344   6.564   0.021  10.117  1.3377 -0.8937  2.1287
  178SLPC   H4Y20345   6.543   0.125  10.256  0.5413  0.8389 -0.8198
  178SLPC   C3520346   6.481   0.225  10.090  0.2481  0.8180 -0.3399
  178SLPC   H5X20347   6.567   0.293  10.107  1.3199 -0.3503 -0.8571
  178SLPC   H5Y20348   6.390   0.269  10.135  0.1934  1.2783 -0.8901
  178SLPC   C3620349   6.440   0.204   9.943 -0.2675 -0.3442 -0.5704
  178SLPC   H6X20350   6.401   0.300   9.905 -0.2740 -0.7201 -1.5235
  178SLPC   H6Y20351   6.343   0.151   9.930 -0.3980 -0.8538  1.9045
  178SLPC   C3720352   6.551   0.150   9.851 -0.0283 -0.0496 -0.0138
  178SLPC   H7X20353   6.614   0.076   9.905  1.5121  2.2729  1.5782
  178SLPC   H7Y20354   6.622   0.230   9.821  1.1643 -1.8489 -2.3731
  178SLPC   C3820355   6.497   0.089   9.717 -0.1852  0.1922 -1.0288
  178SLPC   H8X20356   6.425   0.010   9.748 -0.4519  1.4356  1.8416
  178SLPC   H8Y20357   6.585   0.045   9.667  0.0807 -1.7633  0.9998
  178SLPC   C3920358   6.433   0.189   9.624 -0.1050 -0.2388 -0.2943
  178SLPC   H9X20359   6.511   0.267   9.613 -0.4483  0.1805  0.1936
  178SLPC   H9Y20360   6.344   0.238   9.669 -0.0139 -0.1312 -0.2314
  178SLPC  C31020361   6.395   0.134   9.484  0.1669 -0.0535 -0.7299
  178SLPC  H10X20362   6.318   0.205   9.447 -1.6755 -1.3789  0.4047
  178SLPC  H10Y20363   6.346   0.036   9.503 -1.4548  0.0407 -3.8533
  178SLPC  C31120364   6.515   0.101   9.399  0.7364 -0.4129 -0.3424
  178SLPC  H11X20365   6.586   0.028   9.444  1.7378  0.7332 -0.0394
  178SLPC  H11Y20366   6.562   0.197   9.371  0.4016 -0.0197  0.4114
  178SLPC  C31220367   6.477   0.033   9.265 -0.3195  0.0459 -0.2362
  178SLPC  H12X20368   6.415  -0.059   9.273  0.7182 -0.5092  2.2513
  178SLPC  H12Y20369   6.572  -0.001   9.218 -0.9493  0.1633 -1.6501
  178SLPC  C31320370   6.401   0.123   9.175 -0.0365 -0.2754 -0.0494
  178SLPC  H13X20371   6.444   0.226   9.170 -2.5833  0.7887 -2.3884
  178SLPC  H13Y20372   6.299   0.131   9.220 -0.2594 -0.3045 -0.5483
  178SLPC  C31420373   6.383   0.067   9.029 -0.7033  0.3845 -0.4905
  178SLPC  H14X20374   6.365  -0.042   9.038  1.7070 -0.0572 -0.3040
  178SLPC  H14Y20375   6.482   0.078   8.981  0.7028  1.8067  2.4574
  178SLPC  C31520376   6.268   0.132   8.943 -0.5410  0.0079 -0.3779
  178SLPC  H15X20377   6.179   0.126   9.009 -0.3313 -0.9926 -0.1727
  178SLPC  H15Y20378   6.288   0.241   8.931  1.6905 -0.2759  0.4357
  178SLPC  C31620379   6.242   0.052   8.819  0.4792 -0.0429  0.4985
  178SLPC  H16X20380   6.215  -0.053   8.845  1.2985 -0.2040  0.7284
  178SLPC  H16Y20381   6.335   0.051   8.758 -0.9050 -0.7748 -1.7193
  178SLPC  C31720382   6.118   0.090   8.728  0.2338 -0.8667  0.4720
  178SLPC  H17X20383   6.157   0.158   8.650 -2.2688 -1.4017 -1.3756
  178SLPC  H17Y20384   6.044   0.145   8.789 -1.1144 -3.8203  1.6977
  178SLPC  C31820385   6.044  -0.030   8.651 -0.1362  0.5140 -0.2263
  178SLPC  H18X20386   5.960   0.020   8.598 -0.2218  0.0940 -0.4902
  178SLPC  H18Y20387   6.012  -0.113   8.718 -3.8674  2.5041  0.7762
  178SLPC  H18Z20388   6.109  -0.082   8.578 -0.8212 -1.7778  0.7236
  179SLPC     N20389   2.571   0.390  10.695  0.1549  0.0002  0.3147
  179SLPC   C1320390   2.613   0.499  10.793  0.8333  0.3811  0.2847
  179SLPC  H13A20391   2.522   0.546  10.829 -0.0106 -0.3012 -0.8767
  179SLPC  H13B20392   2.669   0.466  10.879 -1.6302 -0.0605  1.8062
  179SLPC  H13C20393   2.671   0.580  10.750  2.1087  0.1484  1.5169
  179SLPC   C1420394   2.477   0.438  10.594  0.1941 -0.1326  0.0775
  179SLPC  H14A20395   2.462   0.350  10.534 -0.7149 -0.0777  0.2071
  179SLPC  H14B20396   2.382   0.463  10.640  0.8311 -1.9273  2.5994
  179SLPC  H14C20397   2.512   0.525  10.541 -1.9103  1.4034  1.0603
  179SLPC   C1520398   2.499   0.282  10.767 -0.0770  0.5569 -0.0221
  179SLPC  H15A20399   2.413   0.302  10.829 -1.4278 -2.5036 -0.7174
  179SLPC  H15B20400   2.482   0.203  10.696  2.7872  0.0371 -0.2817
  179SLPC  H15C20401   2.571   0.238  10.836 -0.6155 -2.5562 -1.2693
  179SLPC   C1220402   2.696   0.335  10.626 -0.1543  0.1613  0.1065
  179SLPC  H12A20403   2.746   0.279  10.703 -2.4469 -0.4953  1.2219
  179SLPC  H12B20404   2.751   0.427  10.611  0.8044 -0.3450  0.4605
  179SLPC   C1120405   2.695   0.269  10.481  0.4000  0.6794  0.1660
  179SLPC  H11A20406   2.798   0.256  10.442  0.4184  3.4353 -0.9669
  179SLPC  H11B20407   2.657   0.338  10.403  0.5550 -2.1664 -2.6477
  179SLPC     P20408   2.659   0.013  10.559 -0.1303 -0.0202  0.3088
  179SLPC   O1320409   2.805   0.014  10.587  0.1971 -0.0434 -0.1684
  179SLPC   O1420410   2.567  -0.002  10.674  0.0246 -0.3411 -0.4352
  179SLPC   O1220411   2.623   0.147  10.477  0.2256 -0.2191 -0.4152
  179SLPC   O1120412   2.632  -0.092  10.448 -0.0270  0.3311  0.3444
  179SLPC    C120413   2.537  -0.079  10.342  0.2146  0.8233  0.0413
  179SLPC    HA20414   2.479  -0.173  10.329 -0.3334  1.4788 -2.8934
  179SLPC    HB20415   2.461  -0.003  10.370 -1.1675 -1.4116  2.9724
  179SLPC    C220416   2.615  -0.054  10.210  0.5550 -0.1248  0.3674
  179SLPC    HS20417   2.532  -0.068  10.137 -1.7823  1.1935  2.6025
  179SLPC   O2120418   2.724  -0.155  10.191 -0.2451 -0.8552  0.0350
  179SLPC   C2120419   2.677  -0.274  10.146 -0.3067 -0.3086 -0.5217
  179SLPC   O2220420   2.565  -0.302  10.122  0.2358  0.1496  0.1844
  179SLPC   C2220421   2.797  -0.373  10.143 -0.4550 -0.4891  0.0137
  179SLPC   H2R20422   2.895  -0.323  10.156  0.1843 -1.2912 -1.3760
  179SLPC   H2S20423   2.779  -0.456  10.215 -1.3131 -0.8988 -0.6490
  179SLPC    C320424   2.663   0.094  10.199 -0.2929  0.3225 -0.1913
  179SLPC    HX20425   2.759   0.097  10.255  0.4324  0.0897 -1.3879
  179SLPC    HY20426   2.593   0.171  10.238 -0.5509  0.3344 -0.6713
  179SLPC   O3120427   2.684   0.125  10.053 -0.7933 -0.2095  0.3315
  179SLPC   C3120428   2.810   0.125  10.016  0.1271 -0.1516  0.4894
  179SLPC   O3220429   2.906   0.114  10.082 -0.8380 -0.2114 -0.0293
  179SLPC   C3220430   2.824   0.149   9.864 -0.5227  0.0120 -0.0803
  179SLPC   H2X20431   2.933   0.156   9.843 -0.5444  1.4466  0.2149
  179SLPC   H2Y20432   2.765   0.240   9.842 -0.2386  0.0354 -0.7735
  179SLPC   C2320433   2.799  -0.436  10.000 -0.0676 -0.0623  0.3954
  179SLPC   H3R20434   2.701  -0.471   9.962 -1.0605  1.6802  1.2112
  179SLPC   H3S20435   2.850  -0.534  10.013 -2.4187 -1.4204 -0.0551
  179SLPC   C2420436   2.874  -0.351   9.896  0.4460 -0.1029  0.6398
  179SLPC   H4R20437   2.974  -0.317   9.931  0.5523 -1.6695  1.9620
  179SLPC   H4S20438   2.809  -0.264   9.872 -0.0760 -0.4491  0.7772
  179SLPC   C2520439   2.890  -0.430   9.763  0.2515  0.2662 -0.5045
  179SLPC   H5R20440   2.788  -0.456   9.727  0.4494 -0.6814 -0.4101
  179SLPC   H5S20441   2.949  -0.523   9.778  0.0210  0.1960  0.0061
  179SLPC   C2620442   2.955  -0.350   9.651 -0.0176  0.5547  0.3769
  179SLPC   H6R20443   3.055  -0.307   9.677  0.2926 -0.1157  0.3016
  179SLPC   H6S20444   2.895  -0.256   9.644 -0.0932  0.3995 -1.4993
  179SLPC   C2720445   2.961  -0.415   9.515  0.0783  0.3167 -0.3200
  179SLPC   H7R20446   2.854  -0.414   9.484 -0.4688  1.8583  1.4308
  179SLPC   H7S20447   2.985  -0.523   9.530  1.0491  0.6087  0.3461
  179SLPC   C2820448   3.052  -0.347   9.411 -0.3875 -0.6343 -0.1229
  179SLPC   H8R20449   3.161  -0.361   9.429 -0.0638  2.0453  0.3589
  179SLPC   H8S20450   3.023  -0.240   9.421 -1.0862 -1.0435  2.8851
  179SLPC   C2920451   3.024  -0.391   9.276  1.3671 -0.8984  1.0810
  179SLPC   H9R20452   3.063  -0.492   9.257  0.2819 -1.3170  0.9756
  179SLPC  C21020453   2.955  -0.338   9.168 -0.8676 -0.8324 -0.1171
  179SLPC  H10R20454   2.979  -0.385   9.072  1.2601  1.0414 -0.5919
  179SLPC  C21120455   2.891  -0.197   9.171 -0.5669 -0.1890  0.1619
  179SLPC  H11R20456   2.863  -0.158   9.071 -0.2660  1.0425  0.5419
  179SLPC  H11S20457   2.954  -0.121   9.222 -1.0166  1.3031 -1.4401
  179SLPC  C21220458   2.765  -0.210   9.252 -0.1768  0.4751 -0.3034
  179SLPC  H12R20459   2.766  -0.271   9.343 -0.9570 -1.6815 -1.6741
  179SLPC  C21320460   2.649  -0.149   9.218 -0.1759 -0.3125 -0.4454
  179SLPC  H13R20461   2.561  -0.149   9.284 -0.6797 -3.6370 -0.9642
  179SLPC  C21420462   2.619  -0.061   9.097  0.1570 -0.0742 -0.1244
  179SLPC  H14R20463   2.712  -0.016   9.056 -1.1166  2.4635 -0.3843
  179SLPC  H14S20464   2.550   0.024   9.115 -0.0960 -0.7216  2.2282
  179SLPC  C21520465   2.562  -0.157   8.987  0.3683  0.7171  0.0324
  179SLPC  H15R20466   2.470  -0.208   9.022  1.1528 -0.0914  1.0025
  179SLPC  H15S20467   2.636  -0.239   8.971 -2.6001 -1.7126 -2.5287
  179SLPC  C21620468   2.530  -0.080   8.861 -0.2644  0.2813 -0.8781
  179SLPC  H16R20469   2.613  -0.009   8.841  0.5894 -0.9287 -1.7949
  179SLPC  H16S20470   2.437  -0.020   8.872  0.0975  0.4010  2.6319
  179SLPC  C21720471   2.512  -0.177   8.741  0.0219 -0.3873  0.1961
  179SLPC  H17R20472   2.417  -0.232   8.753 -0.1944 -0.3691 -1.2646
  179SLPC  H17S20473   2.587  -0.258   8.728 -0.5552 -0.9585  0.3858
  179SLPC  C21820474   2.499  -0.109   8.606 -0.6976 -0.4371 -0.0025
  179SLPC  H18R20475   2.519  -0.173   8.518 -2.8701 -0.7552 -0.3286
  179SLPC  H18S20476   2.567  -0.021   8.608 -0.5805 -0.5312  0.2209
  179SLPC  H18T20477   2.401  -0.058   8.591  0.7531  2.5577  0.0189
  179SLPC   C3320478   2.789   0.024   9.775  0.7661  0.6428  0.1021
  179SLPC   H3X20479   2.678   0.011   9.770  0.4793  2.2299  1.5545
  179SLPC   H3Y20480   2.838  -0.069   9.812 -0.9934 -0.0519  0.8264
  179SLPC   C3420481   2.828   0.046   9.628 -0.2226 -0.0582  0.7028
  179SLPC   H4X20482   2.797  -0.036   9.559  0.6779 -0.0303  0.2497
  179SLPC   H4Y20483   2.937   0.066   9.634 -0.7168  4.2437 -1.2168
  179SLPC   C3520484   2.761   0.173   9.575  0.1986  0.2469 -0.1212
  179SLPC   H5X20485   2.767   0.262   9.641  1.5973  0.9766 -1.1697
  179SLPC   H5Y20486   2.654   0.150   9.560 -0.1073 -0.1216  2.2855
  179SLPC   C3620487   2.823   0.211   9.439 -0.0149 -0.2398 -0.2703
  179SLPC   H6X20488   2.788   0.127   9.374 -1.3124 -0.2219  0.3878
  179SLPC   H6Y20489   2.934   0.210   9.451 -0.3367 -0.6118  3.9995
  179SLPC   C3720490   2.772   0.350   9.385  0.1183  0.7355  0.4936
  179SLPC   H7X20491   2.807   0.428   9.456 -1.7686 -0.6518  3.1272
  179SLPC   H7Y20492   2.662   0.364   9.384  0.1672  1.1865  1.0055
  179SLPC   C3820493   2.830   0.381   9.245 -0.5144 -0.1099  0.0395
  179SLPC   H8X20494   2.941   0.371   9.244 -0.4220 -0.3566  3.1910
  179SLPC   H8Y20495   2.798   0.483   9.216 -1.2464 -0.9030 -2.0731
  179SLPC   C3920496   2.780   0.270   9.140 -0.2915 -0.1703  0.1917
  179SLPC   H9X20497   2.673   0.253   9.165 -0.0725  0.2070  1.4525
  179SLPC   H9Y20498   2.850   0.185   9.154 -0.1045 -0.0535 -0.0330
  179SLPC  C31020499   2.790   0.325   9.004  0.7058 -0.0830  0.6372
  179SLPC  H10X20500   2.716   0.408   8.999  2.0151  1.0789 -0.7658
  179SLPC  H10Y20501   2.756   0.255   8.925 -1.1649  2.1486 -0.6755
  179SLPC  C31120502   2.932   0.370   8.971 -0.0580 -0.0779 -0.0739
  179SLPC  H11X20503   2.996   0.292   9.018  0.1526  0.0511 -0.1402
  179SLPC  H11Y20504   2.941   0.468   9.022  1.0748 -0.9805  1.5640
  179SLPC  C31220505   2.952   0.393   8.823  0.0431  0.1292  0.5433
  179SLPC  H12X20506   2.872   0.455   8.776  0.4653  0.2282 -0.0527
  179SLPC  H12Y20507   2.954   0.295   8.770  1.8336  0.3775  0.1043
  179SLPC  C31320508   3.085   0.480   8.791 -0.0912 -0.3662  0.2805
  179SLPC  H13X20509   3.165   0.434   8.852 -0.7782  0.6857  2.0594
  179SLPC  H13Y20510   3.063   0.575   8.846  0.9590 -1.9201  3.6442
  179SLPC  C31420511   3.142   0.494   8.654  0.2276  0.8437 -0.2297
  179SLPC  H14X20512   3.079   0.514   8.565 -0.3057 -1.5168 -0.4306
  179SLPC  H14Y20513   3.191   0.399   8.625  3.6402  1.9623  1.2859
  179SLPC  C31520514   3.256   0.602   8.662  0.3072 -0.2416 -0.2891
  179SLPC  H15X20515   3.311   0.589   8.758 -0.0763 -1.2628 -0.1957
  179SLPC  H15Y20516   3.210   0.702   8.684 -1.3559 -1.4549  2.2809
  179SLPC  C31620517   3.338   0.613   8.533  0.3903 -0.4678  0.2371
  179SLPC  H16X20518   3.281   0.672   8.458 -0.5640  1.3745  2.2854
  179SLPC  H16Y20519   3.359   0.509   8.500  2.4579 -0.2564  0.7315
  179SLPC  C31720520   3.473   0.679   8.544  0.0835 -0.5960 -0.0167
  179SLPC  H17X20521   3.545   0.607   8.590 -0.0388 -1.9971 -1.9068
  179SLPC  H17Y20522   3.460   0.767   8.610  3.2060 -2.1654  3.0047
  179SLPC  C31820523   3.514   0.693   8.396  1.6202  0.5150 -0.3922
  179SLPC  H18X20524   3.524   0.592   8.352  1.7804  0.1731  0.4052
  179SLPC  H18Y20525   3.613   0.743   8.398  2.0329 -0.1847 -1.9628
  179SLPC  H18Z20526   3.448   0.750   8.328  0.2923 -0.0386  0.4064
  180SLPC     N20527   4.852   3.401  11.074  0.5680  1.2215  0.0899
  180SLPC   C1320528   4.801   3.518  11.143  0.0599 -0.7313 -0.2892
  180SLPC  H13A20529   4.769   3.491  11.243  2.5042  1.1036  1.0844
  180SLPC  H13B20530   4.872   3.599  11.151  0.9686 -1.6501  1.5731
  180SLPC  H13C20531   4.712   3.554  11.093 -1.5941  0.1234  2.9819
  180SLPC   C1420532   4.759   3.351  10.962 -0.2465 -0.0336 -0.0612
  180SLPC  H14A20533   4.817   3.289  10.895  1.0476 -0.2901  1.2610
  180SLPC  H14B20534   4.683   3.284  10.999 -0.8127  1.0249  0.7340
  180SLPC  H14C20535   4.719   3.431  10.902 -1.7163 -1.6599 -1.3596
  180SLPC   C1520536   4.872   3.294  11.172  0.3029 -0.3698 -0.0672
  180SLPC  H15A20537   4.782   3.257  11.219 -1.2337  0.9279 -1.8566
  180SLPC  H15B20538   4.923   3.213  11.121  1.4276 -0.1661  0.6787
  180SLPC  H15C20539   4.932   3.320  11.258 -0.4784  1.3444 -0.0207
  180SLPC   C1220540   4.986   3.429  11.011  0.1933 -0.1588 -0.7482
  180SLPC  H12A20541   5.024   3.353  10.943 -0.1753 -0.0469 -1.0839
  180SLPC  H12B20542   5.059   3.441  11.090 -0.2840  0.7691 -0.4336
  180SLPC   C1120543   4.985   3.558  10.927 -0.0335 -0.6824  0.6212
  180SLPC  H11A20544   4.891   3.564  10.867  1.2021  1.5983 -1.2430
  180SLPC  H11B20545   5.064   3.555  10.848  0.3911  0.2600  1.0084
  180SLPC     P20546   5.127   3.743  11.026  0.1441 -0.2383  0.5827
  180SLPC   O1320547   5.110   3.880  11.079 -0.4547  0.1508  0.1276
  180SLPC   O1420548   5.201   3.646  11.107  0.0138 -0.3136  0.1134
  180SLPC   O1220549   4.983   3.677  11.000 -0.0000 -0.1806 -0.0709
  180SLPC   O1120550   5.195   3.762  10.883  0.2648 -0.0141  0.5200
  180SLPC    C120551   5.131   3.832  10.775  0.2215  0.2056 -0.3752
  180SLPC    HA20552   5.021   3.818  10.774  0.0653  1.1406  0.9200
  180SLPC    HB20553   5.150   3.942  10.777  0.7320  0.1895 -2.1984
  180SLPC    C220554   5.191   3.798  10.637  0.2562 -0.3829 -0.3732
  180SLPC    HS20555   5.181   3.890  10.575 -0.1717 -0.1656  0.0172
  180SLPC   O2120556   5.125   3.677  10.581 -0.3923  0.1182 -0.5820
  180SLPC   C2120557   5.006   3.705  10.533 -0.1612  0.2854  0.6457
  180SLPC   O2220558   4.961   3.819  10.515  0.4577  0.0006  0.5582
  180SLPC   C2220559   4.942   3.573  10.495 -0.5823 -0.0960  0.2520
  180SLPC   H2R20560   5.010   3.494  10.534  0.6160  0.3095 -0.9824
  180SLPC   H2S20561   4.848   3.574  10.555 -1.7085 -1.4946 -1.3885
  180SLPC    C320562   5.349   3.776  10.653 -0.2309  0.0372  0.0863
  180SLPC    HX20563   5.367   3.677  10.700  0.6059  1.0135  1.9393
  180SLPC    HY20564   5.378   3.854  10.727 -2.1760  1.4320 -0.5150
  180SLPC   O3120565   5.427   3.794  10.532  0.1333  0.0169  0.4618
  180SLPC   C3120566   5.554   3.777  10.555  0.5444  0.2594  0.2316
  180SLPC   O3220567   5.607   3.788  10.663  0.1645  0.0386  0.1429
  180SLPC   C3220568   5.618   3.728  10.427 -0.1348  0.9325  0.6541
  180SLPC   H2X20569   5.548   3.752  10.344 -0.7550 -0.7371  0.6448
  180SLPC   H2Y20570   5.629   3.617  10.436  1.4738  1.0410  0.2681
  180SLPC   C2320571   4.917   3.555  10.351  0.0630  0.9436 -0.3689
  180SLPC   H3R20572   4.958   3.460  10.311  1.0622  0.8170  0.8845
  180SLPC   H3S20573   4.965   3.636  10.293  1.1037 -0.0050 -0.8645
  180SLPC   C2420574   4.765   3.533  10.320 -0.4132 -0.4523  0.7661
  180SLPC   H4R20575   4.711   3.630  10.319  1.4247  0.6345  0.1266
  180SLPC   H4S20576   4.725   3.469  10.401 -0.5121 -0.1005  0.9941
  180SLPC   C2520577   4.755   3.470  10.186 -0.0384  0.0832  0.4348
  180SLPC   H5R20578   4.648   3.440  10.174 -0.2823  0.5628  1.3456
  180SLPC   H5S20579   4.835   3.393  10.177  1.5486  1.7676 -0.4031
  180SLPC   C2620580   4.773   3.567  10.068 -1.0326  0.1204 -0.4373
  180SLPC   H6R20581   4.883   3.580  10.071 -0.6868 -2.4453  2.2342
  180SLPC   H6S20582   4.730   3.667  10.091 -0.2157  0.6610 -1.1599
  180SLPC   C2720583   4.741   3.502   9.932 -0.4206  0.4873  0.3520
  180SLPC   H7R20584   4.636   3.466   9.926 -0.2928  0.3575 -2.0072
  180SLPC   H7S20585   4.808   3.415   9.915 -1.6150 -0.7072  1.5027
  180SLPC   C2820586   4.747   3.610   9.818  0.1644  0.0451 -0.0254
  180SLPC   H8R20587   4.695   3.702   9.851 -0.8914 -0.1940 -0.9608
  180SLPC   H8S20588   4.684   3.567   9.737  1.8938  1.5814 -2.3031
  180SLPC   C2920589   4.887   3.637   9.770 -0.6490  0.2513  0.0387
  180SLPC   H9R20590   4.960   3.659   9.849  0.8666 -1.8956 -0.6643
  180SLPC  C21020591   4.924   3.641   9.641 -0.1563  0.5240 -0.9222
  180SLPC  H10R20592   5.030   3.653   9.612  0.4684  0.0518  1.0246
  180SLPC  C21120593   4.836   3.607   9.524 -0.0149  0.7506 -0.7842
  180SLPC  H11R20594   4.853   3.661   9.428 -3.0893  0.2003 -1.7357
  180SLPC  H11S20595   4.733   3.633   9.556 -0.2058 -0.1982 -0.6008
  180SLPC  C21220596   4.856   3.456   9.498  0.5944 -0.2219 -0.2504
  180SLPC  H12R20597   4.852   3.390   9.586  0.3785 -0.3742 -0.3716
  180SLPC  C21320598   4.871   3.395   9.378 -0.9010 -0.0995  0.5216
  180SLPC  H13R20599   4.853   3.286   9.384  0.2685 -0.4265 -1.2607
  180SLPC  C21420600   4.886   3.456   9.242  0.6510 -0.2358  0.2726
  180SLPC  H14R20601   4.990   3.437   9.206  1.7598  0.3711  2.9063
  180SLPC  H14S20602   4.874   3.566   9.252  0.3801 -0.3561  1.3041
  180SLPC  C21520603   4.771   3.400   9.153  0.0037 -0.0054 -0.9224
  180SLPC  H15R20604   4.675   3.432   9.198  0.3490  1.3047 -1.0641
  180SLPC  H15S20605   4.766   3.290   9.141 -0.0631 -0.0868 -0.1814
  180SLPC  C21620606   4.790   3.469   9.020  0.4839  0.1313 -0.2285
  180SLPC  H16R20607   4.891   3.440   8.986  0.1101 -1.3924 -0.1203
  180SLPC  H16S20608   4.792   3.576   9.050 -2.3140  0.1382  0.1939
  180SLPC  C21720609   4.681   3.449   8.911 -0.1850 -0.3002  0.3709
  180SLPC  H17R20610   4.580   3.434   8.953  0.4114  1.5370  2.6457
  180SLPC  H17S20611   4.714   3.355   8.860 -0.7978  0.0224 -0.6571
  180SLPC  C21820612   4.682   3.573   8.817 -0.3761 -0.6301 -0.4240
  180SLPC  H18R20613   4.787   3.604   8.802 -0.7894  2.1353  1.5592
  180SLPC  H18S20614   4.624   3.655   8.864 -1.9100 -1.4197 -0.8695
  180SLPC  H18T20615   4.639   3.551   8.717  1.5942  0.3920 -1.5486
  180SLPC   C3320616   5.756   3.788  10.402  0.2912  0.1859 -0.8482
  180SLPC   H3X20617   5.832   3.721  10.358  0.4671 -0.9611  1.0934
  180SLPC   H3Y20618   5.806   3.821  10.496  0.9133 -0.9703 -0.7527
  180SLPC   C3420619   5.749   3.921  10.320 -1.1273 -0.9963  0.0846
  180SLPC   H4X20620   5.848   3.972  10.325 -0.6818 -1.8782  0.4647
  180SLPC   H4Y20621   5.676   3.994  10.361 -0.7713  0.7784 -2.2370
  180SLPC   C3520622   5.732   3.889  10.170 -0.4433 -0.7823 -0.3019
  180SLPC   H5X20623   5.744   3.780  10.154  2.6146 -0.2595 -2.3162
  180SLPC   H5Y20624   5.816   3.940  10.119 -0.5329  0.7631  1.0215
  180SLPC   C3620625   5.595   3.926  10.120  0.1105  0.0538 -0.0744
  180SLPC   H6X20626   5.580   4.036  10.109 -0.5188 -0.0145  0.0446
  180SLPC   H6Y20627   5.511   3.881  10.178 -0.1864 -1.0489 -1.3325
  180SLPC   C3720628   5.582   3.877   9.975 -0.8201 -0.0918 -0.3849
  180SLPC   H7X20629   5.565   3.767   9.976 -1.7402  0.0476  0.6163
  180SLPC   H7Y20630   5.681   3.902   9.930 -1.1545  1.6852 -0.2202
  180SLPC   C3820631   5.472   3.952   9.900 -0.0958  0.4885  0.0682
  180SLPC   H8X20632   5.483   4.060   9.925  0.2680  0.3189  0.6518
  180SLPC   H8Y20633   5.372   3.925   9.942 -0.9923  0.2922 -2.0841
  180SLPC   C3920634   5.475   3.943   9.748  1.0091 -0.6266 -0.6902
  180SLPC   H9X20635   5.485   3.839   9.710  0.9006 -0.4806 -1.1226
  180SLPC   H9Y20636   5.560   4.000   9.704  0.8678 -0.1795 -0.3913
  180SLPC  C31020637   5.349   4.008   9.681  0.3079  0.7604  0.2060
  180SLPC  H10X20638   5.350   4.111   9.722  3.2661  1.5504 -1.5495
  180SLPC  H10Y20639   5.260   3.950   9.715  0.8163 -1.2507 -1.6708
  180SLPC  C31120640   5.354   4.008   9.531  0.2531  0.1012  0.1682
  180SLPC  H11X20641   5.375   3.907   9.489  2.1615 -0.0979  1.4954
  180SLPC  H11Y20642   5.435   4.076   9.497  0.9772  0.7613  2.9903
  180SLPC  C31220643   5.223   4.052   9.463 -0.1236  0.4033 -0.0303
  180SLPC  H12X20644   5.216   4.162   9.480 -1.5298  0.4417 -0.7621
  180SLPC  H12Y20645   5.139   4.002   9.514 -0.8279 -0.5257 -1.9919
  180SLPC  C31320646   5.216   4.025   9.312 -0.1750 -0.2600 -0.0253
  180SLPC  H13X20647   5.218   3.914   9.299  2.2432 -0.3709  0.7429
  180SLPC  H13Y20648   5.305   4.062   9.257 -0.8386  2.0109  0.3356
  180SLPC  C31420649   5.094   4.087   9.242 -0.3754 -0.2765 -0.1240
  180SLPC  H14X20650   5.071   4.183   9.293 -0.1595 -0.8981  1.1808
  180SLPC  H14Y20651   5.008   4.018   9.255 -0.6727 -0.5663 -2.9758
  180SLPC  C31520652   5.130   4.115   9.099  0.0266 -0.0549  0.4011
  180SLPC  H15X20653   5.171   4.028   9.043  2.1451  0.9967  0.2393
  180SLPC  H15Y20654   5.221   4.178   9.100  1.0540 -1.4746 -0.2990
  180SLPC  C31620655   5.010   4.158   9.010 -0.4962 -0.3713  0.4799
  180SLPC  H16X20656   4.970   4.255   9.045 -1.5151 -0.9614  0.9996
  180SLPC  H16Y20657   4.933   4.080   9.029 -0.8569 -0.1068  0.1153
  180SLPC  C31720658   5.049   4.155   8.858 -0.6954 -0.0643 -0.3063
  180SLPC  H17X20659   5.105   4.066   8.823  1.0462  0.6295  0.5879
  180SLPC  H17Y20660   5.134   4.227   8.850 -0.7051 -0.1563 -1.3397
  180SLPC  C31820661   4.941   4.195   8.759 -0.7620  0.6467 -0.5545
  180SLPC  H18X20662   4.913   4.302   8.766  3.1465  1.6933  2.6008
  180SLPC  H18Y20663   4.850   4.132   8.771 -2.3411  2.9071 -0.1076
  180SLPC  H18Z20664   4.983   4.197   8.656 -5.2660 -0.8495 -2.7132
  181SLPC     N20665   1.676   2.640  11.271 -0.9189  0.7295  0.2539
  181SLPC   C1320666   1.686   2.745  11.377 -0.1809  0.3227  0.8347
  181SLPC  H13A20667   1.737   2.706  11.464 -0.9882 -0.2705  1.0510
  181SLPC  H13B20668   1.741   2.834  11.350 -1.1320  0.7178  0.1480
  181SLPC  H13C20669   1.588   2.786  11.393 -0.7324 -0.2134 -0.9167
  181SLPC   C1420670   1.592   2.531  11.329 -0.0732 -0.1491  0.0154
  181SLPC  H14A20671   1.494   2.567  11.356  0.3065  0.7831  0.1881
  181SLPC  H14B20672   1.578   2.451  11.258 -3.7111  1.4964 -1.3553
  181SLPC  H14C20673   1.643   2.493  11.417  0.4010 -1.4254 -0.7872
  181SLPC   C1520674   1.817   2.592  11.247 -0.2157  0.4464 -0.2800
  181SLPC  H15A20675   1.873   2.588  11.340  0.4407  4.6410 -0.3343
  181SLPC  H15B20676   1.824   2.500  11.191 -0.2489  0.0683  0.3258
  181SLPC  H15C20677   1.874   2.667  11.195  0.3592  0.0184 -0.2801
  181SLPC   C1220678   1.620   2.695  11.145 -0.3752 -0.7920  0.6935
  181SLPC  H12A20679   1.617   2.629  11.060 -0.6408 -0.4025  0.3998
  181SLPC  H12B20680   1.695   2.765  11.110  1.4834 -2.4397  1.2062
  181SLPC   C1120681   1.496   2.786  11.150 -0.1501 -0.1620 -1.2194
  181SLPC  H11A20682   1.420   2.732  11.211  1.6084 -1.2688  0.0796
  181SLPC  H11B20683   1.461   2.791  11.044  0.5732 -0.8152 -1.4944
  181SLPC     P20684   1.627   3.011  11.135 -0.1849 -0.3097  0.0103
  181SLPC   O1320685   1.546   3.124  11.086  0.2541  0.1045  0.2593
  181SLPC   O1420686   1.730   3.042  11.237  0.6634  0.7856  0.9806
  181SLPC   O1220687   1.528   2.918  11.209 -0.6592 -0.6066  0.4994
  181SLPC   O1120688   1.686   2.938  11.018  0.1443  0.3703  0.4513
  181SLPC    C120689   1.757   3.015  10.915  0.2754  1.3432 -0.0392
  181SLPC    HA20690   1.686   3.096  10.883 -0.7775 -0.4224 -2.5282
  181SLPC    HB20691   1.852   3.052  10.959 -0.5153  1.6369  1.4584
  181SLPC    C220692   1.799   2.935  10.789  0.3410  0.4013 -0.5451
  181SLPC    HS20693   1.884   2.864  10.797 -0.6591 -0.9972 -1.7255
  181SLPC   O2120694   1.815   3.027  10.681  0.3247  0.0254  0.5863
  181SLPC   C2120695   1.922   3.003  10.603 -0.3398 -0.0164  0.6762
  181SLPC   O2220696   2.015   2.927  10.631 -0.4588 -0.0919  0.4438
  181SLPC   C2220697   1.908   3.078  10.474 -0.9423 -0.0973 -0.1940
  181SLPC   H2R20698   1.801   3.075  10.445 -1.1107  1.6779  0.1545
  181SLPC   H2S20699   1.947   3.181  10.482  0.1674 -0.5186  0.0095
  181SLPC    C320700   1.678   2.850  10.743 -0.5569 -0.1757 -0.3307
  181SLPC    HX20701   1.599   2.921  10.711 -2.9855 -0.0245  4.8751
  181SLPC    HY20702   1.632   2.792  10.826 -0.0626 -0.4891 -0.2699
  181SLPC   O3120703   1.719   2.747  10.647 -0.3707  0.1287 -0.0182
  181SLPC   C3120704   1.616   2.690  10.588  0.0898 -0.2760 -0.2328
  181SLPC   O3220705   1.499   2.708  10.614 -0.3122  0.1400  0.3089
  181SLPC   C3220706   1.664   2.610  10.478 -0.0865  0.2179  0.3706
  181SLPC   H2X20707   1.577   2.552  10.440  1.2513  0.1191 -2.8934
  181SLPC   H2Y20708   1.740   2.538  10.518 -0.1999  0.4798  1.0758
  181SLPC   C2320709   2.005   3.016  10.374 -0.3811  0.3192  0.1966
  181SLPC   H3R20710   1.986   2.907  10.358 -1.1946  0.5512 -0.5184
  181SLPC   H3S20711   2.107   3.022  10.416  0.7787  0.6102 -2.4549
  181SLPC   C2420712   1.994   3.091  10.244 -0.3066  0.2457 -0.5619
  181SLPC   H4R20713   2.088   3.071  10.190  0.5875  0.2470  0.9239
  181SLPC   H4S20714   1.985   3.200  10.266  2.0488 -0.0963  3.0741
  181SLPC   C2520715   1.883   3.037  10.155 -0.2369 -0.3824 -0.3017
  181SLPC   H5R20716   1.787   3.043  10.210  0.7575 -2.0195  1.7691
  181SLPC   H5S20717   1.895   2.929  10.132  0.5026 -0.6546  1.2198
  181SLPC   C2620718   1.872   3.115  10.026  0.6322 -0.0914  0.1019
  181SLPC   H6R20719   1.972   3.120   9.979 -0.5125  2.8113 -2.4233
  181SLPC   H6S20720   1.860   3.221  10.059  1.6985  0.1399 -0.2224
  181SLPC   C2720721   1.762   3.063   9.928  0.0055  0.6798  0.3896
  181SLPC   H7R20722   1.791   2.960   9.899  0.5245  0.8574  0.2753
  181SLPC   H7S20723   1.762   3.136   9.844 -0.7434  0.8060  0.4870
  181SLPC   C2820724   1.623   3.065   9.992  0.1419  0.3637 -0.1166
  181SLPC   H8R20725   1.616   2.988  10.071 -1.1265  3.1975  2.7223
  181SLPC   H8S20726   1.556   3.028   9.911  0.0357 -0.1121  0.1871
  181SLPC   C2920727   1.584   3.199  10.042  0.0962  0.4139 -0.6209
  181SLPC   H9R20728   1.635   3.220  10.137  1.7857 -0.3487 -1.3083
  181SLPC  C21020729   1.509   3.296   9.983  0.2926 -0.2036 -0.5582
  181SLPC  H10R20730   1.503   3.389  10.041 -0.9714 -1.7720  2.0104
  181SLPC  C21120731   1.438   3.296   9.848 -0.0704 -0.3935 -0.7671
  181SLPC  H11R20732   1.513   3.243   9.787  0.2737 -0.4953 -0.2597
  181SLPC  H11S20733   1.431   3.402   9.813 -0.8775  0.8440  2.6488
  181SLPC  C21220734   1.302   3.222   9.847  0.6132 -0.6501 -0.9470
  181SLPC  H12R20735   1.240   3.245   9.935  0.7033  0.0314 -1.0622
  181SLPC  C21320736   1.257   3.128   9.759  0.1955  0.5747 -0.5508
  181SLPC  H13R20737   1.159   3.083   9.779  0.5446 -0.9513 -2.0574
  181SLPC  C21420738   1.334   3.068   9.648  0.3726 -1.4320  0.5902
  181SLPC  H14R20739   1.326   2.958   9.662 -1.3720 -1.4792 -0.5489
  181SLPC  H14S20740   1.442   3.092   9.661  0.6416 -1.6581 -0.9826
  181SLPC  C21520741   1.297   3.112   9.503 -0.1697 -0.1226 -0.8478
  181SLPC  H15R20742   1.378   3.078   9.436 -0.2279 -0.8285 -0.5673
  181SLPC  H15S20743   1.290   3.223   9.505  0.5344 -0.0793 -0.2856
  181SLPC  C21620744   1.165   3.058   9.455 -0.4661 -0.5307  0.1898
  181SLPC  H16R20745   1.085   3.119   9.502  0.6367  0.4201  0.9041
  181SLPC  H16S20746   1.150   2.949   9.475  1.5263 -1.0352 -0.8229
  181SLPC  C21720747   1.157   3.060   9.302 -0.4661 -0.2876  0.3623
  181SLPC  H17R20748   1.242   3.007   9.254 -0.8278  0.1653 -0.8219
  181SLPC  H17S20749   1.153   3.160   9.253  0.4988 -0.3267  0.1780
  181SLPC  C21820750   1.032   2.990   9.256 -0.9451 -0.7760 -0.2143
  181SLPC  H18R20751   1.024   2.981   9.145 -1.0169 -0.0184 -0.2736
  181SLPC  H18S20752   0.940   3.042   9.290  0.5431  1.9006 -0.0443
  181SLPC  H18T20753   1.011   2.884   9.285 -2.3577 -0.5491 -0.3439
  181SLPC   C3320754   1.711   2.697  10.364  0.4955 -0.2491  0.7968
  181SLPC   H3X20755   1.786   2.772  10.397  0.7930 -0.2522  0.1489
  181SLPC   H3Y20756   1.624   2.757  10.330  0.6011 -0.3710  0.3052
  181SLPC   C3420757   1.774   2.620  10.258  0.2517  0.2959  0.4422
  181SLPC   H4X20758   1.843   2.545  10.303  0.5818  0.7590  0.7137
  181SLPC   H4Y20759   1.839   2.691  10.203 -1.1063  0.0360 -1.5947
  181SLPC   C3520760   1.665   2.553  10.173  0.2368 -0.0245  0.4003
  181SLPC   H5X20761   1.624   2.623  10.096  0.2966  0.7926  1.0992
  181SLPC   H5Y20762   1.584   2.528  10.244  2.1736 -4.1432  1.4514
  181SLPC   C3620763   1.713   2.419  10.101  0.1539 -0.1395 -0.7660
  181SLPC   H6X20764   1.768   2.360  10.178  0.9570  1.6901  0.1470
  181SLPC   H6Y20765   1.778   2.441  10.014  1.6826 -0.4510  0.2434
  181SLPC   C3720766   1.598   2.330  10.055  0.2952 -0.3826 -0.1204
  181SLPC   H7X20767   1.503   2.366  10.102 -0.4419  0.6663 -2.2678
  181SLPC   H7Y20768   1.614   2.224  10.085  1.2906 -0.4059 -0.6860
  181SLPC   C3820769   1.583   2.339   9.905 -0.2113 -0.0332  0.1141
  181SLPC   H8X20770   1.518   2.251   9.885 -0.9655  0.1449  1.6577
  181SLPC   H8Y20771   1.678   2.312   9.854  0.1968 -0.9566  1.3367
  181SLPC   C3920772   1.528   2.468   9.844  0.3440  0.4676  0.1319
  181SLPC   H9X20773   1.607   2.545   9.851  0.0093  0.7201  1.3763
  181SLPC   H9Y20774   1.440   2.498   9.905  0.9888  2.1521  0.2795
  181SLPC  C31020775   1.483   2.436   9.702 -0.4164 -0.3472  0.0370
  181SLPC  H10X20776   1.427   2.525   9.668 -0.2884 -0.3497 -0.1786
  181SLPC  H10Y20777   1.414   2.349   9.704  3.6739 -3.9749 -0.5676
  181SLPC  C31120778   1.606   2.405   9.609  0.3581  0.2967 -0.0037
  181SLPC  H11X20779   1.562   2.376   9.511 -1.1358  0.0014  0.7237
  181SLPC  H11Y20780   1.655   2.312   9.644 -1.3299 -0.5431  0.2090
  181SLPC  C31220781   1.708   2.525   9.604  0.8601  0.7715 -0.1944
  181SLPC  H12X20782   1.753   2.529   9.705 -0.4624 -0.1938  0.4632
  181SLPC  H12Y20783   1.662   2.624   9.584  3.6052  2.3144  0.5455
  181SLPC  C31320784   1.814   2.506   9.495  0.0423 -0.5323 -0.8641
  181SLPC  H13X20785   1.873   2.599   9.503  0.8810 -1.1767  0.9350
  181SLPC  H13Y20786   1.766   2.505   9.395  0.0650  3.1375 -1.0505
  181SLPC  C31420787   1.908   2.380   9.504  0.1922 -0.4231 -0.3533
  181SLPC  H14X20788   1.846   2.288   9.511  1.3131 -1.0953  2.1212
  181SLPC  H14Y20789   1.965   2.388   9.599 -2.7463 -1.7295  1.6700
  181SLPC  C31520790   2.018   2.366   9.385  0.1190 -0.2935 -0.0047
  181SLPC  H15X20791   2.075   2.461   9.398 -2.0260  0.9936  0.5257
  181SLPC  H15Y20792   1.972   2.365   9.284 -0.5356 -0.5112  0.2907
  181SLPC  C31620793   2.085   2.237   9.399 -0.3644  0.7873  0.3465
  181SLPC  H16X20794   2.014   2.154   9.419 -0.7022 -0.2035 -3.9062
  181SLPC  H16Y20795   2.157   2.254   9.482  0.0600  0.2529  0.0995
  181SLPC  C31720796   2.179   2.194   9.285  0.4335 -0.2190 -0.2621
  181SLPC  H17X20797   2.245   2.281   9.272  0.2479 -0.1732 -0.9157
  181SLPC  H17Y20798   2.125   2.182   9.189  0.1150  0.8450 -0.2231
  181SLPC  C31820799   2.263   2.065   9.325  0.0750  0.3890 -0.0101
  181SLPC  H18X20800   2.343   2.062   9.248 -0.5272  1.7523 -0.7305
  181SLPC  H18Y20801   2.211   1.968   9.340  0.7631  0.2240  1.4607
  181SLPC  H18Z20802   2.304   2.092   9.424  1.3273 -0.4776 -0.2701
  182SLPC     N20803   3.056   5.037  11.102 -0.4919  0.2021  0.4577
  182SLPC   C1320804   2.918   5.059  11.140  0.2302 -0.3221  0.2147
  182SLPC  H13A20805   2.857   4.984  11.092  1.2917 -0.6581 -0.6421
  182SLPC  H13B20806   2.903   5.042  11.246  0.7356  0.5739  0.4375
  182SLPC  H13C20807   2.883   5.152  11.097  0.4885 -1.3410 -2.3499
  182SLPC   C1420808   3.072   4.893  11.129 -0.6440 -0.3176 -0.1229
  182SLPC  H14A20809   3.056   4.883  11.236 -0.3437  1.9059  0.1889
  182SLPC  H14B20810   2.996   4.833  11.081 -1.1257 -0.5353  0.8738
  182SLPC  H14C20811   3.167   4.853  11.098 -0.1185 -0.5645  1.6613
  182SLPC   C1520812   3.151   5.121  11.188 -0.3530  0.2095  0.5555
  182SLPC  H15A20813   3.254   5.105  11.161 -1.1492  0.0826 -2.8778
  182SLPC  H15B20814   3.121   5.225  11.185 -3.3385 -0.5490 -1.6729
  182SLPC  H15C20815   3.143   5.095  11.292 -0.5699  1.7473  0.9398
  182SLPC   C1220816   3.086   5.066  10.958  0.1215 -0.0200  0.0629
  182SLPC  H12A20817   3.188   5.033  10.942 -0.1167 -1.0672  0.6124
  182SLPC  H12B20818   3.091   5.172  10.940 -1.4103  0.8300  3.7471
  182SLPC   C1120819   2.999   4.998  10.846  0.1293 -0.8459 -0.8668
  182SLPC  H11A20820   2.989   4.893  10.880  1.2173 -0.8993 -0.6693
  182SLPC  H11B20821   3.062   4.993  10.754  0.7377  1.9047 -0.6779
  182SLPC     P20822   2.761   4.988  10.757  0.4277 -0.1949  0.0854
  182SLPC   O1320823   2.738   4.870  10.845  0.5829  0.0075  0.0220
  182SLPC   O1420824   2.653   5.084  10.737  0.4423  0.0687 -0.4464
  182SLPC   O1220825   2.882   5.072  10.810  0.7029 -0.1932 -0.2688
  182SLPC   O1120826   2.820   4.924  10.622 -0.4865 -0.2082 -0.2366
  182SLPC    C120827   2.856   5.015  10.515 -0.1129 -0.3218 -0.1261
  182SLPC    HA20828   2.896   5.113  10.547 -0.4450 -0.6195  1.2392
  182SLPC    HB20829   2.944   4.973  10.460 -1.0963 -1.4028 -0.9418
  182SLPC    C220830   2.736   5.025  10.415  0.4884 -0.4187 -0.4147
  182SLPC    HS20831   2.649   5.061  10.473  0.6241  0.1021 -0.5325
  182SLPC   O2120832   2.707   4.904  10.351 -0.0631 -0.2309 -0.0984
  182SLPC   C2120833   2.619   4.828  10.417  0.0105 -0.6313  0.2662
  182SLPC   O2220834   2.537   4.865  10.498 -0.6331  0.6300 -0.4980
  182SLPC   C2220835   2.647   4.690  10.381  0.1068 -0.1568  0.4326
  182SLPC   H2R20836   2.755   4.665  10.371  0.2286  0.9231 -1.3509
  182SLPC   H2S20837   2.617   4.615  10.458  2.4525  0.0937  1.6961
  182SLPC    C320838   2.753   5.144  10.318 -0.2637 -0.1887  0.4891
  182SLPC    HX20839   2.807   5.224  10.373  0.0880  0.3976 -0.6716
  182SLPC    HY20840   2.652   5.178  10.287 -0.5880 -0.0539  1.6505
  182SLPC   O3120841   2.828   5.100  10.202  0.0175 -0.8522  0.0586
  182SLPC   C3120842   2.772   5.085  10.087 -0.2340  0.0845  0.1121
  182SLPC   O3220843   2.656   5.109  10.057 -0.3512  0.1492 -0.2264
  182SLPC   C3220844   2.879   5.047   9.982  0.2164  0.1648  0.0421
  182SLPC   H2X20845   2.901   4.940  10.003  1.6294  0.1398 -1.3849
  182SLPC   H2Y20846   2.974   5.099  10.007  0.4621 -1.2411  2.2689
  182SLPC   C2320847   2.573   4.657  10.248  0.2128 -0.7720 -0.3436
  182SLPC   H3R20848   2.465   4.674  10.270  0.3781  0.3032 -0.3051
  182SLPC   H3S20849   2.576   4.548  10.228  1.8832 -0.6997 -0.5747
  182SLPC   C2420850   2.601   4.739  10.117  0.4429  0.5835  0.2801
  182SLPC   H4R20851   2.711   4.752  10.103  0.2441  0.9834 -1.0971
  182SLPC   H4S20852   2.545   4.834  10.122 -2.7129 -1.1378  0.3920
  182SLPC   C2520853   2.544   4.655  10.001  0.3409  0.2424  0.3108
  182SLPC   H5R20854   2.444   4.611  10.021  0.3077  0.2987  0.2666
  182SLPC   H5S20855   2.603   4.563   9.981  1.7439  0.9587  0.9970
  182SLPC   C2620856   2.540   4.739   9.875  0.0689  0.2164 -0.1588
  182SLPC   H6R20857   2.626   4.808   9.883  2.5248 -2.6944  0.5407
  182SLPC   H6S20858   2.452   4.805   9.860  1.2162  1.8852  0.2438
  182SLPC   C2720859   2.549   4.646   9.747  0.1556 -0.8550  0.0227
  182SLPC   H7R20860   2.448   4.599   9.751 -1.2906  1.8994 -1.4954
  182SLPC   H7S20861   2.648   4.595   9.751  2.9732  4.0745  1.1357
  182SLPC   C2820862   2.531   4.731   9.617 -0.0973 -0.7589 -0.2223
  182SLPC   H8R20863   2.617   4.801   9.623 -0.7831  0.0341  0.5604
  182SLPC   H8S20864   2.446   4.791   9.654 -0.0835 -2.7005  3.3737
  182SLPC   C2920865   2.503   4.656   9.482  0.3286 -0.5542 -0.2957
  182SLPC   H9R20866   2.402   4.613   9.484  0.6760 -1.3735  2.0576
  182SLPC  C21020867   2.583   4.634   9.377 -0.0358 -0.1350 -0.1154
  182SLPC  H10R20868   2.533   4.588   9.290  1.1130  0.0663 -0.9104
  182SLPC  C21120869   2.730   4.665   9.370  0.1771 -0.1695  0.2433
  182SLPC  H11R20870   2.791   4.587   9.420 -0.5049  0.9152  2.9714
  182SLPC  H11S20871   2.765   4.758   9.420 -0.0118  0.0030  0.0575
  182SLPC  C21220872   2.789   4.681   9.230 -0.0556  0.6014 -0.0674
  182SLPC  H12R20873   2.834   4.780   9.217 -0.0692  0.7710  1.0664
  182SLPC  C21320874   2.807   4.585   9.132 -0.5752 -0.1288  0.2597
  182SLPC  H13R20875   2.854   4.610   9.035 -0.5854 -2.0545 -0.2909
  182SLPC  C21420876   2.758   4.440   9.141 -0.0169  0.5315 -0.0411
  182SLPC  H14R20877   2.675   4.431   9.067 -1.6569  1.7995  1.5577
  182SLPC  H14S20878   2.720   4.426   9.244  1.4335  2.3654  0.7801
  182SLPC  C21520879   2.862   4.321   9.116 -0.2627 -0.0586  0.0188
  182SLPC  H15R20880   2.946   4.343   9.185 -1.0830 -1.5923  1.5946
  182SLPC  H15S20881   2.909   4.329   9.015 -1.1039 -0.3423 -0.4023
  182SLPC  C21620882   2.808   4.177   9.141 -0.1709 -0.3757 -0.1698
  182SLPC  H16R20883   2.745   4.173   9.232  0.0759 -0.3675 -0.0001
  182SLPC  H16S20884   2.900   4.124   9.173  0.8020  0.8293 -0.8557
  182SLPC  C21720885   2.731   4.115   9.023 -0.0728 -0.4874 -0.2860
  182SLPC  H17R20886   2.793   4.131   8.932  0.4711  2.3937  0.4848
  182SLPC  H17S20887   2.640   4.174   9.000  0.6673  0.5456 -0.7131
  182SLPC  C21820888   2.692   3.967   9.047  0.2021  0.5640  0.1685
  182SLPC  H18R20889   2.624   3.962   9.135  0.3115  3.3775  0.5235
  182SLPC  H18S20890   2.785   3.915   9.079 -0.0671  0.8463  1.4307
  182SLPC  H18T20891   2.641   3.919   8.961  1.6176 -1.4731  0.4102
  182SLPC   C3320892   2.831   5.051   9.839 -0.1763 -0.1554  0.3551
  182SLPC   H3X20893   2.826   5.156   9.804  1.0744  0.1682  1.0961
  182SLPC   H3Y20894   2.734   4.996   9.829  0.1629 -0.7520  0.3035
  182SLPC   C3420895   2.931   4.976   9.747  0.2702  0.0077  1.4167
  182SLPC   H4X20896   2.925   4.867   9.763  1.1954  0.2321  3.6696
  182SLPC   H4Y20897   3.031   5.007   9.786  0.7920  0.2856 -0.0530
  182SLPC   C3520898   2.925   5.030   9.596 -0.1631  0.2325 -1.1222
  182SLPC   H5X20899   2.898   5.137   9.583  0.4868  0.4533 -0.7188
  182SLPC   H5Y20900   2.831   4.985   9.556 -0.8143 -1.9681  2.4038
  182SLPC   C3620901   3.028   4.990   9.497 -0.0495  0.3195 -0.5203
  182SLPC   H6X20902   3.047   4.881   9.511 -1.4633 -0.1768 -2.1011
  182SLPC   H6Y20903   3.122   5.048   9.510 -0.2095  0.2455  1.1725
  182SLPC   C3720904   2.994   5.000   9.345  0.4715  0.0314  0.0431
  182SLPC   H7X20905   2.981   5.104   9.308 -2.0764 -1.2693 -3.2304
  182SLPC   H7Y20906   2.895   4.952   9.326  0.7824  0.2069 -2.2773
  182SLPC   C3820907   3.101   4.934   9.259  0.4561  0.1176  0.3249
  182SLPC   H8X20908   3.131   4.828   9.274  0.6086  0.3933  2.1792
  182SLPC   H8Y20909   3.199   4.980   9.283 -0.0783  2.2799 -1.3323
  182SLPC   C3920910   3.081   4.944   9.106  0.8566  0.8345 -0.5807
  182SLPC   H9X20911   3.037   5.045   9.091  0.5515  1.2540  2.5430
  182SLPC   H9Y20912   2.997   4.877   9.077 -0.3274  0.3259  3.4153
  182SLPC  C31020913   3.207   4.941   9.030 -0.1980  0.2662 -0.3571
  182SLPC  H10X20914   3.240   4.836   9.040 -0.0864  0.4872  2.5830
  182SLPC  H10Y20915   3.277   5.001   9.093 -1.6128  1.8246 -0.1725
  182SLPC  C31120916   3.211   4.992   8.888 -0.5874 -0.0365  0.4948
  182SLPC  H11X20917   3.319   4.992   8.861 -0.5086  0.2631  0.8030
  182SLPC  H11Y20918   3.165   5.093   8.879 -1.5892 -0.4225  1.1765
  182SLPC  C31220919   3.150   4.890   8.789  0.1015 -0.1504 -0.0625
  182SLPC  H12X20920   3.042   4.872   8.809  0.4782 -0.9320  1.4080
  182SLPC  H12Y20921   3.201   4.792   8.787 -0.8254 -0.6407 -1.7967
  182SLPC  C31320922   3.150   4.932   8.639  0.1201 -0.2935 -0.0487
  182SLPC  H13X20923   3.078   5.016   8.624 -1.5873 -2.0598 -2.6567
  182SLPC  H13Y20924   3.108   4.843   8.587 -0.9271  1.0433 -1.6084
  182SLPC  C31420925   3.277   4.974   8.555  0.2398  0.8900 -0.0848
  182SLPC  H14X20926   3.285   5.083   8.570  2.5970  0.7714 -0.1668
  182SLPC  H14Y20927   3.238   4.969   8.451  1.3683  0.1355 -0.4967
  182SLPC  C31520928   3.403   4.896   8.566 -0.1135  0.5049  0.0267
  182SLPC  H15X20929   3.376   4.795   8.528  0.3466  0.6288 -0.6495
  182SLPC  H15Y20930   3.454   4.874   8.662  0.8604 -2.7014 -1.0960
  182SLPC  C31620931   3.505   4.940   8.460 -1.1729 -0.1745  0.2506
  182SLPC  H16X20932   3.554   5.032   8.499  0.0485  0.4226 -2.4531
  182SLPC  H16Y20933   3.462   4.967   8.361  0.8594  1.1601 -0.3416
  182SLPC  C31720934   3.626   4.845   8.461  0.0081  1.0313  0.9771
  182SLPC  H17X20935   3.678   4.835   8.559  0.8572 -0.0218  0.4376
  182SLPC  H17Y20936   3.705   4.876   8.391 -0.7709  1.8004  0.4175
  182SLPC  C31820937   3.590   4.696   8.422  0.6161 -0.1133 -0.0891
  182SLPC  H18X20938   3.680   4.639   8.391  1.1687 -0.3230  1.7960
  182SLPC  H18Y20939   3.517   4.693   8.338  1.0149 -0.8656 -0.4193
  182SLPC  H18Z20940   3.546   4.650   8.513  3.5207  0.0504  1.5019
  183SLPC     N20941   5.426   6.244  10.754  0.3191  0.4583 -0.1387
  183SLPC   C1320942   5.463   6.300  10.890  0.5141 -0.2156  0.4027
  183SLPC  H13A20943   5.374   6.324  10.946  0.4949  1.2080 -0.2013
  183SLPC  H13B20944   5.520   6.223  10.940  1.4994 -0.0756 -0.4712
  183SLPC  H13C20945   5.522   6.387  10.866 -0.9932  0.0851 -2.7289
  183SLPC   C1420946   5.341   6.355  10.690  1.0179  0.0302  0.5954
  183SLPC  H14A20947   5.241   6.371  10.730  1.3382  1.0432  1.0247
  183SLPC  H14B20948   5.397   6.448  10.692  0.2736  0.4941  0.2516
  183SLPC  H14C20949   5.322   6.332  10.587  1.6049  2.0806 -0.0288
  183SLPC   C1520950   5.340   6.127  10.766  0.2635  0.0552 -0.1147
  183SLPC  H15A20951   5.247   6.148  10.818  0.7862 -0.0194  0.8735
  183SLPC  H15B20952   5.311   6.082  10.672  1.6668  2.0650 -1.6184
  183SLPC  H15C20953   5.392   6.054  10.825  1.2304  1.8246  1.3398
  183SLPC   C1220954   5.552   6.216  10.667  0.2189 -0.3979 -0.3595
  183SLPC  H12A20955   5.572   6.312  10.621  2.0138 -1.3234 -1.6312
  183SLPC  H12B20956   5.532   6.163  10.575  0.0839 -1.5989  0.3555
  183SLPC   C1120957   5.675   6.148  10.735  0.3385  0.4749  0.1175
  183SLPC  H11A20958   5.709   6.222  10.811  1.0383 -0.1332  0.4113
  183SLPC  H11B20959   5.760   6.125  10.666  0.5535 -1.8770  1.0793
  183SLPC     P20960   5.610   5.897  10.698 -0.4142  0.2827 -0.0131
  183SLPC   O1320961   5.736   5.821  10.692  0.2518  0.2467  0.3227
  183SLPC   O1420962   5.497   5.827  10.759 -0.0396  1.0010  0.5052
  183SLPC   O1220963   5.640   6.024  10.792 -0.2406  0.5895  0.6096
  183SLPC   O1120964   5.578   5.954  10.554 -0.6560  0.6617 -0.4741
  183SLPC    C120965   5.456   5.929  10.487 -0.1778 -0.4524 -0.5398
  183SLPC    HA20966   5.372   5.898  10.554 -1.3809  2.4739 -0.5634
  183SLPC    HB20967   5.417   6.020  10.438 -1.8936 -0.9919 -0.2388
  183SLPC    C220968   5.483   5.833  10.372  0.6581 -0.4890  0.3251
  183SLPC    HS20969   5.386   5.821  10.319  0.5146  2.4867 -0.2633
  183SLPC   O2120970   5.554   5.715  10.407  0.0480 -0.3932 -0.5296
  183SLPC   C2120971   5.480   5.617  10.446  0.6840  1.0118 -0.7294
  183SLPC   O2220972   5.360   5.616  10.449  1.0301 -0.2482  0.1905
  183SLPC   C2220973   5.566   5.497  10.494  0.4366 -0.0986  0.1566
  183SLPC   H2R20974   5.575   5.521  10.602 -0.1115 -1.5943  0.5507
  183SLPC   H2S20975   5.490   5.416  10.501  0.5706 -0.4195 -1.5484
  183SLPC    C320976   5.564   5.910  10.265 -0.7097  0.5081 -0.1290
  183SLPC    HX20977   5.666   5.918  10.307 -0.4641 -1.3921 -0.2948
  183SLPC    HY20978   5.517   6.010  10.251 -2.6383 -0.3068  0.2349
  183SLPC   O3120979   5.570   5.847  10.135 -0.7115 -0.0105  0.0196
  183SLPC   C3120980   5.676   5.766  10.115 -0.2075 -0.7836  0.3592
  183SLPC   O3220981   5.771   5.747  10.191  0.9057  0.9404 -0.4440
  183SLPC   C3220982   5.654   5.703   9.980  0.9302 -0.4922 -0.7048
  183SLPC   H2X20983   5.580   5.762   9.923  0.2852 -1.2178 -0.6326
  183SLPC   H2Y20984   5.611   5.604  10.008 -2.1326  0.7032 -0.8808
  183SLPC   C2320985   5.694   5.470  10.428  0.3265 -0.4087 -0.5067
  183SLPC   H3R20986   5.746   5.388  10.482 -0.2257  0.4563  1.4329
  183SLPC   H3S20987   5.762   5.557  10.438 -0.5779  0.0985  1.7546
  183SLPC   C2420988   5.682   5.437  10.274 -0.2270  0.5357 -0.0912
  183SLPC   H4R20989   5.777   5.460  10.221  0.1449  0.1777  0.4093
  183SLPC   H4S20990   5.603   5.494  10.221  0.2042 -0.8297 -2.3372
  183SLPC   C2520991   5.653   5.287  10.247 -0.4820 -0.4972 -0.4066
  183SLPC   H5R20992   5.566   5.242  10.299  0.6607 -2.3097  0.0237
  183SLPC   H5S20993   5.749   5.236  10.270 -0.6226 -0.7572 -0.3962
  183SLPC   C2620994   5.636   5.266  10.097 -0.4375 -0.4335  0.6495
  183SLPC   H6R20995   5.713   5.322  10.041 -0.1378 -1.1671  0.3108
  183SLPC   H6S20996   5.531   5.295  10.075 -0.1753 -0.1494 -0.2682
  183SLPC   C2720997   5.659   5.115  10.053 -0.1024  0.0783 -0.5754
  183SLPC   H7R20998   5.561   5.071  10.028  0.2196 -0.4718 -0.8920
  183SLPC   H7S20999   5.711   5.062  10.136  1.0874  1.7447 -0.1908
  183SLPC   C2821000   5.769   5.099   9.946  0.6690  0.0862  0.0708
  183SLPC   H8R21001   5.783   4.993   9.916  0.7429  0.5625 -1.6409
  183SLPC   H8S21002   5.866   5.140   9.979 -0.7364  2.2073  1.8350
  183SLPC   C2921003   5.734   5.168   9.815  1.0577 -0.3762 -0.1841
  183SLPC   H9R21004   5.689   5.267   9.833  2.1053 -0.0566  0.7955
  183SLPC  C21021005   5.739   5.124   9.684  0.1078 -0.4804  0.0841
  183SLPC  H10R21006   5.697   5.190   9.606 -0.3122  1.7211  2.0620
  183SLPC  C21121007   5.797   5.002   9.632  0.7272  0.1010 -0.2748
  183SLPC  H11R21008   5.746   4.925   9.694  0.9149  0.0622 -0.1699
  183SLPC  H11S21009   5.904   4.983   9.650  0.6686  1.2418  1.4510
  183SLPC  C21221010   5.765   4.984   9.481 -0.2517  0.7754 -0.4946
  183SLPC  H12R21011   5.677   4.922   9.456  1.3626 -1.8248 -0.1478
  183SLPC  C21321012   5.848   5.027   9.385  1.0670  0.6383  0.7799
  183SLPC  H13R21013   5.818   5.019   9.279  1.7690  1.9861  0.4576
  183SLPC  C21421014   5.975   5.107   9.392 -0.2311  0.1177 -0.6597
  183SLPC  H14R21015   5.993   5.150   9.493 -2.5780 -1.4479  0.5045
  183SLPC  H14S21016   5.953   5.192   9.324 -2.1696 -0.7705 -1.2192
  183SLPC  C21521017   6.109   5.040   9.360 -0.1855 -1.0423 -0.1659
  183SLPC  H15R21018   6.132   4.967   9.441  0.5701  0.2322  0.8139
  183SLPC  H15S21019   6.180   5.125   9.368 -0.5921 -0.4418 -2.2667
  183SLPC  C21621020   6.125   4.979   9.225 -0.5769  0.3518 -0.9433
  183SLPC  H16R21021   6.067   5.045   9.157 -1.1668  1.3313  0.4604
  183SLPC  H16S21022   6.071   4.882   9.221  0.3150 -0.1806 -0.4522
  183SLPC  C21721023   6.263   4.952   9.182 -0.3000 -0.5879 -0.1251
  183SLPC  H17R21024   6.316   4.895   9.262  0.1764 -1.4041 -1.0104
  183SLPC  H17S21025   6.315   5.050   9.174 -0.5098  0.0204  3.7955
  183SLPC  C21821026   6.273   4.897   9.037  0.2134  0.5246  0.4501
  183SLPC  H18R21027   6.252   4.977   8.963 -1.2286 -2.1094 -2.2102
  183SLPC  H18S21028   6.203   4.815   9.010  0.3236  0.5915 -0.0530
  183SLPC  H18T21029   6.377   4.874   9.007  0.0222 -0.9312  0.8034
  183SLPC   C3321030   5.783   5.701   9.906 -0.3575  0.2324 -0.3305
  183SLPC   H3X21031   5.863   5.644   9.957 -1.7505 -2.0762 -0.5827
  183SLPC   H3Y21032   5.812   5.807   9.890 -0.0505  0.0301 -1.1349
  183SLPC   C3421033   5.757   5.633   9.767  0.3875  0.5871  0.2397
  183SLPC   H4X21034   5.663   5.670   9.721 -0.1100 -0.2382  0.5664
  183SLPC   H4Y21035   5.730   5.527   9.787 -2.1251  0.7083 -2.0198
  183SLPC   C3521036   5.874   5.650   9.670 -0.4005 -0.2615  0.6536
  183SLPC   H5X21037   5.965   5.595   9.702 -0.4710 -1.6336 -1.3695
  183SLPC   H5Y21038   5.906   5.756   9.657  1.0665 -0.7343  0.3132
  183SLPC   C3621039   5.831   5.589   9.529  0.1291  0.3133 -0.0499
  183SLPC   H6X21040   5.761   5.663   9.484 -2.2195 -2.4341 -1.2005
  183SLPC   H6Y21041   5.777   5.499   9.564 -0.4424  2.0202  4.1839
  183SLPC   C3721042   5.949   5.542   9.440 -0.7635 -0.6183 -0.2387
  183SLPC   H7X21043   6.016   5.481   9.506 -1.0443 -2.7789 -1.8407
  183SLPC   H7Y21044   6.007   5.635   9.419 -1.0030 -0.3821  0.1294
  183SLPC   C3821045   5.912   5.476   9.309  0.2220 -0.0897  0.2840
  183SLPC   H8X21046   5.852   5.532   9.235 -1.4286 -1.2825  0.6749
  183SLPC   H8Y21047   5.859   5.380   9.324 -1.8746  0.3143 -3.4028
  183SLPC   C3921048   6.041   5.440   9.224  0.1142  0.2212  0.6369
  183SLPC   H9X21049   6.118   5.381   9.279  0.4619  0.0514 -0.0135
  183SLPC   H9Y21050   6.101   5.530   9.200  0.4982 -0.0804  0.4582
  183SLPC  C31021051   6.000   5.388   9.088 -0.6767  0.6925 -0.5713
  183SLPC  H10X21052   5.945   5.465   9.030 -2.8151 -0.6974 -0.5004
  183SLPC  H10Y21053   5.939   5.297   9.106 -1.6875  0.8093 -3.0371
  183SLPC  C31121054   6.122   5.340   9.004  0.4304 -0.3904 -0.1647
  183SLPC  H11X21055   6.174   5.255   9.055 -3.7278 -2.6282  0.7820
  183SLPC  H11Y21056   6.193   5.423   8.984  0.1526  0.5469  2.4460
  183SLPC  C31221057   6.068   5.278   8.877 -0.0601 -0.3678  0.0156
  183SLPC  H12X21058   6.017   5.346   8.806  1.8427 -0.6655 -1.7380
  183SLPC  H12Y21059   6.002   5.190   8.890 -0.2811 -0.8636 -3.4889
  183SLPC  C31321060   6.192   5.227   8.793 -0.1857 -0.4271  0.1700
  183SLPC  H13X21061   6.263   5.180   8.864  0.6549 -1.5025 -1.3365
  183SLPC  H13Y21062   6.237   5.321   8.756 -3.1178 -0.0256 -2.9643
  183SLPC  C31421063   6.169   5.122   8.683 -0.4195  0.0670  0.2857
  183SLPC  H14X21064   6.077   5.154   8.629 -0.0897 -0.3194 -0.5142
  183SLPC  H14Y21065   6.148   5.023   8.731  0.8746 -1.3743 -1.9560
  183SLPC  C31521066   6.280   5.105   8.577  0.0389  0.0294  1.0449
  183SLPC  H15X21067   6.295   5.201   8.524 -0.8964  1.5711  3.4196
  183SLPC  H15Y21068   6.247   5.020   8.513  1.8648 -1.0234  1.4130
  183SLPC  C31621069   6.414   5.062   8.631 -0.3503 -0.1556 -0.3078
  183SLPC  H16X21070   6.411   4.972   8.696  0.9901 -1.2365 -1.6659
  183SLPC  H16Y21071   6.451   5.138   8.703 -0.5272 -0.4198  0.0633
  183SLPC  C31721072   6.522   5.040   8.519  0.4436 -0.1955 -0.7367
  183SLPC  H17X21073   6.542   5.134   8.464  2.6273 -0.3618 -0.3191
  183SLPC  H17Y21074   6.488   4.973   8.437  1.8683 -2.2742  0.2788
  183SLPC  C31821075   6.658   4.996   8.568 -0.5713  0.1614  0.1081
  183SLPC  H18X21076   6.719   4.981   8.476 -1.4005 -1.3336 -0.2331
  183SLPC  H18Y21077   6.647   4.900   8.624  1.0746 -0.6011 -0.7713
  183SLPC  H18Z21078   6.711   5.066   8.636 -0.4341 -0.0921  0.2675
  184SLPC     N21079   1.594   0.683  10.796  0.1305  0.6685 -0.1640
  184SLPC   C1321080   1.643   0.749  10.918 -0.4374  0.3942  0.3064
  184SLPC  H13A21081   1.746   0.728  10.944 -0.7694 -2.2969 -0.2287
  184SLPC  H13B21082   1.650   0.857  10.911  2.0094  0.3411  1.0467
  184SLPC  H13C21083   1.587   0.721  11.006  1.2472  0.7020  1.5209
  184SLPC   C1421084   1.616   0.536  10.805 -0.7900  0.0029  0.5060
  184SLPC  H14A21085   1.590   0.492  10.710  0.6235 -1.0988  0.6012
  184SLPC  H14B21086   1.717   0.511  10.835 -0.1891  0.4982 -0.9707
  184SLPC  H14C21087   1.551   0.488  10.876 -0.8712 -0.3194  0.2180
  184SLPC   C1521088   1.682   0.731  10.691 -0.1699 -0.9056  0.1972
  184SLPC  H15A21089   1.684   0.685  10.593 -0.5950 -1.4388  0.4305
  184SLPC  H15B21090   1.655   0.834  10.676 -1.3417 -1.5023 -2.3127
  184SLPC  H15C21091   1.785   0.737  10.720  0.8103 -1.6446 -2.7730
  184SLPC   C1221092   1.452   0.721  10.770  0.3892  0.4426 -0.1826
  184SLPC  H12A21093   1.441   0.824  10.800  0.1483  0.0606  1.0831
  184SLPC  H12B21094   1.393   0.663  10.838  0.0337 -0.0444 -0.8919
  184SLPC   C1121095   1.397   0.710  10.621  0.1734  0.3885  0.3342
  184SLPC  H11A21096   1.473   0.767  10.563  1.4453 -3.3882 -2.0538
  184SLPC  H11B21097   1.294   0.748  10.608  0.3376  1.5607  2.1492
  184SLPC     P21098   1.296   0.479  10.574  0.1284  0.2709 -0.2381
  184SLPC   O1321099   1.346   0.342  10.528  0.1626 -0.6393 -0.5716
  184SLPC   O1421100   1.210   0.479  10.697  0.7361  0.2730 -0.7309
  184SLPC   O1221101   1.418   0.576  10.587 -0.1829  0.6014  0.5529
  184SLPC   O1121102   1.205   0.554  10.464  0.0031 -0.2967  0.1014
  184SLPC    C121103   1.264   0.585  10.336 -0.0533 -0.4343 -0.1844
  184SLPC    HA21104   1.235   0.684  10.295  1.7438  0.0302 -0.4398
  184SLPC    HB21105   1.374   0.596  10.346 -0.0319  1.3124 -1.8943
  184SLPC    C221106   1.230   0.487  10.223 -0.5688  0.0609 -0.8300
  184SLPC    HS21107   1.256   0.384  10.259 -2.3200 -0.8719 -2.0837
  184SLPC   O2121108   1.302   0.526  10.108 -0.1278 -0.1459  0.1466
  184SLPC   C2121109   1.419   0.462  10.095  0.2310 -0.8644 -0.1468
  184SLPC   O2221110   1.459   0.363  10.154 -0.2473 -0.1673  0.0346
  184SLPC   C2221111   1.497   0.534   9.990  0.2731 -0.6038  0.2168
  184SLPC   H2R21112   1.525   0.637  10.021  0.4505 -0.2437 -1.0780
  184SLPC   H2S21113   1.593   0.482   9.970  1.3831  1.1473  0.7459
  184SLPC    C321114   1.075   0.494  10.190  0.1738  0.1337 -0.2940
  184SLPC    HX21115   1.052   0.597  10.154 -0.7279  0.0350 -0.0286
  184SLPC    HY21116   1.012   0.484  10.281 -1.5400  0.9227 -1.3496
  184SLPC   O3121117   1.034   0.383  10.096 -0.1888  0.0610  0.0847
  184SLPC   C3121118   0.909   0.405  10.058  0.0098  0.1152 -0.0535
  184SLPC   O3221119   0.844   0.506  10.086 -0.3492  0.3637 -0.3281
  184SLPC   C3221120   0.850   0.295   9.975 -0.2653  0.3074 -0.1082
  184SLPC   H2X21121   0.779   0.247  10.046  1.6175  0.2248  1.8262
  184SLPC   H2Y21122   0.928   0.224   9.941 -0.9879  1.1311 -3.8499
  184SLPC   C2321123   1.417   0.540   9.857 -0.2415 -0.3635 -0.4524
  184SLPC   H3R21124   1.448   0.621   9.788 -2.8903  0.0271 -1.3145
  184SLPC   H3S21125   1.312   0.568   9.881  0.1634  0.1010  0.8859
  184SLPC   C2421126   1.432   0.406   9.774  0.1909 -0.3439 -0.0375
  184SLPC   H4R21127   1.394   0.317   9.829 -0.1484 -0.9054 -1.1582
  184SLPC   H4S21128   1.541   0.387   9.768  0.3698  0.4364  0.5059
  184SLPC   C2521129   1.357   0.402   9.635 -0.3352  0.5603  0.1820
  184SLPC   H5R21130   1.250   0.431   9.639  0.0535  2.5113 -1.7615
  184SLPC   H5S21131   1.362   0.294   9.610  1.4314 -0.3231  3.6224
  184SLPC   C2621132   1.427   0.486   9.529 -0.7144 -0.7235 -0.8100
  184SLPC   H6R21133   1.536   0.463   9.522  0.0876  1.9670  1.1022
  184SLPC   H6S21134   1.420   0.591   9.565 -0.5119 -0.7220 -0.7722
  184SLPC   C2721135   1.363   0.470   9.392  0.1691  0.3843  0.7897
  184SLPC   H7R21136   1.263   0.511   9.418  1.1120  2.3305  1.5893
  184SLPC   H7S21137   1.366   0.365   9.356 -0.2396  0.0188  1.8042
  184SLPC   C2821138   1.421   0.570   9.290  0.5687 -0.3259  0.3455
  184SLPC   H8R21139   1.423   0.673   9.333 -1.3893  0.2905 -0.9486
  184SLPC   H8S21140   1.360   0.589   9.200 -2.1198  2.1810  2.4845
  184SLPC   C2921141   1.558   0.527   9.251 -0.2888 -0.0301 -0.2467
  184SLPC   H9R21142   1.630   0.548   9.330 -0.3309 -2.4041  0.5021
  184SLPC  C21021143   1.600   0.458   9.141  0.5542 -0.2520 -1.1213
  184SLPC  H10R21144   1.702   0.418   9.133  0.6151 -0.0129 -1.5413
  184SLPC  C21121145   1.513   0.436   9.024  0.4511  0.0073  0.0944
  184SLPC  H11R21146   1.417   0.390   9.056  0.0976 -0.4179 -1.4565
  184SLPC  H11S21147   1.562   0.359   8.960 -1.6073 -0.4284 -1.0275
  184SLPC  C21221148   1.467   0.560   8.952 -0.1565  0.2358  0.2416
  184SLPC  H12R21149   1.445   0.651   9.010 -0.2723  2.0379 -2.4301
  184SLPC  C21321150   1.432   0.567   8.820  0.1495 -0.0921  0.4729
  184SLPC  H13R21151   1.415   0.666   8.775 -0.4472 -1.2587 -2.0853
  184SLPC  C21421152   1.448   0.458   8.723 -0.0448 -0.9267  0.1024
  184SLPC  H14R21153   1.362   0.454   8.653 -1.3663  1.0733  1.5076
  184SLPC  H14S21154   1.446   0.361   8.777  2.9705 -0.5566  1.0770
  184SLPC  C21521155   1.584   0.460   8.643  0.7028  0.2638  0.0867
  184SLPC  H15R21156   1.583   0.554   8.583  1.1768 -1.4802 -2.8483
  184SLPC  H15S21157   1.570   0.385   8.562  0.5433 -0.4151  0.7373
  184SLPC  C21621158   1.713   0.439   8.714  0.0967 -0.5427 -0.1212
  184SLPC  H16R21159   1.702   0.363   8.794 -0.5069  1.1365  1.4469
  184SLPC  H16S21160   1.755   0.528   8.766 -1.1878 -0.0594  0.1290
  184SLPC  C21721161   1.835   0.385   8.631 -0.1765 -0.0356 -0.3473
  184SLPC  H17R21162   1.858   0.473   8.568  1.8683 -1.2350 -1.3625
  184SLPC  H17S21163   1.800   0.307   8.560 -0.8611 -2.1264  2.1155
  184SLPC  C21821164   1.947   0.339   8.718 -0.8582  0.0277  0.1415
  184SLPC  H18R21165   1.987   0.424   8.779 -0.9068  0.1162  0.0508
  184SLPC  H18S21166   2.032   0.300   8.660  0.7210  2.1575  0.8676
  184SLPC  H18T21167   1.912   0.265   8.793  0.2198  0.5421  1.1936
  184SLPC   C3321168   0.762   0.341   9.847 -0.1707  0.3235 -1.3363
  184SLPC   H3X21169   0.701   0.428   9.879  0.4076 -0.5493  2.5950
  184SLPC   H3Y21170   0.707   0.252   9.810  0.9313  0.2888 -3.0070
  184SLPC   C3421171   0.847   0.377   9.722 -0.7169 -0.5737  0.3410
  184SLPC   H4X21172   0.917   0.460   9.747 -3.8011  2.5384 -0.5574
  184SLPC   H4Y21173   0.776   0.425   9.650  0.5638 -0.0503 -0.6175
  184SLPC   C3521174   0.917   0.260   9.658  0.3969  0.4174  0.0201
  184SLPC   H5X21175   0.842   0.181   9.635 -0.0377  1.0767 -0.9405
  184SLPC   H5Y21176   0.998   0.221   9.723 -0.4498  1.1598  1.5844
  184SLPC   C3621177   0.981   0.310   9.534 -0.4606  0.3916 -0.2866
  184SLPC   H6X21178   1.091   0.296   9.545 -0.3392  0.4103 -1.3823
  184SLPC   H6Y21179   0.975   0.420   9.522  1.5070  0.4679 -0.9741
  184SLPC   C3721180   0.935   0.256   9.394 -0.0254 -0.0967  0.1607
  184SLPC   H7X21181   0.825   0.271   9.386  0.1961  1.6726  0.0001
  184SLPC   H7Y21182   0.952   0.147   9.384  1.8708  0.3051 -1.7199
  184SLPC   C3821183   0.989   0.321   9.268 -0.3046  0.3579 -0.4753
  184SLPC   H8X21184   0.976   0.254   9.180 -0.4198  0.0265 -0.2111
  184SLPC   H8Y21185   1.097   0.344   9.280 -0.0519 -1.9682  3.2687
  184SLPC   C3921186   0.919   0.460   9.236  0.2840  0.4447 -0.2761
  184SLPC   H9X21187   0.924   0.537   9.315  0.6827  2.2141 -1.9591
  184SLPC   H9Y21188   0.814   0.427   9.219  0.3335  1.6210 -3.6184
  184SLPC  C31021189   0.989   0.519   9.109 -0.6712  0.3615  0.3717
  184SLPC  H10X21190   0.980   0.450   9.022  1.8796  1.0836 -0.5356
  184SLPC  H10Y21191   1.099   0.525   9.124 -0.6179 -2.7139  2.1899
  184SLPC  C31121192   0.951   0.659   9.074  0.0331  0.1485 -0.4231
  184SLPC  H11X21193   0.983   0.717   9.163 -0.5860  0.4532 -0.3959
  184SLPC  H11Y21194   0.843   0.678   9.056 -0.3530 -0.1070  1.4968
  184SLPC  C31221195   1.040   0.722   8.963  0.0383  0.1742 -0.4358
  184SLPC  H12X21196   1.076   0.649   8.887  1.7624  1.9566 -1.4146
  184SLPC  H12Y21197   1.128   0.766   9.014  1.4235  1.8099 -3.8810
  184SLPC  C31321198   0.952   0.824   8.884 -0.1453 -0.7062  0.7872
  184SLPC  H13X21199   0.888   0.887   8.950 -1.9227  0.4420 -1.8407
  184SLPC  H13Y21200   0.891   0.766   8.812  0.4252  1.0388 -1.2084
  184SLPC  C31421201   1.050   0.911   8.792  0.5011 -0.9463 -0.4044
  184SLPC  H14X21202   1.115   0.843   8.733  0.6356 -0.5524 -0.7231
  184SLPC  H14Y21203   1.123   0.965   8.857 -0.7301  0.4447 -0.1052
  184SLPC  C31521204   0.980   1.021   8.709 -0.3202  0.4316 -0.1307
  184SLPC  H15X21205   0.900   1.062   8.774 -2.6042 -1.9671 -1.2432
  184SLPC  H15Y21206   0.918   0.976   8.629 -0.3772  2.0553 -1.0464
  184SLPC  C31621207   1.072   1.135   8.659  0.5564 -0.0580  0.5372
  184SLPC  H16X21208   1.140   1.076   8.595 -2.5772 -2.8169 -0.4981
  184SLPC  H16Y21209   1.126   1.171   8.749 -1.1699 -2.1850  2.5477
  184SLPC  C31721210   1.009   1.250   8.576 -0.4665  0.2516  0.0303
  184SLPC  H17X21211   1.092   1.310   8.534  0.7069 -0.0491  1.8111
  184SLPC  H17Y21212   0.948   1.318   8.639  0.2363  1.1727 -0.2603
  184SLPC  C31821213   0.921   1.204   8.456 -0.1439  0.7346 -0.5313
  184SLPC  H18X21214   0.829   1.148   8.483 -0.1716 -0.2739 -2.5000
  184SLPC  H18Y21215   0.982   1.145   8.384  1.0594  1.8442 -0.4687
  184SLPC  H18Z21216   0.889   1.293   8.396 -0.4746  0.9298 -0.0678
  185SLPC     N21217   2.573   5.283   6.314 -0.4890  0.4360  0.0300
  185SLPC   C1321218   2.526   5.245   6.177  0.3414 -0.1397  0.2936
  185SLPC  H13A21219   2.478   5.333   6.137 -1.5688  0.4343  3.5184
  185SLPC  H13B21220   2.609   5.211   6.116  0.3523  0.0908  0.1754
  185SLPC  H13C21221   2.441   5.179   6.170 -2.0878  2.8390 -1.0776
  185SLPC   C1421222   2.469   5.377   6.383  0.5143  0.7220  0.2107
  185SLPC  H14A21223   2.416   5.448   6.321 -0.9413 -0.9160 -0.5008
  185SLPC  H14B21224   2.402   5.308   6.432  0.4426 -1.5128 -2.7489
  185SLPC  H14C21225   2.528   5.444   6.443  1.6236 -0.1235  0.0967
  185SLPC   C1521226   2.693   5.374   6.286  0.2769 -0.0752 -0.2439
  185SLPC  H15A21227   2.670   5.455   6.218  1.3762  2.8750  2.6216
  185SLPC  H15B21228   2.734   5.426   6.372  3.1639 -2.2454 -0.1754
  185SLPC  H15C21229   2.779   5.319   6.252  1.4110  0.9441  0.8255
  185SLPC   C1221230   2.618   5.171   6.408  0.1716  0.3008 -0.2091
  185SLPC  H12A21231   2.649   5.217   6.500 -2.5033  2.1920 -0.1218
  185SLPC  H12B21232   2.698   5.125   6.352  0.4161  0.8012 -0.2791
  185SLPC   C1121233   2.522   5.054   6.446  0.5801 -0.7753 -0.1759
  185SLPC  H11A21234   2.463   5.093   6.532  3.1597  0.9060  0.9688
  185SLPC  H11B21235   2.593   4.977   6.484  0.4806 -0.6700  0.2319
  185SLPC     P21236   2.306   4.993   6.326  0.3712 -0.0546 -0.0780
  185SLPC   O1321237   2.240   5.119   6.289 -0.0372  0.1032 -0.6668
  185SLPC   O1421238   2.285   4.877   6.237  0.4834 -0.0520  0.0156
  185SLPC   O1221239   2.459   5.013   6.323 -0.1270 -0.5564 -0.0267
  185SLPC   O1121240   2.266   4.956   6.477 -0.1131  0.1210 -0.1205
  185SLPC    C121241   2.236   4.816   6.507 -0.1225 -0.1639  0.2121
  185SLPC    HA21242   2.155   4.774   6.444  0.7184 -0.2626 -0.8289
  185SLPC    HB21243   2.325   4.750   6.499  1.2569  1.5533  0.8059
  185SLPC    C221244   2.181   4.802   6.650  0.3629 -0.2009  0.0450
  185SLPC    HS21245   2.086   4.857   6.663 -0.9282 -2.0665 -0.9685
  185SLPC   O2121246   2.288   4.835   6.743  0.8125  0.2868  0.3683
  185SLPC   C2121247   2.267   4.940   6.818 -0.6298  0.0139 -0.2351
  185SLPC   O2221248   2.184   5.020   6.808  0.1186 -0.2561 -0.1925
  185SLPC   C2221249   2.391   4.956   6.908 -0.4403  0.3306  0.4400
  185SLPC   H2R21250   2.443   4.858   6.905  0.4587  0.8121 -0.0045
  185SLPC   H2S21251   2.470   5.023   6.867 -0.5386  1.0221  1.3500
  185SLPC    C321252   2.138   4.660   6.678 -0.2797 -0.1279  0.0608
  185SLPC    HX21253   2.224   4.592   6.659 -0.4448  0.0713 -1.5894
  185SLPC    HY21254   2.068   4.633   6.596  1.7742 -0.0849 -1.8343
  185SLPC   O3121255   2.078   4.635   6.801 -0.4609  0.0193 -0.0103
  185SLPC   C3121256   1.943   4.645   6.802  0.1751 -0.5538  0.8175
  185SLPC   O3221257   1.881   4.704   6.715  0.5060 -0.4462  0.1411
  185SLPC   C3221258   1.896   4.571   6.921  0.6683 -1.3956 -0.4527
  185SLPC   H2X21259   1.936   4.467   6.918  0.2924 -1.5970  0.8021
  185SLPC   H2Y21260   1.785   4.568   6.916  0.5590  1.0367 -0.7210
  185SLPC   C2321261   2.347   4.977   7.054 -0.0861 -0.5774  0.7003
  185SLPC   H3R21262   2.292   5.074   7.054  1.3817  0.3169  2.7257
  185SLPC   H3S21263   2.443   4.983   7.110  0.2840 -6.3077  1.2187
  185SLPC   C2421264   2.271   4.856   7.111  0.2130 -0.6334 -0.6507
  185SLPC   H4R21265   2.313   4.761   7.074 -2.0758 -1.0535 -2.4504
  185SLPC   H4S21266   2.172   4.855   7.060 -0.7266  0.5465  1.0281
  185SLPC   C2521267   2.278   4.856   7.260  0.3599  0.1128 -0.0472
  185SLPC   H5R21268   2.383   4.872   7.291 -0.2331  2.0766  1.1882
  185SLPC   H5S21269   2.244   4.759   7.303  0.4341 -0.5893 -1.5200
  185SLPC   C2621270   2.188   4.961   7.331  0.1721 -0.1340 -0.2888
  185SLPC   H6R21271   2.088   4.968   7.283  0.0462 -0.9325 -0.1609
  185SLPC   H6S21272   2.229   5.062   7.313 -1.5240  0.8167  0.9670
  185SLPC   C2721273   2.164   4.932   7.480  0.0525 -0.9680 -0.2888
  185SLPC   H7R21274   2.124   4.829   7.494  0.5990 -0.9240  2.1138
  185SLPC   H7S21275   2.096   5.003   7.534 -0.0515 -1.4789  0.2605
  185SLPC   C2821276   2.299   4.936   7.569 -0.2472 -0.2954  0.3436
  185SLPC   H8R21277   2.360   4.858   7.517 -0.9016 -0.0656 -0.7982
  185SLPC   H8S21278   2.276   4.896   7.671  2.4652 -1.5641  0.5496
  185SLPC   C2921279   2.359   5.081   7.575 -0.1815  0.0678 -0.4226
  185SLPC   H9R21280   2.388   5.122   7.477 -1.6247 -0.6276 -1.1782
  185SLPC  C21021281   2.395   5.140   7.690  0.2939  0.1103  0.1322
  185SLPC  H10R21282   2.433   5.243   7.686 -0.4439  0.4341  0.9390
  185SLPC  C21121283   2.365   5.098   7.829  0.1003  0.2484 -0.4726
  185SLPC  H11R21284   2.270   5.040   7.834  1.3279 -1.7700  1.9566
  185SLPC  H11S21285   2.359   5.187   7.894  1.4118  0.2616 -0.3444
  185SLPC  C21221286   2.462   4.996   7.877 -0.3349  0.0773  0.0598
  185SLPC  H12R21287   2.526   4.944   7.805  0.9399 -1.2011  2.0123
  185SLPC  C21321288   2.487   4.971   8.005 -0.1974 -0.3667 -0.1163
  185SLPC  H13R21289   2.568   4.901   8.030 -0.2984 -0.7413 -0.8331
  185SLPC  C21421290   2.413   5.022   8.127 -0.3192  0.2409  1.1040
  185SLPC  H14R21291   2.326   5.087   8.104 -0.7278  0.2231  2.5420
  185SLPC  H14S21292   2.475   5.073   8.203 -1.6267  1.4175  1.4178
  185SLPC  C21521293   2.356   4.898   8.198 -0.2536  1.1471 -0.1410
  185SLPC  H15R21294   2.424   4.812   8.215 -1.7942  0.3976  3.0286
  185SLPC  H15S21295   2.277   4.862   8.129  0.9018  2.5906 -2.3395
  185SLPC  C21621296   2.294   4.925   8.340  0.1057 -0.6874 -0.5149
  185SLPC  H16R21297   2.221   5.009   8.342  1.8493  0.8874  0.7500
  185SLPC  H16S21298   2.378   4.967   8.399  0.0062 -1.0206 -0.1326
  185SLPC  C21721299   2.256   4.801   8.422  1.2416 -0.0944 -0.3347
  185SLPC  H17R21300   2.333   4.721   8.418 -0.0112 -1.4024  0.6589
  185SLPC  H17S21301   2.163   4.755   8.382  1.6893  0.1456 -1.7183
  185SLPC  C21821302   2.233   4.838   8.571 -0.2627  0.3830 -0.4392
  185SLPC  H18R21303   2.191   4.750   8.624 -0.7339  0.7107 -0.2634
  185SLPC  H18S21304   2.159   4.920   8.574  1.0118  1.5451  0.1965
  185SLPC  H18T21305   2.327   4.869   8.621 -0.4694 -1.0857  0.9704
  185SLPC   C3321306   1.939   4.640   7.050  0.1564  0.1223  0.2870
  185SLPC   H3X21307   1.893   4.741   7.056  2.0499  0.9851  1.7091
  185SLPC   H3Y21308   2.049   4.657   7.054  0.0063  1.5447 -0.9095
  185SLPC   C3421309   1.900   4.557   7.172 -0.8050  0.2757 -0.1608
  185SLPC   H4X21310   1.939   4.454   7.153 -0.5197 -0.0076  1.7413
  185SLPC   H4Y21311   1.792   4.539   7.155 -0.9458  0.0870  0.8845
  185SLPC   C3521312   1.933   4.615   7.315 -0.0464  0.9680  0.3179
  185SLPC   H5X21313   1.868   4.705   7.320 -0.6729  0.7872 -2.8019
  185SLPC   H5Y21314   2.036   4.657   7.321 -0.0995  1.1488 -0.0190
  185SLPC   C3621315   1.912   4.516   7.434  0.0535 -0.2392 -0.0347
  185SLPC   H6X21316   1.970   4.421   7.441  1.2577  0.5581  1.8045
  185SLPC   H6Y21317   1.810   4.473   7.422  1.0740 -2.7128 -0.5416
  185SLPC   C3721318   1.929   4.589   7.572 -0.2245  0.9629 -0.0651
  185SLPC   H7X21319   1.853   4.670   7.578 -0.2652  0.9687 -0.5558
  185SLPC   H7Y21320   2.024   4.646   7.588  0.7277 -1.2992  3.4993
  185SLPC   C3821321   1.931   4.481   7.685 -0.1361  0.0558  0.0378
  185SLPC   H8X21322   2.007   4.403   7.665  0.8211  1.0162 -0.2113
  185SLPC   H8Y21323   1.834   4.430   7.697  0.6387 -0.9532  2.8205
  185SLPC   C3921324   1.974   4.547   7.813  0.3371  0.9730 -0.2070
  185SLPC   H9X21325   1.894   4.600   7.868 -0.7289 -0.3016 -0.4630
  185SLPC   H9Y21326   2.055   4.622   7.802  3.8793 -2.5504 -0.5224
  185SLPC  C31021327   2.029   4.442   7.917 -0.4819  0.1672 -0.0261
  185SLPC  H10X21328   2.115   4.388   7.871  1.1317  2.2935  0.2901
  185SLPC  H10Y21329   1.942   4.379   7.945 -0.5684 -0.0611 -0.8006
  185SLPC  C31121330   2.068   4.498   8.051 -0.9968 -0.6760 -0.6448
  185SLPC  H11X21331   1.980   4.560   8.078 -0.1210 -0.0401  0.8709
  185SLPC  H11Y21332   2.157   4.563   8.049  0.7888 -2.7679  2.3343
  185SLPC  C31221333   2.124   4.396   8.147  0.3452 -0.0424 -0.3365
  185SLPC  H12X21334   2.220   4.353   8.111  0.0300 -1.4204  0.3766
  185SLPC  H12Y21335   2.065   4.302   8.140 -1.8722  1.4091 -3.1320
  185SLPC  C31321336   2.138   4.455   8.291  0.5978 -1.0254  0.2044
  185SLPC  H13X21337   2.035   4.482   8.324  0.5315  0.4996 -1.1377
  185SLPC  H13Y21338   2.178   4.558   8.294 -1.6177 -0.1273  0.4870
  185SLPC  C31421339   2.215   4.361   8.377  0.0872 -0.0672 -0.6188
  185SLPC  H14X21340   2.318   4.337   8.343 -0.3036 -0.9384 -1.2550
  185SLPC  H14Y21341   2.167   4.262   8.360  1.5073 -0.4732 -2.6458
  185SLPC  C31521342   2.219   4.413   8.515 -0.6616  0.2811  0.7843
  185SLPC  H15X21343   2.112   4.437   8.531 -0.6703  0.3625  0.5974
  185SLPC  H15Y21344   2.278   4.507   8.514 -0.4854  0.1738  0.8577
  185SLPC  C31621345   2.274   4.312   8.622  0.2397 -0.2581  0.9799
  185SLPC  H16X21346   2.255   4.211   8.580 -1.8268  0.6795 -0.5291
  185SLPC  H16Y21347   2.226   4.326   8.721  1.7533  0.6154  1.6224
  185SLPC  C31721348   2.427   4.324   8.639 -0.2370  0.3402 -0.0328
  185SLPC  H17X21349   2.457   4.427   8.669 -1.3150  0.7226 -0.2277
  185SLPC  H17Y21350   2.460   4.314   8.534 -2.0071 -0.6226 -0.5410
  185SLPC  C31821351   2.485   4.208   8.725 -0.2916 -0.0487  0.0677
  185SLPC  H18X21352   2.596   4.217   8.721 -0.0715 -2.1586  0.6316
  185SLPC  H18Y21353   2.455   4.111   8.681 -0.1485 -0.2472  0.4008
  185SLPC  H18Z21354   2.462   4.218   8.833  0.7007  2.0183  0.1396
  186SLPC     N21355   6.708   6.434   5.992 -0.0488  0.6037  0.3534
  186SLPC   C1321356   6.648   6.573   5.996  0.3712 -0.4203  0.1921
  186SLPC  H13A21357   6.583   6.586   5.910  1.9184  2.3032 -0.6785
  186SLPC  H13B21358   6.602   6.582   6.093 -0.1230 -1.0821  0.0308
  186SLPC  H13C21359   6.730   6.643   5.999  0.0593  0.0373 -1.2781
  186SLPC   C1421360   6.804   6.435   5.876  0.0015  0.1410  0.0961
  186SLPC  H14A21361   6.875   6.354   5.880 -1.7416 -1.4408  0.3768
  186SLPC  H14B21362   6.744   6.430   5.787 -1.4665 -1.6786  1.1084
  186SLPC  H14C21363   6.857   6.529   5.875 -0.0472  0.2027 -2.3018
  186SLPC   C1521364   6.587   6.343   5.965 -0.5316 -0.1582 -0.6644
  186SLPC  H15A21365   6.616   6.240   5.957  1.7563  0.3413  0.3260
  186SLPC  H15B21366   6.537   6.348   6.061  0.2610  0.5352 -0.2791
  186SLPC  H15C21367   6.530   6.366   5.876 -2.1765  2.8161  0.9760
  186SLPC   C1221368   6.783   6.405   6.121 -0.0958  0.4980  0.1711
  186SLPC  H12A21369   6.851   6.484   6.145  0.4924 -0.1804  0.7861
  186SLPC  H12B21370   6.830   6.308   6.108 -0.8086  0.2402 -0.5943
  186SLPC   C1121371   6.708   6.390   6.262 -0.5635 -0.2127 -0.6686
  186SLPC  H11A21372   6.784   6.386   6.343  1.4935  0.7631 -2.4469
  186SLPC  H11B21373   6.664   6.288   6.262 -0.4188 -0.3149  1.4679
  186SLPC     P21374   6.657   6.631   6.356 -0.2307  0.2374  0.0420
  186SLPC   O1321375   6.787   6.676   6.298  0.3369  0.3172  0.1693
  186SLPC   O1421376   6.538   6.720   6.350  0.1328  0.1249  0.0410
  186SLPC   O1221377   6.612   6.494   6.292  0.6802  0.8709  0.4576
  186SLPC   O1121378   6.690   6.595   6.508 -0.6080 -0.2845 -0.4580
  186SLPC    C121379   6.594   6.602   6.606  0.2520  0.3488 -0.8148
  186SLPC    HA21380   6.511   6.670   6.577 -0.5089 -1.2538 -2.6948
  186SLPC    HB21381   6.548   6.501   6.622 -0.9224  0.8678 -0.7752
  186SLPC    C221382   6.650   6.666   6.732 -0.2643  0.5507  0.0662
  186SLPC    HS21383   6.673   6.771   6.703 -0.9937  0.6154 -0.3195
  186SLPC   O2121384   6.762   6.585   6.791  0.0284  0.1362  0.1194
  186SLPC   C2121385   6.857   6.659   6.832  1.0237 -0.2258 -0.3568
  186SLPC   O2221386   6.868   6.776   6.818  1.3286  0.0293  0.0691
  186SLPC   C2221387   6.957   6.571   6.903  0.5379  0.1160 -0.0882
  186SLPC   H2R21388   6.904   6.480   6.938  1.9715 -0.8618 -0.3778
  186SLPC   H2S21389   7.035   6.534   6.834  0.1175  0.6763 -0.8769
  186SLPC    C321390   6.534   6.690   6.837 -0.2390  1.0198 -0.6607
  186SLPC    HX21391   6.474   6.597   6.824  1.8516 -0.4150 -0.5145
  186SLPC    HY21392   6.470   6.777   6.812  1.1106  2.1632 -0.2607
  186SLPC   O3121393   6.572   6.684   6.977  0.3277 -0.4205 -0.6367
  186SLPC   C3121394   6.595   6.807   7.020  0.0503 -0.6418 -0.4263
  186SLPC   O3221395   6.598   6.906   6.951  0.3212  0.4964  0.2060
  186SLPC   C3221396   6.634   6.804   7.167  0.1735 -0.4738  0.5278
  186SLPC   H2X21397   6.743   6.821   7.158  0.2318 -1.1071 -0.0758
  186SLPC   H2Y21398   6.605   6.712   7.223  0.6120 -1.3816 -0.6822
  186SLPC   C2321399   7.027   6.647   7.022  0.0609  0.1606  0.0736
  186SLPC   H3R21400   6.998   6.753   7.002 -2.4193 -0.3848  0.5237
  186SLPC   H3S21401   7.137   6.633   7.014  0.0274  0.9931 -3.0427
  186SLPC   C2421402   6.973   6.592   7.156  0.8993 -0.3432 -0.4200
  186SLPC   H4R21403   7.016   6.491   7.170 -2.0053 -1.5080  1.1156
  186SLPC   H4S21404   6.863   6.573   7.153  0.9728 -0.7013 -2.3695
  186SLPC   C2521405   7.013   6.669   7.281 -0.2553 -0.4537  0.2960
  186SLPC   H5R21406   7.000   6.777   7.260  0.9402 -0.3506  0.0203
  186SLPC   H5S21407   7.124   6.665   7.279 -0.0786  0.7493 -4.2753
  186SLPC   C2621408   6.952   6.631   7.419 -0.1541  0.6090 -0.5970
  186SLPC   H6R21409   6.980   6.525   7.431 -2.4436 -0.1657 -1.4879
  186SLPC   H6S21410   6.841   6.623   7.421 -0.4763  3.4893  2.2872
  186SLPC   C2721411   6.986   6.703   7.552  0.2654 -0.0633 -0.0852
  186SLPC   H7R21412   6.916   6.686   7.636  1.5781 -1.7219  0.7205
  186SLPC   H7S21413   6.974   6.808   7.519 -0.0391 -0.1229 -0.1617
  186SLPC   C2821414   7.131   6.678   7.600  0.5542 -0.0782  0.7908
  186SLPC   H8R21415   7.201   6.657   7.516  1.3817 -0.7319  1.6373
  186SLPC   H8S21416   7.124   6.583   7.656 -1.5196 -0.8695 -0.6685
  186SLPC   C2921417   7.197   6.790   7.678 -1.1335 -0.4283 -0.2652
  186SLPC   H9R21418   7.209   6.887   7.627  1.5263 -0.6975 -0.2603
  186SLPC  C21021419   7.236   6.799   7.807 -0.2444 -0.9852 -0.2952
  186SLPC  H10R21420   7.280   6.897   7.831  0.0441 -0.9268 -1.0366
  186SLPC  C21121421   7.230   6.689   7.911  0.3114 -0.9151  0.2172
  186SLPC  H11R21422   7.242   6.600   7.845  2.1124  0.5929 -1.6230
  186SLPC  H11S21423   7.132   6.687   7.963  0.1679 -0.4272 -0.0299
  186SLPC  C21221424   7.355   6.692   8.003  0.3840  0.4388 -0.2288
  186SLPC  H12R21425   7.428   6.613   7.979 -0.1739 -0.0188 -0.4298
  186SLPC  C21321426   7.377   6.766   8.111 -0.5154  0.4691 -0.0108
  186SLPC  H13R21427   7.469   6.750   8.168 -1.3539 -2.7583  0.6530
  186SLPC  C21421428   7.299   6.869   8.168  0.6332  0.0226  0.4160
  186SLPC  H14R21429   7.207   6.880   8.105  0.5682 -2.4908 -0.0091
  186SLPC  H14S21430   7.341   6.971   8.153 -0.6974  0.5741  0.2192
  186SLPC  C21521431   7.259   6.826   8.304  0.2964 -0.2410  0.6600
  186SLPC  H15R21432   7.348   6.852   8.365  2.0963  1.5944 -2.4630
  186SLPC  H15S21433   7.240   6.718   8.322 -0.6980 -0.2561 -0.3699
  186SLPC  C21621434   7.130   6.903   8.336  0.0557  0.3256 -0.0901
  186SLPC  H16R21435   7.046   6.878   8.268 -0.0852  1.1858 -0.2398
  186SLPC  H16S21436   7.135   7.014   8.326 -0.4740  0.1471 -3.8142
  186SLPC  C21721437   7.077   6.884   8.483 -0.5527  0.5583  0.0690
  186SLPC  H17R21438   7.156   6.896   8.560 -1.5698 -2.9784  1.9409
  186SLPC  H17S21439   7.052   6.775   8.481  0.4495  0.3285 -0.3821
  186SLPC  C21821440   6.963   6.968   8.524  0.2393  0.1274  0.2794
  186SLPC  H18R21441   7.012   7.068   8.529  2.2595 -0.7708 -0.4868
  186SLPC  H18S21442   6.907   6.937   8.615 -0.9092  1.3577  0.0142
  186SLPC  H18T21443   6.895   6.980   8.437 -0.9477 -0.3446  1.1201
  186SLPC   C3321444   6.568   6.916   7.256 -0.1296 -0.7564 -0.0728
  186SLPC   H3X21445   6.457   6.912   7.247 -0.3735 -0.5954  2.3419
  186SLPC   H3Y21446   6.603   7.009   7.207 -0.5051 -0.5215  0.0975
  186SLPC   C3421447   6.605   6.925   7.404 -0.3763  0.1289  0.6615
  186SLPC   H4X21448   6.551   7.011   7.447 -0.9171  0.6649 -1.0258
  186SLPC   H4Y21449   6.716   6.930   7.415 -0.3710 -1.2461  1.5477
  186SLPC   C3521450   6.562   6.806   7.487  0.0394 -0.3753  0.6839
  186SLPC   H5X21451   6.592   6.712   7.437 -0.1893 -1.4055  2.3934
  186SLPC   H5Y21452   6.451   6.808   7.484 -0.0060  2.0926  1.3956
  186SLPC   C3621453   6.602   6.792   7.637  0.0463  0.6335  0.2508
  186SLPC   H6X21454   6.577   6.892   7.678 -1.4168 -0.1341  1.3373
  186SLPC   H6Y21455   6.713   6.788   7.635  0.0924  1.7920 -1.0026
  186SLPC   C3721456   6.538   6.678   7.722  0.1827 -0.1995  0.0472
  186SLPC   H7X21457   6.564   6.577   7.684  1.5562  0.1733 -0.0649
  186SLPC   H7Y21458   6.428   6.682   7.711  0.2791 -0.4878 -1.1098
  186SLPC   C3821459   6.579   6.669   7.872  0.9746 -0.3597 -0.6246
  186SLPC   H8X21460   6.678   6.620   7.886  0.2405 -2.4410 -2.2551
  186SLPC   H8Y21461   6.517   6.589   7.917 -0.6273  0.1126 -1.8814
  186SLPC   C3921462   6.553   6.788   7.961  0.8343 -0.5017 -0.3574
  186SLPC   H9X21463   6.446   6.793   7.990  0.9552  1.4386 -0.1165
  186SLPC   H9Y21464   6.566   6.874   7.891  0.2064  0.1726  0.3369
  186SLPC  C31021465   6.649   6.793   8.077 -0.1713  0.2732  0.2866
  186SLPC  H10X21466   6.754   6.799   8.043 -0.2722  2.0718  0.1972
  186SLPC  H10Y21467   6.653   6.694   8.128  0.2110  0.9218  1.5405
  186SLPC  C31121468   6.597   6.898   8.178  0.3740  0.1392 -0.4443
  186SLPC  H11X21469   6.585   6.995   8.125 -0.3573  0.6727  0.6460
  186SLPC  H11Y21470   6.678   6.908   8.254 -0.1806 -0.6613  0.2740
  186SLPC  C31221471   6.465   6.872   8.247  1.3657  0.2402 -0.7652
  186SLPC  H12X21472   6.455   6.762   8.259 -0.0449  0.2847 -1.4346
  186SLPC  H12Y21473   6.376   6.897   8.186  0.5861 -1.2333 -0.2785
  186SLPC  C31321474   6.450   6.931   8.388  0.6517  0.6548 -0.3898
  186SLPC  H13X21475   6.526   6.889   8.457  1.4837  0.6482 -1.2990
  186SLPC  H13Y21476   6.353   6.909   8.438  1.5923  0.5368  1.4663
  186SLPC  C31421477   6.455   7.084   8.377  0.0559 -0.4014 -0.0476
  186SLPC  H14X21478   6.451   7.105   8.267  0.6011  1.7889  0.3011
  186SLPC  H14Y21479   6.556   7.129   8.386  0.5955 -0.4133 -4.0537
  186SLPC  C31521480   6.338   7.152   8.455  0.5161 -0.5078  0.2988
  186SLPC  H15X21481   6.368   7.258   8.468  1.0985 -0.2325 -2.4998
  186SLPC  H15Y21482   6.331   7.101   8.553  1.8941 -1.6183 -0.1431
  186SLPC  C31621483   6.195   7.154   8.390 -0.1089  0.0219 -0.6762
  186SLPC  H16X21484   6.140   7.059   8.409 -2.6021  1.2647 -1.2332
  186SLPC  H16Y21485   6.211   7.157   8.281  2.4790  1.1747 -0.3213
  186SLPC  C31721486   6.106   7.271   8.436 -0.1957  0.0042 -0.0720
  186SLPC  H17X21487   6.027   7.288   8.359 -0.3156  0.9387  0.2412
  186SLPC  H17Y21488   6.166   7.364   8.427  0.0963 -0.1869 -0.0910
  186SLPC  C31821489   6.047   7.258   8.579 -0.3324  0.4725 -0.0244
  186SLPC  H18X21490   6.124   7.260   8.660 -0.0709  2.6957 -0.2685
  186SLPC  H18Y21491   5.973   7.176   8.591 -1.7336  1.6978  0.0092
  186SLPC  H18Z21492   5.992   7.350   8.607 -0.8051 -0.5799  2.8033
  187SLPC     N21493   1.189   2.406   6.129 -0.0961  0.7460 -0.2709
  187SLPC   C1321494   1.054   2.448   6.076 -0.2929 -0.5024 -0.1219
  187SLPC  H13A21495   0.980   2.441   6.154 -0.9953  0.0892 -0.7146
  187SLPC  H13B21496   1.067   2.553   6.052 -2.4143 -0.2914 -0.5421
  187SLPC  H13C21497   1.023   2.387   5.992 -1.6936 -1.1335  0.8016
  187SLPC   C1421498   1.290   2.525   6.142 -0.2465  0.6292 -0.3439
  187SLPC  H14A21499   1.393   2.500   6.163 -0.0235  1.8585  0.0941
  187SLPC  H14B21500   1.292   2.595   6.059 -0.5122  0.4542 -0.5017
  187SLPC  H14C21501   1.268   2.576   6.234  1.7079 -0.5379  0.8487
  187SLPC   C1521502   1.236   2.303   6.033 -0.2085  1.2873 -0.0824
  187SLPC  H15A21503   1.293   2.341   5.949  0.9924  1.4839  0.8021
  187SLPC  H15B21504   1.306   2.236   6.080 -0.2167  1.6361  0.4307
  187SLPC  H15C21505   1.160   2.232   6.003  1.9770 -1.3159  0.1591
  187SLPC   C1221506   1.172   2.339   6.261  0.1031  0.7691  0.3899
  187SLPC  H12A21507   1.265   2.287   6.277  2.0511  3.6873 -0.6898
  187SLPC  H12B21508   1.103   2.256   6.250  1.4196 -0.4106  0.8033
  187SLPC   C1121509   1.155   2.419   6.391 -0.3103  0.4831  0.1627
  187SLPC  H11A21510   1.236   2.491   6.417  0.5660 -0.5440  0.3462
  187SLPC  H11B21511   1.165   2.349   6.477  0.2105  1.6265  1.0625
  187SLPC     P21512   0.903   2.391   6.440  0.5319 -0.1508 -0.3747
  187SLPC   O1321513   0.775   2.458   6.413 -0.4799  0.3709 -0.0961
  187SLPC   O1421514   0.923   2.258   6.377 -0.5329 -0.1437  0.1152
  187SLPC   O1221515   1.024   2.478   6.390  0.7310 -0.0831  0.2937
  187SLPC   O1121516   0.926   2.365   6.597  0.0793 -0.1581 -0.5938
  187SLPC    C121517   0.987   2.469   6.676 -0.0914  0.8043  0.5708
  187SLPC    HA21518   1.097   2.466   6.685 -0.1829 -2.3064  2.1783
  187SLPC    HB21519   0.947   2.567   6.642 -2.1342 -0.9283 -2.5134
  187SLPC    C221520   0.935   2.456   6.822  1.0327 -0.1314 -0.4712
  187SLPC    HS21521   0.986   2.366   6.864  0.3666 -0.6502 -0.7489
  187SLPC   O2121522   0.793   2.448   6.830  0.5235 -0.4073  0.2049
  187SLPC   C2121523   0.748   2.347   6.904  0.2735  0.1785  0.4238
  187SLPC   O2221524   0.814   2.257   6.955  0.0965 -0.2364  0.2347
  187SLPC   C2221525   0.589   2.342   6.893  0.5196  0.9501 -0.2714
  187SLPC   H2R21526   0.559   2.433   6.836  3.1891  1.3013 -1.2568
  187SLPC   H2S21527   0.569   2.260   6.821 -2.0724  0.0342  1.3464
  187SLPC    C321528   0.978   2.576   6.910  0.0383 -0.4039 -1.2465
  187SLPC    HX21529   0.918   2.666   6.885 -0.7353 -0.9079 -1.2574
  187SLPC    HY21530   1.084   2.599   6.888 -0.2759  1.2059 -1.1790
  187SLPC   O3121531   0.946   2.539   7.050  0.0621  0.3457 -0.0378
  187SLPC   C3121532   1.040   2.496   7.120  0.4618 -0.5365  0.0863
  187SLPC   O3221533   1.154   2.486   7.084  0.5031 -0.0240  0.7764
  187SLPC   C3221534   0.988   2.438   7.248 -0.4249 -0.0940  0.2544
  187SLPC   H2X21535   0.973   2.329   7.233  0.0113 -0.2018  0.5981
  187SLPC   H2Y21536   0.890   2.490   7.260  0.2194  1.4359 -0.8868
  187SLPC   C2321537   0.511   2.321   7.032 -0.7550 -0.2064  0.4301
  187SLPC   H3R21538   0.543   2.222   7.070  0.9477 -1.2581 -3.3233
  187SLPC   H3S21539   0.401   2.328   7.021 -1.0970 -2.8591  1.4527
  187SLPC   C2421540   0.555   2.418   7.140  0.2423 -0.4357 -0.3852
  187SLPC   H4R21541   0.530   2.522   7.112  0.2573 -0.8191 -1.8714
  187SLPC   H4S21542   0.664   2.404   7.161  0.1089 -1.2122 -0.1681
  187SLPC   C2521543   0.492   2.408   7.283  0.0918 -0.1346  0.2282
  187SLPC   H5R21544   0.511   2.306   7.323  0.1327 -0.8530 -1.5214
  187SLPC   H5S21545   0.383   2.424   7.267  0.0345 -1.9657 -1.6267
  187SLPC   C2621546   0.551   2.507   7.386  0.3529  0.4298 -0.2541
  187SLPC   H6R21547   0.562   2.605   7.335  0.1885  0.2280 -0.6825
  187SLPC   H6S21548   0.652   2.488   7.427  0.4356 -1.6930 -1.2584
  187SLPC   C2721549   0.448   2.519   7.498 -0.7546 -0.0189 -0.2428
  187SLPC   H7R21550   0.439   2.425   7.557 -1.0257  1.5338  2.3732
  187SLPC   H7S21551   0.350   2.544   7.451  0.2133  0.6518 -1.9842
  187SLPC   C2821552   0.482   2.648   7.579 -0.7056 -0.3335  0.3262
  187SLPC   H8R21553   0.400   2.679   7.647 -0.0644  1.9105  0.1851
  187SLPC   H8S21554   0.500   2.727   7.502  1.1766  0.5632  1.5891
  187SLPC   C2921555   0.603   2.623   7.665 -0.2893 -0.7219 -0.1379
  187SLPC   H9R21556   0.689   2.682   7.630 -0.8224 -0.4410 -1.0159
  187SLPC  C21021557   0.610   2.538   7.772 -0.1382 -1.0917  0.1501
  187SLPC  H10R21558   0.707   2.534   7.824 -0.3324 -1.4091  0.4937
  187SLPC  C21121559   0.502   2.452   7.833 -0.1838 -0.1666  0.2391
  187SLPC  H11R21560   0.411   2.442   7.770  0.4453  1.2590 -0.9452
  187SLPC  H11S21561   0.456   2.510   7.916 -2.2203  0.5410 -1.3009
  187SLPC  C21221562   0.545   2.316   7.882 -0.3696 -0.2107  1.1846
  187SLPC  H12R21563   0.533   2.234   7.810  1.6767  2.3220 -2.3892
  187SLPC  C21321564   0.613   2.305   7.996  0.3221 -0.1647 -0.7051
  187SLPC  H13R21565   0.633   2.205   8.036 -2.8451 -0.5992  0.0410
  187SLPC  C21421566   0.646   2.415   8.101 -0.4948  0.2314  0.0343
  187SLPC  H14R21567   0.647   2.515   8.053  0.0936  0.0477 -0.3350
  187SLPC  H14S21568   0.742   2.400   8.154  0.2114 -1.1515 -1.5568
  187SLPC  C21521569   0.541   2.432   8.210 -0.6573  0.3632 -0.2723
  187SLPC  H15R21570   0.520   2.340   8.270  1.7098 -1.0332 -1.4385
  187SLPC  H15S21571   0.437   2.461   8.183 -2.0029 -2.3046  1.5916
  187SLPC  C21621572   0.577   2.533   8.312  0.1279 -0.2968  0.5776
  187SLPC  H16R21573   0.620   2.625   8.268  0.8836 -0.7454  0.3595
  187SLPC  H16S21574   0.666   2.488   8.361 -1.4838 -1.8782  2.1863
  187SLPC  C21721575   0.477   2.560   8.424  0.4038  0.0356  0.5920
  187SLPC  H17R21576   0.373   2.545   8.390  1.5256 -0.7261 -2.9263
  187SLPC  H17S21577   0.497   2.661   8.467  1.4652  0.4240 -0.7324
  187SLPC  C21821578   0.496   2.482   8.554  0.6874  0.9234  0.1018
  187SLPC  H18R21579   0.438   2.530   8.636 -2.3542  0.1456 -1.4649
  187SLPC  H18S21580   0.601   2.462   8.583  0.2424 -1.9733  0.0111
  187SLPC  H18T21581   0.451   2.380   8.542  0.3831  1.1935 -1.2161
  187SLPC   C3321582   1.083   2.479   7.371  0.4141  0.4877  0.5379
  187SLPC   H3X21583   1.091   2.589   7.360 -3.5058  1.0961  2.1299
  187SLPC   H3Y21584   1.179   2.422   7.364  0.9918  1.5377 -0.5170
  187SLPC   C3421585   1.013   2.444   7.497  0.8084  0.2488  1.4512
  187SLPC   H4X21586   1.026   2.334   7.500  1.3397  0.0557 -2.7788
  187SLPC   H4Y21587   0.905   2.467   7.496  0.2184 -2.2118  0.5818
  187SLPC   C3521588   1.065   2.511   7.629  0.3467  0.9199  0.4374
  187SLPC   H5X21589   1.016   2.610   7.629  2.1534  1.8883 -1.4374
  187SLPC   H5Y21590   1.173   2.535   7.629  0.9259 -1.2077 -1.5075
  187SLPC   C3621591   1.033   2.437   7.759  0.0590 -0.1546  0.2052
  187SLPC   H6X21592   1.100   2.349   7.769  1.0314  0.4628 -0.7055
  187SLPC   H6Y21593   0.927   2.403   7.759  0.1289 -0.3874  0.9203
  187SLPC   C3721594   1.033   2.527   7.883  0.0996  0.6067 -0.1837
  187SLPC   H7X21595   1.130   2.580   7.868 -0.4037  1.6377  0.1478
  187SLPC   H7Y21596   0.952   2.603   7.879 -0.3564  0.0758 -1.5292
  187SLPC   C3821597   1.017   2.446   8.012 -0.6090 -0.1120 -0.2071
  187SLPC   H8X21598   1.070   2.349   7.997 -1.2267 -0.3972 -0.5976
  187SLPC   H8Y21599   0.911   2.411   8.006 -1.1246  0.5127  3.1210
  187SLPC   C3921600   1.030   2.516   8.147 -0.2164 -0.0350 -0.1848
  187SLPC   H9X21601   0.935   2.568   8.169  0.1220 -0.0852  1.4695
  187SLPC   H9Y21602   1.116   2.586   8.138 -0.3010  0.2643  1.1943
  187SLPC  C31021603   1.059   2.405   8.253  0.0749 -0.2784  0.1555
  187SLPC  H10X21604   1.147   2.343   8.225 -0.3752 -0.2942 -1.2942
  187SLPC  H10Y21605   0.973   2.336   8.241  0.0436  0.0790 -2.0759
  187SLPC  C31121606   1.089   2.460   8.386 -0.0063 -0.6137 -0.8201
  187SLPC  H11X21607   1.185   2.516   8.383 -0.8377  1.3873  3.3264
  187SLPC  H11Y21608   1.100   2.363   8.440 -0.0537 -1.2143 -1.8678
  187SLPC  C31221609   0.975   2.545   8.448 -0.6109  0.0385 -0.0034
  187SLPC  H12X21610   0.875   2.511   8.416 -0.1949  1.1885 -2.8261
  187SLPC  H12Y21611   0.980   2.648   8.405  2.5701 -0.0112 -0.0264
  187SLPC  C31321612   0.967   2.563   8.599  0.0767 -1.1490  0.4060
  187SLPC  H13X21613   0.963   2.459   8.638  1.6882 -1.9968 -1.5303
  187SLPC  H13Y21614   0.873   2.614   8.632 -0.0124 -0.5801 -0.6742
  187SLPC  C31421615   1.094   2.629   8.665  1.4584  0.6520 -0.0533
  187SLPC  H14X21616   1.088   2.737   8.644 -2.0719  0.1891 -2.2243
  187SLPC  H14Y21617   1.174   2.587   8.600  0.6567 -0.4287 -0.3791
  187SLPC  C31521618   1.119   2.592   8.811 -0.4702 -0.0787 -0.3235
  187SLPC  H15X21619   1.101   2.483   8.819  2.1445 -0.4436  1.9772
  187SLPC  H15Y21620   1.044   2.637   8.880 -0.4700 -0.0433 -0.3459
  187SLPC  C31621621   1.263   2.622   8.855 -0.1694  0.0513 -0.3176
  187SLPC  H16X21622   1.291   2.729   8.843  0.2647 -0.0127  0.0953
  187SLPC  H16Y21623   1.317   2.560   8.781 -0.8793  1.3179 -1.9752
  187SLPC  C31721624   1.287   2.569   8.999  0.0628 -0.0623  0.2800
  187SLPC  H17X21625   1.229   2.635   9.067  0.6304 -1.7324  2.5019
  187SLPC  H17Y21626   1.392   2.593   9.022  0.4607 -0.6559 -0.8215
  187SLPC  C31821627   1.231   2.433   9.024  0.0646  0.2404 -0.2358
  187SLPC  H18X21628   1.262   2.370   8.938 -0.4034  0.5234 -0.6116
  187SLPC  H18Y21629   1.120   2.430   9.033  0.0979  0.7638  0.5270
  187SLPC  H18Z21630   1.283   2.383   9.109  0.6125  1.1013 -0.0471
  188SLPC     N21631   2.149   6.176   6.319  0.0109  0.6596  0.4065
  188SLPC   C1321632   2.199   6.060   6.240  0.3997  0.0109 -0.0262
  188SLPC  H13A21633   2.231   5.976   6.300  2.2772  0.9089  0.2978
  188SLPC  H13B21634   2.133   6.021   6.164  0.8130 -2.8716  0.9773
  188SLPC  H13C21635   2.295   6.082   6.196  0.4756  0.7700  0.4966
  188SLPC   C1421636   2.008   6.139   6.359 -0.1164 -0.0350 -0.2394
  188SLPC  H14A21637   2.011   6.047   6.416 -1.2306 -0.2795 -0.5425
  188SLPC  H14B21638   1.974   6.210   6.433  0.8357 -0.2740  0.4456
  188SLPC  H14C21639   1.938   6.128   6.278 -0.3460 -0.0636 -0.0385
  188SLPC   C1521640   2.154   6.299   6.228  0.7625  0.3150  0.2774
  188SLPC  H15A21641   2.243   6.327   6.173  0.1035  0.2547 -0.8397
  188SLPC  H15B21642   2.092   6.280   6.142  1.5976 -1.3588  0.0031
  188SLPC  H15C21643   2.115   6.386   6.280 -1.1365 -0.5934  0.4399
  188SLPC   C1221644   2.238   6.198   6.437 -0.2288  0.4333 -0.0905
  188SLPC  H12A21645   2.232   6.296   6.481  3.0666  0.2095  1.1666
  188SLPC  H12B21646   2.341   6.180   6.411 -0.2769 -0.1689  0.1027
  188SLPC   C1121647   2.203   6.097   6.548  0.1964 -0.2523 -0.4256
  188SLPC  H11A21648   2.101   6.089   6.592  1.5012 -0.3926  2.8766
  188SLPC  H11B21649   2.256   6.127   6.641  0.8890 -1.3279 -0.4642
  188SLPC     P21650   2.401   5.927   6.513 -0.4949 -0.3006 -0.4491
  188SLPC   O1321651   2.415   5.797   6.451 -0.5033  0.0205  0.6294
  188SLPC   O1421652   2.487   6.036   6.449  0.0547  0.1276 -0.0177
  188SLPC   O1221653   2.249   5.968   6.514  0.4245 -0.2469  0.5196
  188SLPC   O1121654   2.444   5.906   6.669  0.4213 -0.0531 -0.2248
  188SLPC    C121655   2.367   5.798   6.736  0.3362  0.3320 -0.2803
  188SLPC    HA21656   2.258   5.821   6.743 -0.3445 -1.6647 -2.9417
  188SLPC    HB21657   2.357   5.702   6.682 -2.1167  1.7846 -2.7092
  188SLPC    C221658   2.411   5.773   6.883  0.2647 -0.6674 -0.8621
  188SLPC    HS21659   2.374   5.677   6.924  0.1761  0.4405  1.8525
  188SLPC   O2121660   2.352   5.879   6.972  0.3191  0.2165 -0.6260
  188SLPC   C2121661   2.217   5.881   6.969 -0.3944 -0.4054 -0.2832
  188SLPC   O2221662   2.147   5.788   6.946  0.4763  0.2263 -0.1130
  188SLPC   C2221663   2.177   6.020   7.020 -0.0877 -0.9058 -0.1151
  188SLPC   H2R21664   2.273   6.076   7.024  1.6009 -3.7081  2.2422
  188SLPC   H2S21665   2.100   6.060   6.949  2.5840 -1.7267 -3.8074
  188SLPC    C321666   2.564   5.763   6.903 -0.4163  0.0291  0.1987
  188SLPC    HX21667   2.594   5.859   6.950  1.0270 -0.3073  0.0372
  188SLPC    HY21668   2.616   5.756   6.804  1.2427 -0.2896  1.0558
  188SLPC   O3121669   2.606   5.654   6.994 -0.5800  0.2220  0.0373
  188SLPC   C3121670   2.590   5.527   6.940  0.1607 -0.3624 -0.3942
  188SLPC   O3221671   2.548   5.508   6.830  0.5238  0.7521 -0.2933
  188SLPC   C3221672   2.663   5.432   7.028 -0.2780 -0.3700 -0.4944
  188SLPC   H2X21673   2.743   5.377   6.974  0.7710  0.3385  0.3048
  188SLPC   H2Y21674   2.589   5.352   7.051  0.5397 -0.5194  1.7594
  188SLPC   C2321675   2.118   6.014   7.164 -0.1524  0.2730 -0.0982
  188SLPC   H3R21676   2.034   5.941   7.158 -0.4456  0.6777 -1.1394
  188SLPC   H3S21677   2.077   6.109   7.205  0.2612 -0.2247  1.5432
  188SLPC   C2421678   2.212   5.968   7.270  0.2723  0.3672 -0.2429
  188SLPC   H4R21679   2.285   6.047   7.297 -2.3080  1.8192  3.1935
  188SLPC   H4S21680   2.265   5.874   7.241 -2.5572 -0.7976 -2.1342
  188SLPC   C2521681   2.144   5.939   7.408 -0.1140  0.2290  0.0126
  188SLPC   H5R21682   2.066   5.861   7.399 -0.1118  0.1507  0.6621
  188SLPC   H5S21683   2.101   6.037   7.439 -1.2279  1.0283 -3.5682
  188SLPC   C2621684   2.240   5.901   7.523  0.7784 -0.7350 -0.3412
  188SLPC   H6R21685   2.318   5.980   7.523 -0.6519  0.7596  1.0529
  188SLPC   H6S21686   2.287   5.801   7.507  0.4213 -1.2398  1.5073
  188SLPC   C2721687   2.165   5.911   7.651  0.9867  0.2931  0.1359
  188SLPC   H7R21688   2.079   5.840   7.654 -1.2484  2.5398 -3.3835
  188SLPC   H7S21689   2.121   6.013   7.647  3.1666  1.2863  0.4359
  188SLPC   C2821690   2.251   5.871   7.775  0.4103  0.7388 -0.3741
  188SLPC   H8R21691   2.255   5.761   7.791  2.3139  1.0560  2.1279
  188SLPC   H8S21692   2.188   5.896   7.863  1.0601  0.2900  0.2328
  188SLPC   C2921693   2.385   5.928   7.781  0.0942 -0.0779  0.0192
  188SLPC   H9R21694   2.453   5.904   7.698 -0.5797  0.8051 -0.8189
  188SLPC  C21021695   2.444   5.986   7.894  0.5717  0.4655 -0.3473
  188SLPC  H10R21696   2.545   6.028   7.883  0.7782  0.0409 -0.1228
  188SLPC  C21121697   2.373   6.008   8.029 -0.0367 -0.8712 -0.6546
  188SLPC  H11R21698   2.266   6.035   8.019 -0.4859 -1.4748  1.9134
  188SLPC  H11S21699   2.411   6.094   8.088 -3.8434 -0.1910  1.0633
  188SLPC  C21221700   2.383   5.885   8.122 -0.0459  0.4481 -0.1251
  188SLPC  H12R21701   2.464   5.817   8.092 -0.3112 -0.2921  0.7993
  188SLPC  C21321702   2.316   5.867   8.235  0.1649  0.7055 -0.1873
  188SLPC  H13R21703   2.341   5.774   8.289  0.7236 -0.6521 -2.6386
  188SLPC  C21421704   2.210   5.952   8.299 -0.1600  0.6280 -0.2994
  188SLPC  H14R21705   2.242   6.058   8.292 -0.8190  0.7602 -1.4527
  188SLPC  H14S21706   2.199   5.920   8.405  0.4878  1.1953 -0.0532
  188SLPC  C21521707   2.073   5.944   8.219  0.4804 -0.0367  0.5536
  188SLPC  H15R21708   2.067   6.026   8.144  0.8494 -0.2948  0.2308
  188SLPC  H15S21709   1.994   5.959   8.296  1.5898 -2.8568  2.4225
  188SLPC  C21621710   2.052   5.816   8.136  0.5818  0.6495  0.1949
  188SLPC  H16R21711   2.043   5.718   8.188 -1.2113  0.5928 -0.1481
  188SLPC  H16S21712   2.125   5.800   8.054 -0.6593 -1.2559 -0.5895
  188SLPC  C21721713   1.917   5.851   8.080  0.7536  0.0441 -0.2109
  188SLPC  H17R21714   1.938   5.928   8.002 -1.2989  0.6193 -0.2469
  188SLPC  H17S21715   1.847   5.899   8.151 -0.6836 -1.6780 -0.3891
  188SLPC  C21821716   1.850   5.740   8.013  0.2544  0.7635 -0.0043
  188SLPC  H18R21717   1.861   5.641   8.064 -1.0530 -0.1285 -1.3682
  188SLPC  H18S21718   1.887   5.723   7.910  0.2672  0.4275  0.0540
  188SLPC  H18T21719   1.740   5.755   8.013 -0.6619 -3.9562 -2.0119
  188SLPC   C3321720   2.714   5.485   7.159 -1.0624 -0.2454 -1.0174
  188SLPC   H3X21721   2.632   5.533   7.216  1.2396 -1.3478  3.7797
  188SLPC   H3Y21722   2.792   5.563   7.142  0.7923 -1.7412  0.2023
  188SLPC   C3421723   2.769   5.376   7.257  0.1305 -0.1362 -0.3300
  188SLPC   H4X21724   2.774   5.424   7.357  0.2304 -1.7809  0.4845
  188SLPC   H4Y21725   2.868   5.339   7.225  0.1619 -0.6686  0.3674
  188SLPC   C3521726   2.677   5.248   7.273  0.0209  0.5390 -0.0665
  188SLPC   H5X21727   2.682   5.179   7.187 -0.0905  1.3714 -0.7546
  188SLPC   H5Y21728   2.572   5.284   7.271 -0.9252 -1.9997  0.7118
  188SLPC   C3621729   2.679   5.162   7.408  0.2900 -0.3607 -0.8049
  188SLPC   H6X21730   2.608   5.078   7.395  1.8096 -1.3669 -3.4897
  188SLPC   H6Y21731   2.645   5.223   7.494 -2.0140 -1.5416 -0.8119
  188SLPC   C3721732   2.813   5.098   7.439 -0.7436  0.6255 -0.4141
  188SLPC   H7X21733   2.907   5.156   7.452  1.6577 -2.7987 -1.2848
  188SLPC   H7Y21734   2.833   5.044   7.344  1.5520 -0.3952  0.5595
  188SLPC   C3821735   2.817   4.989   7.543  0.3872  0.4587  0.9681
  188SLPC   H8X21736   2.917   4.941   7.545  0.5422  0.7271  0.0777
  188SLPC   H8Y21737   2.742   4.907   7.546 -0.2656  1.0727  1.6347
  188SLPC   C3921738   2.808   5.054   7.680  0.5903 -0.2981 -0.3210
  188SLPC   H9X21739   2.704   5.081   7.706 -0.4667 -3.8290 -0.3352
  188SLPC   H9Y21740   2.867   5.147   7.689  0.0634 -0.0844  1.1065
  188SLPC  C31021741   2.863   4.947   7.778 -0.1059 -0.0650  0.2073
  188SLPC  H10X21742   2.972   4.937   7.758 -0.1198 -1.7127  0.7716
  188SLPC  H10Y21743   2.819   4.846   7.761  0.0219 -0.1806  0.5404
  188SLPC  C31121744   2.867   4.994   7.923 -0.2367 -0.0301 -0.0093
  188SLPC  H11X21745   2.764   5.011   7.960 -1.0367 -1.7687 -1.2789
  188SLPC  H11Y21746   2.931   5.085   7.926 -0.7949  0.4575 -1.5805
  188SLPC  C31221747   2.924   4.884   8.016  0.1557  0.0617 -0.1797
  188SLPC  H12X21748   3.030   4.866   7.989  0.0528  0.4805 -0.8786
  188SLPC  H12Y21749   2.864   4.794   7.994  0.4150 -0.4832  1.2209
  188SLPC  C31321750   2.925   4.913   8.173 -0.1793 -0.2481  0.3000
  188SLPC  H13X21751   2.986   5.003   8.195  1.5132 -1.4333  0.6525
  188SLPC  H13Y21752   2.987   4.831   8.215  0.9960 -1.1374 -2.8806
  188SLPC  C31421753   2.785   4.925   8.232 -0.4964  0.6031  0.3944
  188SLPC  H14X21754   2.729   4.830   8.217  0.9366 -0.6104  2.3026
  188SLPC  H14Y21755   2.726   5.009   8.190  1.0178 -0.0678 -3.5025
  188SLPC  C31521756   2.800   4.944   8.390  0.0564  0.2398  0.0951
  188SLPC  H15X21757   2.855   4.860   8.438  0.4337  0.6233  0.3337
  188SLPC  H15Y21758   2.698   4.945   8.434  0.5828  2.0960  1.3674
  188SLPC  C31621759   2.873   5.081   8.425 -0.1666  0.2388 -0.7697
  188SLPC  H16X21760   2.975   5.095   8.384 -0.0317  3.8160  0.3738
  188SLPC  H16Y21761   2.874   5.082   8.536  0.3973  1.2629 -0.7657
  188SLPC  C31721762   2.783   5.212   8.400 -0.8166 -0.0223  0.2669
  188SLPC  H17X21763   2.676   5.185   8.418 -1.0042  0.1646 -0.5297
  188SLPC  H17Y21764   2.785   5.238   8.292 -0.4718 -0.5977  0.1266
  188SLPC  C31821765   2.814   5.334   8.488 -0.2646  0.7321  0.1401
  188SLPC  H18X21766   2.915   5.368   8.454 -1.2993  1.9283 -1.9502
  188SLPC  H18Y21767   2.822   5.298   8.593  1.1090 -0.2428 -0.2721
  188SLPC  H18Z21768   2.749   5.423   8.475  0.3559  1.2360  0.3999
  189SLPC     N21769   6.704   4.408   6.062 -0.1010 -0.2030 -0.1631
  189SLPC   C1321770   6.807   4.482   5.984  0.5207 -0.5314  0.0496
  189SLPC  H13A21771   6.905   4.441   6.003  0.4849 -0.7683 -0.2631
  189SLPC  H13B21772   6.775   4.505   5.883  1.1784 -0.6281 -0.1816
  189SLPC  H13C21773   6.811   4.579   6.031 -2.2350  0.5617 -1.6844
  189SLPC   C1421774   6.730   4.264   6.045  0.2563 -0.2222  0.6042
  189SLPC  H14A21775   6.722   4.250   5.938  0.1364  0.4234  0.5210
  189SLPC  H14B21776   6.816   4.233   6.101  0.2836 -1.3850 -0.0453
  189SLPC  H14C21777   6.655   4.197   6.084 -1.5560  0.7328 -1.0361
  189SLPC   C1521778   6.568   4.440   6.011 -0.0582  0.5556  0.7348
  189SLPC  H15A21779   6.556   4.547   6.025 -1.1962  0.2578  2.3216
  189SLPC  H15B21780   6.557   4.418   5.906  1.3579  2.3929  0.1374
  189SLPC  H15C21781   6.493   4.389   6.070 -0.4700 -0.3826 -0.5644
  189SLPC   C1221782   6.730   4.445   6.211 -0.3680  0.5521  0.7052
  189SLPC  H12A21783   6.838   4.451   6.216 -0.3133  1.8697 -1.0911
  189SLPC  H12B21784   6.690   4.365   6.272 -1.0024 -0.5877 -1.1217
  189SLPC   C1121785   6.672   4.574   6.256  0.7364 -0.5647 -0.0034
  189SLPC  H11A21786   6.690   4.570   6.365  1.7543  1.5578 -0.0528
  189SLPC  H11B21787   6.564   4.568   6.233  1.0573 -1.7147 -1.3319
  189SLPC     P21788   6.875   4.732   6.245  0.3536 -0.2484  0.4077
  189SLPC   O1321789   6.943   4.632   6.326  0.1012 -0.0698  0.0849
  189SLPC   O1421790   6.952   4.783   6.133 -0.0759 -0.0506  0.4846
  189SLPC   O1221791   6.736   4.683   6.188 -0.1736 -0.2593 -0.7886
  189SLPC   O1121792   6.833   4.863   6.320  0.1462 -0.3210  0.5314
  189SLPC    C121793   6.941   4.955   6.359  0.4077 -0.0247  0.1935
  189SLPC    HA21794   7.032   4.959   6.295  0.7355 -0.8011  0.5962
  189SLPC    HB21795   6.900   5.058   6.368 -0.2337 -0.3991  1.9301
  189SLPC    C221796   6.999   4.929   6.497 -0.5795  0.0778  0.0150
  189SLPC    HS21797   7.066   4.840   6.498  0.2618  0.6772  1.8781
  189SLPC   O2121798   6.889   4.918   6.589  0.1432 -0.1324 -0.4633
  189SLPC   C2121799   6.866   4.802   6.647 -0.3376 -0.4483 -0.0684
  189SLPC   O2221800   6.924   4.696   6.628 -0.5444 -0.4406  0.5284
  189SLPC   C2221801   6.754   4.825   6.744  0.1300 -0.2061  0.5348
  189SLPC   H2R21802   6.709   4.925   6.730  0.2518 -0.3840 -1.5589
  189SLPC   H2S21803   6.680   4.748   6.714  0.4195  0.7661 -3.2516
  189SLPC    C321804   7.101   5.038   6.538  0.5214  0.2913  0.2988
  189SLPC    HX21805   7.050   5.134   6.514  1.1399  0.4875 -0.2320
  189SLPC    HY21806   7.194   5.037   6.478  0.3992  1.7269  0.0446
  189SLPC   O3121807   7.126   5.021   6.678 -1.2174 -0.1892 -0.2405
  189SLPC   C3121808   7.222   4.943   6.720  0.5556  0.1966 -0.4073
  189SLPC   O3221809   7.282   4.861   6.651 -0.4396 -0.3502 -0.0248
  189SLPC   C3221810   7.250   4.966   6.866 -1.3824  0.5642 -0.0496
  189SLPC   H2X21811   7.311   5.059   6.870 -1.1299  0.3963  0.0365
  189SLPC   H2Y21812   7.323   4.885   6.885 -1.1428  0.5459 -0.9543
  189SLPC   C2321813   6.788   4.821   6.900 -0.0673  0.0914  0.0305
  189SLPC   H3R21814   6.859   4.899   6.935 -0.4235  0.0478  0.8727
  189SLPC   H3S21815   6.826   4.718   6.918  0.8329  0.4695  0.3877
  189SLPC   C2421816   6.654   4.851   6.972 -0.2332  0.0228 -0.2637
  189SLPC   H4R21817   6.609   4.945   6.931  1.4030  0.5157 -1.0265
  189SLPC   H4S21818   6.682   4.870   7.078  0.4890 -0.9495 -0.2645
  189SLPC   C2521819   6.556   4.737   6.960 -0.6050 -0.4411 -0.5543
  189SLPC   H5R21820   6.608   4.643   6.989 -2.6598 -1.0921  1.2708
  189SLPC   H5S21821   6.531   4.720   6.853 -1.4370 -1.7909 -0.1738
  189SLPC   C2621822   6.428   4.747   7.043  0.5627  0.2440  0.3155
  189SLPC   H6R21823   6.359   4.823   7.001  0.3679  0.3947  0.9030
  189SLPC   H6S21824   6.460   4.812   7.127 -1.2530  2.4665 -0.6153
  189SLPC   C2721825   6.351   4.625   7.090 -0.3772  0.0675 -0.3797
  189SLPC   H7R21826   6.331   4.559   7.003  0.2320 -0.6470  0.0061
  189SLPC   H7S21827   6.255   4.658   7.135  0.1331 -0.2263  0.9796
  189SLPC   C2821828   6.409   4.545   7.208 -0.4087 -0.0336  0.1365
  189SLPC   H8R21829   6.431   4.610   7.295 -0.8050  1.0843 -0.5807
  189SLPC   H8S21830   6.501   4.508   7.159 -0.5511  1.5606 -1.4477
  189SLPC   C2921831   6.328   4.427   7.252  0.1477  0.3067  0.0226
  189SLPC   H9R21832   6.305   4.345   7.182 -1.7071 -0.9144  1.9467
  189SLPC  C21021833   6.268   4.408   7.370 -0.1460  1.0039  0.3288
  189SLPC  H10R21834   6.203   4.321   7.387  1.2332  0.1319  1.3330
  189SLPC  C21121835   6.275   4.501   7.490 -0.1276  0.1559 -0.8834
  189SLPC  H11R21836   6.337   4.591   7.469  2.1017 -1.5739 -2.2772
  189SLPC  H11S21837   6.333   4.441   7.563  3.4991  2.1721 -1.8594
  189SLPC  C21221838   6.133   4.539   7.531 -0.4528 -0.3740 -0.1523
  189SLPC  H12R21839   6.105   4.635   7.484  1.2514 -0.2180 -0.9307
  189SLPC  C21321840   6.047   4.474   7.608 -0.2283  0.4009 -0.5704
  189SLPC  H13R21841   5.948   4.522   7.617 -1.3935 -1.7266 -1.3747
  189SLPC  C21421842   6.080   4.349   7.687  0.0719 -0.1307 -0.1314
  189SLPC  H14R21843   6.182   4.307   7.670  1.4495  2.2724  1.6316
  189SLPC  H14S21844   6.007   4.272   7.653  0.9547 -1.8129  1.5465
  189SLPC  C21521845   6.053   4.367   7.833 -0.5592 -0.2174 -0.4456
  189SLPC  H15R21846   5.943   4.375   7.843 -0.5424  0.2579 -0.6209
  189SLPC  H15S21847   6.114   4.449   7.877  0.5314 -1.5518  0.6502
  189SLPC  C21621848   6.066   4.234   7.913  0.5050 -0.0733  0.2843
  189SLPC  H16R21849   6.174   4.210   7.922  0.1746 -1.8994 -0.2257
  189SLPC  H16S21850   6.021   4.144   7.867  3.2593 -0.0918 -2.7113
  189SLPC  C21721851   6.025   4.257   8.061  0.0234 -0.5421  0.1630
  189SLPC  H17R21852   5.921   4.295   8.061 -0.7629 -2.5556 -0.4109
  189SLPC  H17S21853   6.097   4.338   8.086 -0.3417 -0.0858 -0.2556
  189SLPC  C21821854   6.034   4.140   8.155 -0.3579  0.5710 -0.1620
  189SLPC  H18R21855   6.031   4.177   8.260  1.1487  0.9608 -0.2329
  189SLPC  H18S21856   6.131   4.089   8.137  0.2324  1.6780 -0.1977
  189SLPC  H18T21857   5.951   4.068   8.143  0.5361 -1.0964  2.6984
  189SLPC   C3321858   7.132   4.961   6.956  0.0230 -0.4674  0.5477
  189SLPC   H3X21859   7.078   4.865   6.946 -1.1181  0.2329 -0.2909
  189SLPC   H3Y21860   7.052   5.034   6.931 -1.2739 -1.4898  1.5713
  189SLPC   C3421861   7.172   4.990   7.097 -0.4340  0.3361 -0.0992
  189SLPC   H4X21862   7.197   5.098   7.109  0.7125  0.1481 -0.6306
  189SLPC   H4Y21863   7.262   4.928   7.117 -2.5918 -2.4020  1.9111
  189SLPC   C3521864   7.064   4.939   7.190 -0.2118 -0.3385  0.3258
  189SLPC   H5X21865   7.085   4.830   7.182 -0.8519 -0.4438 -0.0108
  189SLPC   H5Y21866   6.969   4.960   7.138  0.0856  0.9901  0.2795
  189SLPC   C3621867   7.083   4.992   7.338  0.1777  0.6076  0.1727
  189SLPC   H6X21868   7.058   5.100   7.344  1.9151  0.9796  1.1533
  189SLPC   H6Y21869   7.181   4.963   7.380  1.1584  1.1583 -1.6450
  189SLPC   C3721870   6.978   4.934   7.432 -0.4409  0.1822 -0.3025
  189SLPC   H7X21871   6.998   4.825   7.433  2.8757  0.6349  2.5997
  189SLPC   H7Y21872   6.869   4.941   7.410 -0.8326  0.1428  1.4708
  189SLPC   C3821873   6.993   4.993   7.579 -0.4513  0.4733 -0.3613
  189SLPC   H8X21874   7.019   5.100   7.590  0.7544  0.0109  1.8736
  189SLPC   H8Y21875   7.074   4.935   7.629 -1.2264  1.3019  1.9899
  189SLPC   C3921876   6.866   4.961   7.660  0.5324 -0.0262 -0.3315
  189SLPC   H9X21877   6.837   4.857   7.634  0.5404  0.0903 -0.8140
  189SLPC   H9Y21878   6.778   5.022   7.630  0.0617  1.5773  3.7082
  189SLPC  C31021879   6.886   4.981   7.814  0.2520 -0.0149  0.0399
  189SLPC  H10X21880   6.784   5.000   7.854  1.0218  0.2779  1.9394
  189SLPC  H10Y21881   6.950   5.066   7.844  1.6673 -1.0632  0.0473
  189SLPC  C31121882   6.938   4.859   7.891  0.0645  0.6841  0.0896
  189SLPC  H11X21883   7.034   4.826   7.846  0.8824  2.1018  0.7100
  189SLPC  H11Y21884   6.866   4.775   7.878  1.9147 -1.1629  1.1606
  189SLPC  C31221885   6.947   4.901   8.042 -0.4696  0.7007  0.2925
  189SLPC  H12X21886   6.865   4.971   8.070  0.2034  1.6998 -0.1592
  189SLPC  H12Y21887   7.045   4.953   8.052 -0.2951  0.1248  1.9284
  189SLPC  C31321888   6.963   4.783   8.134  0.1960  0.0920  0.6765
  189SLPC  H13X21889   7.064   4.739   8.118  0.7405  2.1861 -2.4271
  189SLPC  H13Y21890   6.890   4.700   8.117  1.6996 -1.4192  1.3201
  189SLPC  C31421891   6.957   4.831   8.279 -0.0833 -0.2690 -0.1071
  189SLPC  H14X21892   6.853   4.822   8.317  0.1706 -1.7723  0.2957
  189SLPC  H14Y21893   6.989   4.937   8.284 -0.6576  0.0648 -2.3571
  189SLPC  C31521894   7.045   4.736   8.369  0.4470 -0.4489  0.1282
  189SLPC  H15X21895   7.150   4.744   8.332  0.9976 -1.8622  1.2949
  189SLPC  H15Y21896   7.002   4.634   8.360 -0.9135  0.2162 -1.4585
  189SLPC  C31621897   7.054   4.766   8.520 -0.0803 -0.3796  0.6709
  189SLPC  H16X21898   7.131   4.698   8.562  0.0895  0.5329  1.8834
  189SLPC  H16Y21899   6.959   4.740   8.572  0.0786  1.2817  1.8453
  189SLPC  C31721900   7.097   4.911   8.552 -0.7313  0.6678  1.0071
  189SLPC  H17X21901   7.021   4.977   8.504 -0.1559  1.1597  0.7573
  189SLPC  H17Y21902   7.197   4.935   8.509 -0.7065 -0.5509  0.3492
  189SLPC  C31821903   7.098   4.941   8.703  0.4669  0.3947  0.0550
  189SLPC  H18X21904   7.140   4.853   8.756  0.3813  0.1730 -0.2363
  189SLPC  H18Y21905   6.998   4.972   8.740  0.7002  3.4996 -1.5726
  189SLPC  H18Z21906   7.151   5.035   8.728  0.0479  0.7939 -0.5179
  190SLPC     N21907   5.222   3.737   6.068  0.2991  0.5737 -0.1749
  190SLPC   C1321908   5.283   3.621   6.135  0.3552  0.0955  0.1743
  190SLPC  H13A21909   5.390   3.625   6.148  0.2384 -1.2384  1.9948
  190SLPC  H13B21910   5.240   3.615   6.234 -1.9159 -0.0077 -0.7671
  190SLPC  H13C21911   5.258   3.527   6.088 -0.5380 -1.2004  2.9860
  190SLPC   C1421912   5.085   3.717   6.035  0.0096 -0.2000  0.4222
  190SLPC  H14A21913   5.067   3.615   6.004  1.2330 -0.1629 -0.4924
  190SLPC  H14B21914   5.026   3.724   6.125  0.7219  2.1126  0.7731
  190SLPC  H14C21915   5.052   3.801   5.975 -2.0812 -0.0025  1.7479
  190SLPC   C1521916   5.287   3.747   5.934  0.2247 -0.2902 -0.6701
  190SLPC  H15A21917   5.270   3.666   5.865  0.5899  0.0007 -1.1089
  190SLPC  H15B21918   5.247   3.838   5.892 -2.9141 -0.4605  1.6375
  190SLPC  H15C21919   5.395   3.750   5.947  0.3510  4.1113 -1.0794
  190SLPC   C1221920   5.253   3.858   6.154  0.2719 -0.1779 -0.2708
  190SLPC  H12A21921   5.219   3.948   6.103  0.6267  1.0855  1.6178
  190SLPC  H12B21922   5.360   3.873   6.161  0.1382  0.0577  1.9209
  190SLPC   C1121923   5.196   3.873   6.301 -0.4818  0.3073  0.9096
  190SLPC  H11A21924   5.259   3.956   6.341 -1.1272  0.9964  0.5213
  190SLPC  H11B21925   5.197   3.781   6.363  0.3571 -0.4729 -0.2237
  190SLPC     P21926   5.029   4.070   6.273  0.0402 -0.5706 -0.0565
  190SLPC   O1321927   5.106   4.113   6.154  0.1954 -0.4143 -0.0180
  190SLPC   O1421928   4.881   4.086   6.279 -0.4213  0.0164 -0.5611
  190SLPC   O1221929   5.063   3.915   6.296  0.4614 -0.5483  0.4429
  190SLPC   O1121930   5.081   4.136   6.406  0.3289 -0.0972 -0.2468
  190SLPC    C121931   4.997   4.150   6.514  0.0249  0.3681 -1.0721
  190SLPC    HA21932   4.942   4.245   6.503 -1.7043 -0.4488  0.1409
  190SLPC    HB21933   4.916   4.075   6.521  0.3522  0.1025  0.4607
  190SLPC    C221934   5.073   4.163   6.658  0.3794 -0.1371  0.3922
  190SLPC    HS21935   5.150   4.240   6.637 -1.7082  2.2949  1.1173
  190SLPC   O2121936   5.129   4.033   6.694 -0.3912 -0.6626  0.5703
  190SLPC   C2121937   5.243   4.043   6.758 -0.4599 -0.3386  0.8555
  190SLPC   O2221938   5.314   4.144   6.755  0.7536  0.3572  0.2538
  190SLPC   C2221939   5.282   3.910   6.820  0.4060 -0.0180 -0.2410
  190SLPC   H2R21940   5.348   3.861   6.746 -0.0084  0.8243 -1.1897
  190SLPC   H2S21941   5.346   3.934   6.907 -0.8946  0.2703  0.6612
  190SLPC    C321942   4.981   4.214   6.773 -0.0139 -0.0246 -0.7552
  190SLPC    HX21943   4.928   4.124   6.811  1.4762  0.2616  2.3123
  190SLPC    HY21944   4.906   4.284   6.729 -0.2035  0.2540 -0.0094
  190SLPC   O3121945   5.063   4.259   6.883 -0.7141 -0.2009 -0.3587
  190SLPC   C3121946   5.104   4.388   6.873 -0.5277 -0.4519  0.3330
  190SLPC   O3221947   5.063   4.466   6.792  0.0140  0.3327 -0.0160
  190SLPC   C3221948   5.204   4.432   6.985  0.2676  0.7737 -0.1543
  190SLPC   H2X21949   5.304   4.441   6.939 -0.3112 -2.1732 -2.3043
  190SLPC   H2Y21950   5.208   4.353   7.063 -0.0164  2.4519  1.6336
  190SLPC   C2321951   5.159   3.816   6.867 -0.4256  1.1244  0.2746
  190SLPC   H3R21952   5.212   3.721   6.889 -0.3052  0.8191 -1.2471
  190SLPC   H3S21953   5.099   3.791   6.777 -2.0271  0.9166  1.3593
  190SLPC   C2421954   5.067   3.863   6.975  0.2062  0.6325 -0.1948
  190SLPC   H4R21955   4.964   3.885   6.943 -0.6780  0.7673  2.5004
  190SLPC   H4S21956   5.108   3.958   7.016 -2.2161  1.7412 -0.1693
  190SLPC   C2521957   5.058   3.779   7.106  0.0333  0.4421 -0.6849
  190SLPC   H5R21958   5.159   3.786   7.152 -0.0125 -1.3688 -0.2586
  190SLPC   H5S21959   5.031   3.673   7.088  1.1629  0.4391 -2.5532
  190SLPC   C2621960   4.946   3.832   7.198  0.2938  0.2033  0.0980
  190SLPC   H6R21961   4.853   3.804   7.144  0.0476  0.3518  0.4431
  190SLPC   H6S21962   4.947   3.941   7.218 -2.1226 -0.1131  2.6531
  190SLPC   C2721963   4.929   3.739   7.321 -0.3944  0.9618 -0.3665
  190SLPC   H7R21964   5.016   3.753   7.390 -2.0749  1.1297  1.8393
  190SLPC   H7S21965   4.916   3.637   7.280 -1.4061  2.2966 -3.6239
  190SLPC   C2821966   4.812   3.794   7.407 -0.0502  0.4274  0.1438
  190SLPC   H8R21967   4.716   3.777   7.353 -0.1188 -1.0977  0.6796
  190SLPC   H8S21968   4.819   3.904   7.408  0.3634  0.4163 -0.5078
  190SLPC   C2921969   4.818   3.752   7.551  0.2920 -0.5054  0.2625
  190SLPC   H9R21970   4.911   3.706   7.588 -0.6396 -0.5204  2.7703
  190SLPC  C21021971   4.715   3.765   7.640 -0.7429 -0.4258 -0.2588
  190SLPC  H10R21972   4.739   3.728   7.741  0.8185  0.3014 -0.3311
  190SLPC  C21121973   4.578   3.821   7.614  0.6365 -0.6988  0.1771
  190SLPC  H11R21974   4.509   3.736   7.634  0.7547 -1.0982 -1.0645
  190SLPC  H11S21975   4.578   3.851   7.507  0.4205 -0.6836  0.1818
  190SLPC  C21221976   4.548   3.948   7.695  1.3359 -0.3785  0.2481
  190SLPC  H12R21977   4.581   3.933   7.799  0.6674 -0.0483  0.5083
  190SLPC  C21321978   4.509   4.069   7.650  0.2831  0.3521  0.2381
  190SLPC  H13R21979   4.487   4.152   7.719 -0.9022 -1.2456  1.8885
  190SLPC  C21421980   4.478   4.106   7.507  0.7480  0.2396  0.2172
  190SLPC  H14R21981   4.436   4.015   7.458  2.4231  0.3152 -1.4676
  190SLPC  H14S21982   4.571   4.116   7.449  1.3236 -1.0792  0.8620
  190SLPC  C21521983   4.368   4.216   7.499  0.0003 -0.4321  0.5488
  190SLPC  H15R21984   4.423   4.294   7.556 -0.0269 -1.6479  2.3275
  190SLPC  H15S21985   4.269   4.184   7.537 -1.1729  0.7153 -1.3368
  190SLPC  C21621986   4.354   4.275   7.351  0.5493  0.3159 -0.1830
  190SLPC  H16R21987   4.447   4.250   7.295  1.1237 -1.6809  1.5397
  190SLPC  H16S21988   4.353   4.386   7.350 -0.1470  0.3087 -1.5940
  190SLPC  C21721989   4.223   4.225   7.282 -0.1825  0.0662 -1.3710
  190SLPC  H17R21990   4.149   4.307   7.297  1.1919  1.0349  0.5779
  190SLPC  H17S21991   4.198   4.134   7.339  0.2328  0.4399 -0.5797
  190SLPC  C21821992   4.254   4.201   7.136  0.4062 -0.6974 -0.4000
  190SLPC  H18R21993   4.341   4.133   7.131 -0.6297 -2.0075 -1.5868
  190SLPC  H18S21994   4.285   4.295   7.086  0.0271  0.3756  1.3011
  190SLPC  H18T21995   4.163   4.152   7.093  0.2607 -0.7615 -0.0230
  190SLPC   C3321996   5.164   4.566   7.046 -0.0281 -0.0488 -0.0774
  190SLPC   H3X21997   5.150   4.643   6.968  0.8690  0.0712 -0.1311
  190SLPC   H3Y21998   5.252   4.594   7.108  0.2499 -2.8234  0.9394
  190SLPC   C3421999   5.044   4.570   7.140 -0.0776  0.1567  0.5161
  190SLPC   H4X22000   5.060   4.505   7.229 -0.0063 -1.6283 -0.7576
  190SLPC   H4Y22001   4.951   4.533   7.092  0.2743  1.0167 -0.8608
  190SLPC   C3522002   5.014   4.714   7.167 -0.2525  0.2864 -0.1732
  190SLPC   H5X22003   4.979   4.751   7.068 -0.3225 -1.3746 -0.7911
  190SLPC   H5Y22004   5.108   4.766   7.195  0.2204  0.1727 -1.5098
  190SLPC   C3622005   4.909   4.732   7.282 -0.4171 -0.3323 -0.1250
  190SLPC   H6X22006   4.819   4.668   7.276 -1.7865  1.5562 -0.7878
  190SLPC   H6Y22007   4.881   4.839   7.283  2.0909  0.4029  1.0567
  190SLPC   C3722008   4.973   4.718   7.422 -0.5634 -0.0011 -0.6711
  190SLPC   H7X22009   5.057   4.789   7.431  0.0074 -0.4198 -2.2757
  190SLPC   H7Y22010   5.008   4.618   7.455 -0.8946  0.2002  0.3216
  190SLPC   C3822011   4.885   4.766   7.541 -0.0491 -0.3144  0.6949
  190SLPC   H8X22012   4.789   4.712   7.531 -0.0909 -0.1798  0.3501
  190SLPC   H8Y22013   4.868   4.876   7.544  2.6873  0.1801  0.3948
  190SLPC   C3922014   4.952   4.747   7.680  0.7122 -0.4722  0.9116
  190SLPC   H9X22015   5.055   4.787   7.678  0.8143 -0.7576  0.4920
  190SLPC   H9Y22016   4.952   4.640   7.707 -0.6796 -1.4095 -2.3105
  190SLPC  C31022017   4.880   4.829   7.794  0.1099  0.5964 -0.1563
  190SLPC  H10X22018   4.807   4.758   7.837  1.8994 -1.4639 -0.3511
  190SLPC  H10Y22019   4.823   4.915   7.754  0.8040  0.7913 -0.7543
  190SLPC  C31122020   4.982   4.877   7.899  0.0158 -0.5910 -0.3665
  190SLPC  H11X22021   5.044   4.954   7.849  0.3691 -1.2354 -0.9392
  190SLPC  H11Y22022   5.042   4.787   7.925  0.0317 -0.6853 -0.7142
  190SLPC  C31222023   4.915   4.938   8.023 -0.1561  0.2808  0.7484
  190SLPC  H12X22024   4.830   4.881   8.066  0.1023  1.3874  2.8594
  190SLPC  H12Y22025   4.873   5.036   7.994 -2.2314 -0.8984 -0.4584
  190SLPC  C31322026   5.009   4.977   8.137 -0.7003 -0.2485  0.7349
  190SLPC  H13X22027   5.064   5.065   8.097 -0.4777  0.3399  2.2405
  190SLPC  H13Y22028   5.085   4.900   8.162  1.1235  0.5437 -1.9065
  190SLPC  C31422029   4.934   5.017   8.266 -0.0578  0.1790 -0.3062
  190SLPC  H14X22030   4.859   4.942   8.299  0.7737  0.0723  1.4326
  190SLPC  H14Y22031   4.879   5.114   8.255  1.8973  1.3181 -0.4038
  190SLPC  C31522032   5.027   5.046   8.392  0.2322  0.1212  0.2992
  190SLPC  H15X22033   5.091   5.133   8.365 -0.8229  0.5704 -0.8311
  190SLPC  H15Y22034   5.092   4.957   8.400 -0.4273 -0.2805  1.6592
  190SLPC  C31622035   4.956   5.067   8.530 -0.8456 -0.1450  0.8026
  190SLPC  H16X22036   4.886   4.981   8.543 -2.0477  0.7505  0.4819
  190SLPC  H16Y22037   4.899   5.163   8.532 -1.2846 -0.3504 -0.6567
  190SLPC  C31722038   5.042   5.049   8.652  0.1316  0.0902  0.1076
  190SLPC  H17X22039   5.146   5.065   8.619 -0.0413  0.9409 -0.0474
  190SLPC  H17Y22040   5.028   4.943   8.682  1.8134  0.0801  0.9502
  190SLPC  C31822041   4.998   5.140   8.775  0.4742  0.3282  0.2102
  190SLPC  H18X22042   5.009   5.243   8.735 -1.2481  0.4035 -0.1421
  190SLPC  H18Y22043   5.071   5.126   8.858  1.9138 -1.8920 -1.3268
  190SLPC  H18Z22044   4.893   5.122   8.806 -0.2690 -1.0128 -2.7180
  191SLPC     N22045   0.294   5.134   5.723 -0.1211 -0.5068  0.0161
  191SLPC   C1322046   0.433   5.190   5.742  0.3942  0.2135  0.4590
  191SLPC  H13A22047   0.474   5.205   5.644 -1.9237 -0.3615 -0.6711
  191SLPC  H13B22048   0.425   5.283   5.796  1.0115  0.5921 -0.0893
  191SLPC  H13C22049   0.488   5.116   5.799  0.0391  1.9129  3.2243
  191SLPC   C1422050   0.302   5.012   5.637  0.1111 -0.1115 -0.6230
  191SLPC  H14A22051   0.217   4.949   5.658  1.3555 -0.8832  2.5930
  191SLPC  H14B22052   0.319   5.026   5.531 -2.1249  2.5994 -0.7418
  191SLPC  H14C22053   0.389   4.952   5.656 -0.0258 -0.6139 -1.5321
  191SLPC   C1522054   0.209   5.233   5.648  0.2553 -1.0348 -0.1100
  191SLPC  H15A22055   0.179   5.320   5.704 -1.9253 -1.4269 -0.5745
  191SLPC  H15B22056   0.264   5.266   5.561  1.2675  1.2932  1.3196
  191SLPC  H15C22057   0.116   5.190   5.614  0.7948 -0.4370 -2.5348
  191SLPC   C1222058   0.235   5.079   5.847  0.0674 -0.0250 -0.4629
  191SLPC  H12A22059   0.297   4.995   5.875 -2.0803 -1.2938  0.8294
  191SLPC  H12B22060   0.144   5.034   5.811  0.7834 -0.7073 -1.4555
  191SLPC   C1122061   0.223   5.165   5.969 -0.2526  0.3057  0.0325
  191SLPC  H11A22062   0.318   5.217   5.993 -0.3601  0.3572  0.3472
  191SLPC  H11B22063   0.192   5.105   6.057 -0.8306  0.7708  0.1578
  191SLPC     P22064  -0.022   5.246   5.969  0.0598  0.0097  0.0391
  191SLPC   O1322065  -0.102   5.331   5.882  0.1109  0.6168 -0.3517
  191SLPC   O1422066  -0.040   5.103   5.970  0.4648  0.7764 -0.3939
  191SLPC   O1222067   0.133   5.277   5.941  0.3571 -0.0014  0.1812
  191SLPC   O1122068  -0.046   5.301   6.107 -0.2825  0.3277  0.7565
  191SLPC    C122069   0.047   5.403   6.159  0.0027 -0.0985  0.0040
  191SLPC    HA22070   0.129   5.342   6.204  0.1630 -0.9969 -1.4436
  191SLPC    HB22071   0.087   5.467   6.078  2.8489 -0.5390  0.9384
  191SLPC    C222072  -0.019   5.496   6.262 -0.3390  0.0603 -0.3575
  191SLPC    HS22073   0.057   5.557   6.316  0.8266 -1.2897 -0.4118
  191SLPC   O2122074  -0.091   5.407   6.351  0.4945 -0.1837  0.0600
  191SLPC   C2122075  -0.021   5.361   6.441  0.4284  0.4282  0.4752
  191SLPC   O2222076   0.101   5.358   6.453 -0.5186 -0.1908  0.5464
  191SLPC   C2222077  -0.112   5.298   6.551 -0.1849  0.9027  0.0208
  191SLPC   H2R22078  -0.184   5.377   6.581 -0.9995  0.9423 -1.9446
  191SLPC   H2S22079  -0.168   5.215   6.502  0.9734 -0.0692  0.2898
  191SLPC    C322080  -0.128   5.587   6.190 -0.2833 -0.3065 -0.1527
  191SLPC    HX22081  -0.160   5.525   6.104  1.6003  0.8633 -1.7895
  191SLPC    HY22082  -0.084   5.679   6.147 -0.6456 -0.4409 -0.8164
  191SLPC   O3122083  -0.244   5.619   6.273 -0.5106 -0.8116  0.3684
  191SLPC   C3122084  -0.227   5.727   6.347  0.1933 -0.4913  0.2106
  191SLPC   O3222085  -0.122   5.794   6.353 -0.5140  0.8055  0.2705
  191SLPC   C3222086  -0.358   5.768   6.419 -0.1069  0.0463  0.2437
  191SLPC   H2X22087  -0.443   5.743   6.352 -1.6161  0.5190  1.8984
  191SLPC   H2Y22088  -0.361   5.879   6.431  0.6889 -0.1165  2.2911
  191SLPC   C2322089  -0.054   5.230   6.684 -0.0762 -0.2808  0.2406
  191SLPC   H3R22090   0.026   5.157   6.661  0.5977  1.0799 -2.1959
  191SLPC   H3S22091  -0.130   5.161   6.725  1.5478 -0.8243  2.5108
  191SLPC   C2422092  -0.023   5.331   6.796 -0.2095 -0.2920  0.1758
  191SLPC   H4R22093  -0.112   5.399   6.797  1.4701  2.0193  1.4780
  191SLPC   H4S22094   0.058   5.395   6.755 -2.0672  2.0819 -0.0666
  191SLPC   C2522095   0.001   5.270   6.930  0.0864 -0.6292 -0.2926
  191SLPC   H5R22096   0.087   5.201   6.924  1.7695  1.3256  0.1387
  191SLPC   H5S22097  -0.086   5.207   6.960  0.6535 -0.7773  1.1271
  191SLPC   C2622098   0.029   5.378   7.040  0.1619  0.5529 -0.0533
  191SLPC   H6R22099  -0.063   5.439   7.052 -0.4914 -0.4424  0.1355
  191SLPC   H6S22100   0.110   5.447   7.007 -0.8250  1.6331 -0.2903
  191SLPC   C2722101   0.067   5.301   7.174 -0.6383  0.7308 -0.6527
  191SLPC   H7R22102   0.154   5.233   7.158 -1.8052 -0.2758 -3.4326
  191SLPC   H7S22103  -0.019   5.235   7.199  0.1309  0.3747  1.2104
  191SLPC   C2822104   0.102   5.400   7.288  0.6743  0.5918  0.0582
  191SLPC   H8R22105   0.031   5.486   7.280 -0.0381 -0.0623 -0.8773
  191SLPC   H8S22106   0.198   5.439   7.247  1.0451 -1.9441 -1.6797
  191SLPC   C2922107   0.117   5.353   7.431 -0.6739 -0.0409 -0.3766
  191SLPC   H9R22108   0.203   5.288   7.452 -0.1967  0.9010  0.7480
  191SLPC  C21022109   0.029   5.378   7.535  0.0034  0.2421 -0.1951
  191SLPC  H10R22110   0.077   5.334   7.624 -1.6585 -2.6490 -0.6019
  191SLPC  C21122111  -0.102   5.465   7.541  0.1589 -0.4597 -0.2803
  191SLPC  H11R22112  -0.092   5.540   7.459  0.7161 -0.8283 -0.5580
  191SLPC  H11S22113  -0.115   5.515   7.640 -1.0095 -2.2303  0.5015
  191SLPC  C21222114  -0.213   5.367   7.502  0.0514  0.5500 -0.5923
  191SLPC  H12R22115  -0.220   5.320   7.403 -1.6699  0.0128 -0.2430
  191SLPC  C21322116  -0.307   5.319   7.590 -0.7776 -0.5275  0.3796
  191SLPC  H13R22117  -0.378   5.241   7.560 -1.3664 -0.4435  1.5040
  191SLPC  C21422118  -0.306   5.362   7.737  0.7393 -0.6692  0.2023
  191SLPC  H14R22119  -0.414   5.364   7.763  0.1214 -1.3531 -2.0572
  191SLPC  H14S22120  -0.262   5.461   7.763 -1.6886  0.0127  2.0326
  191SLPC  C21522121  -0.243   5.257   7.823 -0.2236  0.1285 -0.0766
  191SLPC  H15R22122  -0.148   5.233   7.771  0.2075  2.6445 -0.5924
  191SLPC  H15S22123  -0.289   5.156   7.818 -0.3975  0.2631 -1.5830
  191SLPC  C21622124  -0.240   5.298   7.969  0.1335  0.1950 -0.0966
  191SLPC  H16R22125  -0.344   5.322   8.001 -0.0947 -2.7141  1.7406
  191SLPC  H16S22126  -0.173   5.385   7.985  0.1529  0.6556 -2.3548
  191SLPC  C21722127  -0.183   5.182   8.063 -0.1710  0.0341 -0.1678
  191SLPC  H17R22128  -0.074   5.172   8.042  0.0679  0.9185  0.5679
  191SLPC  H17S22129  -0.218   5.084   8.025  0.7347 -0.3228 -0.0924
  191SLPC  C21822130  -0.201   5.190   8.207  0.3256 -0.2126 -0.6711
  191SLPC  H18R22131  -0.144   5.273   8.253  0.2051 -0.5793  0.1482
  191SLPC  H18S22132  -0.167   5.098   8.259  0.5615  1.1413  1.7244
  191SLPC  H18T22133  -0.310   5.198   8.224 -0.0621 -1.7669 -2.1187
  191SLPC   C3322134  -0.382   5.691   6.549 -0.1940 -0.3905  0.3434
  191SLPC   H3X22135  -0.390   5.585   6.515  0.0428 -0.3978  0.3091
  191SLPC   H3Y22136  -0.484   5.707   6.588 -0.8337 -3.3211  0.1054
  191SLPC   C3422137  -0.287   5.717   6.668 -0.1506  0.3421 -0.6998
  191SLPC   H4X22138  -0.280   5.826   6.685 -1.4671  0.3926 -0.3730
  191SLPC   H4Y22139  -0.189   5.678   6.633  1.7487  2.1400  2.2203
  191SLPC   C3522140  -0.317   5.627   6.794  0.1235  0.1760 -0.0983
  191SLPC   H5X22141  -0.305   5.521   6.761 -1.2310 -0.6052  1.7627
  191SLPC   H5Y22142  -0.422   5.635   6.829 -0.1286 -1.9634 -0.1821
  191SLPC   C3622143  -0.229   5.670   6.910 -0.3296 -0.4623 -0.5947
  191SLPC   H6X22144  -0.203   5.776   6.891 -0.7899 -0.1411  0.4771
  191SLPC   H6Y22145  -0.134   5.614   6.914  0.4525  0.8838  0.5667
  191SLPC   C3722146  -0.301   5.662   7.043  0.0227 -0.4539 -0.5045
  191SLPC   H7X22147  -0.323   5.554   7.055  3.1903 -1.0495  1.1005
  191SLPC   H7Y22148  -0.396   5.719   7.037  0.5701  0.4477 -0.8400
  191SLPC   C3822149  -0.220   5.716   7.165 -0.3999 -0.0236  0.2894
  191SLPC   H8X22150  -0.199   5.823   7.148 -1.6277  0.2272  0.3236
  191SLPC   H8Y22151  -0.126   5.663   7.193 -2.7480 -3.2540  2.8086
  191SLPC   C3922152  -0.312   5.704   7.285  0.3901 -0.1631  0.3547
  191SLPC   H9X22153  -0.297   5.605   7.332 -1.3638 -1.6448 -1.9898
  191SLPC   H9Y22154  -0.421   5.700   7.264  0.3511 -1.5900  0.7664
  191SLPC  C31022155  -0.296   5.810   7.394  1.3265  0.2558 -0.2118
  191SLPC  H10X22156  -0.314   5.908   7.345 -0.6999  0.6229  1.1150
  191SLPC  H10Y22157  -0.189   5.816   7.421  1.4203  2.0781 -0.8456
  191SLPC  C31122158  -0.381   5.772   7.513  0.4158 -0.1421 -0.1372
  191SLPC  H11X22159  -0.410   5.668   7.540 -0.6679 -0.1230 -1.1265
  191SLPC  H11Y22160  -0.482   5.817   7.501  0.6690 -0.0967 -2.4181
  191SLPC  C31222161  -0.305   5.821   7.636  0.2816 -0.2387 -0.2476
  191SLPC  H12X22162  -0.276   5.927   7.619 -0.8190  0.0452 -0.4381
  191SLPC  H12Y22163  -0.217   5.757   7.658  2.4003  1.6949 -2.5384
  191SLPC  C31322164  -0.390   5.808   7.761 -0.6147  0.8297  0.7947
  191SLPC  H13X22165  -0.399   5.704   7.800 -1.8394  0.6329  0.0399
  191SLPC  H13Y22166  -0.490   5.842   7.726  0.2616  0.3080 -2.6338
  191SLPC  C31422167  -0.341   5.899   7.878  0.0494  0.5283  0.3148
  191SLPC  H14X22168  -0.350   6.006   7.846  1.0732  0.6367  0.3469
  191SLPC  H14Y22169  -0.236   5.887   7.913  0.6125  2.0366 -0.7414
  191SLPC  C31522170  -0.436   5.880   7.992  0.1374 -0.0715  0.1051
  191SLPC  H15X22171  -0.509   5.796   7.984 -0.6607  0.6055  0.1014
  191SLPC  H15Y22172  -0.495   5.974   8.000  1.0789  0.6127 -0.7889
  191SLPC  C31622173  -0.372   5.857   8.128 -0.0360  0.3503 -0.2565
  191SLPC  H16X22174  -0.451   5.878   8.202 -1.0803 -0.8452 -0.9932
  191SLPC  H16Y22175  -0.293   5.935   8.138 -1.8169  2.2589 -0.2960
  191SLPC  C31722176  -0.298   5.727   8.164  0.0112 -0.1886 -0.3172
  191SLPC  H17X22177  -0.192   5.732   8.133 -0.0989 -0.5570 -0.7669
  191SLPC  H17Y22178  -0.333   5.642   8.102 -0.7818  0.0044 -0.1474
  191SLPC  C31822179  -0.290   5.688   8.306  0.4003  0.3910  0.6053
  191SLPC  H18X22180  -0.252   5.771   8.369 -1.2294  0.6484  1.2887
  191SLPC  H18Y22181  -0.239   5.590   8.326  0.1948 -0.0937 -1.1001
  191SLPC  H18Z22182  -0.394   5.687   8.346  0.0269 -0.3368 -0.3434
  192SLPC     N22183   0.460   0.664   6.423  0.3807  0.3889  0.0200
  192SLPC   C1322184   0.419   0.780   6.329 -1.2942  0.0464  0.1873
  192SLPC  H13A22185   0.390   0.871   6.378 -2.2193 -1.0108  1.6994
  192SLPC  H13B22186   0.502   0.801   6.264  1.0921 -2.3865  2.1884
  192SLPC  H13C22187   0.330   0.745   6.279 -2.0923  0.6814  1.1329
  192SLPC   C1422188   0.587   0.693   6.480 -0.1614  0.4879  0.2725
  192SLPC  H14A22189   0.579   0.787   6.533  1.5648  0.7973  0.0638
  192SLPC  H14B22190   0.608   0.608   6.543 -0.5242 -3.9391 -4.8738
  192SLPC  H14C22191   0.662   0.711   6.404 -0.7687 -0.9591 -0.6989
  192SLPC   C1522192   0.463   0.546   6.329 -0.2839  0.3765  0.0653
  192SLPC  H15A22193   0.515   0.462   6.372  2.6565  2.2299  0.4238
  192SLPC  H15B22194   0.368   0.509   6.294  0.7686 -4.0214  1.2749
  192SLPC  H15C22195   0.520   0.573   6.241  0.9039  0.7357  0.9092
  192SLPC   C1222196   0.360   0.642   6.532  0.2137  0.1754  0.0417
  192SLPC  H12A22197   0.373   0.539   6.564  1.8650  1.0368  2.4429
  192SLPC  H12B22198   0.262   0.646   6.487 -0.0572 -0.1344  0.5892
  192SLPC   C1122199   0.361   0.735   6.657  0.4251 -0.9025  0.1187
  192SLPC  H11A22200   0.440   0.714   6.732  0.9257  0.3722 -0.0127
  192SLPC  H11B22201   0.261   0.722   6.703 -0.5830 -0.4060 -1.8050
  192SLPC     P22202   0.390   0.990   6.715 -0.2148 -0.2264  0.4295
  192SLPC   O1322203   0.530   1.043   6.706  0.0801 -0.4448 -0.3815
  192SLPC   O1422204   0.278   1.086   6.700 -0.9333 -0.0505  0.2644
  192SLPC   O1222205   0.365   0.876   6.615  0.1478  0.6553 -0.2616
  192SLPC   O1122206   0.369   0.927   6.859  0.5600  0.8810  0.0272
  192SLPC    C122207   0.247   0.948   6.932 -0.2508 -0.4284 -0.3577
  192SLPC    HA22208   0.218   1.055   6.936  2.0497  0.2125  1.9680
  192SLPC    HB22209   0.166   0.894   6.877 -0.4650  0.3032 -0.7685
  192SLPC    C222210   0.256   0.894   7.081  0.0466 -0.2516  0.1307
  192SLPC    HS22211   0.161   0.922   7.132  0.1227 -0.0653  0.1671
  192SLPC   O2122212   0.377   0.950   7.145 -0.3652  0.0443  0.4763
  192SLPC   C2122213   0.396   1.072   7.162  0.4765  0.2506 -0.2153
  192SLPC   O2222214   0.305   1.158   7.143 -0.9339  0.8651  0.1113
  192SLPC   C2222215   0.535   1.091   7.220 -0.1303 -0.1041 -0.1999
  192SLPC   H2R22216   0.558   1.005   7.286 -1.1736 -0.9369 -0.8798
  192SLPC   H2S22217   0.606   1.088   7.135 -0.3694 -0.9033 -0.3778
  192SLPC    C322218   0.265   0.741   7.075 -0.0539 -0.2185 -0.6151
  192SLPC    HX22219   0.341   0.707   7.001  0.6712  0.1115 -0.0372
  192SLPC    HY22220   0.167   0.717   7.028 -1.1620  2.2329  0.2860
  192SLPC   O3122221   0.275   0.694   7.210 -0.5622 -0.1112 -0.5739
  192SLPC   C3122222   0.391   0.654   7.241 -0.0376 -0.2940 -0.2283
  192SLPC   O3222223   0.489   0.657   7.167 -0.0107 -0.4776 -0.3180
  192SLPC   C3222224   0.379   0.593   7.386  0.0179 -0.1109  0.0871
  192SLPC   H2X22225   0.306   0.510   7.400  1.0618 -1.3429 -1.3642
  192SLPC   H2Y22226   0.336   0.673   7.450  3.0493  1.1545  0.7253
  192SLPC   C2322227   0.552   1.227   7.295  1.0112 -0.6871  0.1072
  192SLPC   H3R22228   0.511   1.297   7.219  2.2109 -1.6126 -1.4567
  192SLPC   H3S22229   0.661   1.241   7.314  1.2228 -0.2849 -1.2946
  192SLPC   C2422230   0.476   1.244   7.425 -0.3375 -0.3853  0.9075
  192SLPC   H4R22231   0.492   1.141   7.464 -1.3634 -0.9599 -0.1217
  192SLPC   H4S22232   0.369   1.271   7.416  0.3003  2.1099  0.0030
  192SLPC   C2522233   0.533   1.342   7.522 -0.1712 -0.0802  0.2789
  192SLPC   H5R22234   0.540   1.443   7.476 -1.0028  0.8620  2.1410
  192SLPC   H5S22235   0.637   1.318   7.553  0.0976  2.6944  1.8249
  192SLPC   C2622236   0.439   1.352   7.638 -0.2264  0.3267 -0.1228
  192SLPC   H6R22237   0.406   1.249   7.663 -0.2365  0.4929  0.5825
  192SLPC   H6S22238   0.346   1.404   7.607 -1.7148 -2.6338 -0.9935
  192SLPC   C2722239   0.513   1.414   7.754 -0.1893  0.8444  0.4700
  192SLPC   H7R22240   0.604   1.473   7.730 -0.3390  0.4646 -1.0709
  192SLPC   H7S22241   0.549   1.337   7.826 -1.4024  0.1682  0.3674
  192SLPC   C2822242   0.419   1.528   7.814 -0.4389  0.3948  0.4923
  192SLPC   H8R22243   0.310   1.507   7.819 -0.5037  0.5387 -0.2974
  192SLPC   H8S22244   0.440   1.603   7.735  2.1760 -0.8852 -0.1426
  192SLPC   C2922245   0.468   1.567   7.952  0.1618 -0.1577  0.3450
  192SLPC   H9R22246   0.573   1.598   7.945 -0.5016  1.9575 -2.0220
  192SLPC  C21022247   0.392   1.558   8.064  0.2241  0.2971 -0.9368
  192SLPC  H10R22248   0.446   1.578   8.158 -0.3840 -1.9782 -0.0298
  192SLPC  C21122249   0.243   1.520   8.074 -0.1092  0.0934 -0.5769
  192SLPC  H11R22250   0.194   1.580   7.995 -0.0329  2.0997  0.8322
  192SLPC  H11S22251   0.208   1.559   8.172 -0.8589 -1.2490 -0.2888
  192SLPC  C21222252   0.217   1.371   8.054  0.1676  0.2257  0.1033
  192SLPC  H12R22253   0.288   1.309   8.110 -1.1748  1.3452  3.2899
  192SLPC  C21322254   0.134   1.312   7.965  0.3185 -0.2291 -0.2196
  192SLPC  H13R22255   0.142   1.202   7.970 -1.5068 -0.3379  1.4224
  192SLPC  C21422256   0.032   1.377   7.884  0.2714 -0.4239 -0.2266
  192SLPC  H14R22257   0.055   1.326   7.788 -1.9634 -3.4238  0.6614
  192SLPC  H14S22258   0.024   1.487   7.871 -1.7494 -0.5959 -0.8069
  192SLPC  C21522259  -0.109   1.343   7.933  0.1739  0.5471 -0.6169
  192SLPC  H15R22260  -0.126   1.234   7.925 -1.1392  0.7779 -1.1613
  192SLPC  H15S22261  -0.191   1.380   7.868 -2.2076 -1.0727  1.2984
  192SLPC  C21622262  -0.134   1.388   8.083 -0.2599 -0.3799  0.2658
  192SLPC  H16R22263  -0.129   1.499   8.091 -0.3995 -0.2703 -0.9387
  192SLPC  H16S22264  -0.060   1.330   8.143  2.2683  0.1863 -2.0657
  192SLPC  C21722265  -0.272   1.363   8.129  0.1495  0.2597  0.1618
  192SLPC  H17R22266  -0.349   1.381   8.052 -3.3788 -2.3079  2.7684
  192SLPC  H17S22267  -0.290   1.256   8.151 -1.9303  0.8433  1.5275
  192SLPC  C21822268  -0.299   1.439   8.255  0.1532  0.0656 -0.0235
  192SLPC  H18R22269  -0.244   1.404   8.345 -0.4149 -0.0534  0.2823
  192SLPC  H18S22270  -0.409   1.447   8.270  0.2522  2.0757 -0.0258
  192SLPC  H18T22271  -0.268   1.545   8.240 -0.4336  0.4448  1.2373
  192SLPC   C3322272   0.517   0.546   7.439 -0.0595  0.0013  0.2627
  192SLPC   H3X22273   0.591   0.626   7.419 -0.4898  0.0028 -1.4675
  192SLPC   H3Y22274   0.544   0.458   7.377 -2.3322  0.1986 -1.1211
  192SLPC   C3422275   0.520   0.504   7.585  0.2133 -0.0239  0.3819
  192SLPC   H4X22276   0.445   0.422   7.596  1.6823 -1.6017 -0.8150
  192SLPC   H4Y22277   0.496   0.581   7.661  1.6668 -0.2931  1.1478
  192SLPC   C3522278   0.654   0.437   7.634 -0.3125 -0.0657  0.9812
  192SLPC   H5X22279   0.732   0.515   7.618 -0.4652 -0.1878 -0.5318
  192SLPC   H5Y22280   0.674   0.357   7.559 -4.4036  0.0609 -0.4868
  192SLPC   C3622281   0.651   0.402   7.781 -0.2616 -0.4899  0.0900
  192SLPC   H6X22282   0.600   0.304   7.793  0.2943 -0.5372  2.5705
  192SLPC   H6Y22283   0.600   0.477   7.845 -0.6526  0.3379 -1.1381
  192SLPC   C3722284   0.787   0.389   7.848  0.0243  0.6565  0.5806
  192SLPC   H7X22285   0.848   0.482   7.848  1.9066 -0.5242 -1.3474
  192SLPC   H7Y22286   0.847   0.304   7.811 -1.0674  0.1982 -0.1672
  192SLPC   C3822287   0.774   0.369   8.004  0.8960  0.0728  0.6819
  192SLPC   H8X22288   0.696   0.292   8.024  0.9077 -0.2989 -0.6650
  192SLPC   H8Y22289   0.723   0.461   8.041 -1.9645 -0.4086 -1.7381
  192SLPC   C3922290   0.905   0.337   8.072  0.7031 -0.5174 -0.3280
  192SLPC   H9X22291   0.968   0.429   8.078  0.3262 -0.2353 -0.5956
  192SLPC   H9Y22292   0.946   0.253   8.012 -1.7321 -1.8595 -0.1997
  192SLPC  C31022293   0.898   0.285   8.216 -0.1411 -0.0336 -0.4009
  192SLPC  H10X22294   0.856   0.182   8.209 -2.7305  0.9118  0.3599
  192SLPC  H10Y22295   0.826   0.346   8.273  0.6450  0.9508 -0.4366
  192SLPC  C31122296   1.024   0.271   8.304 -0.2665 -0.0967 -0.1871
  192SLPC  H11X22297   1.103   0.219   8.246 -1.0203 -0.6510 -0.7406
  192SLPC  H11Y22298   1.013   0.198   8.388 -0.4963 -1.3016 -1.2248
  192SLPC  C31222299   1.074   0.405   8.355  0.7202 -0.1469 -0.1654
  192SLPC  H12X22300   0.989   0.455   8.406  0.4577 -0.1648 -0.5842
  192SLPC  H12Y22301   1.095   0.459   8.260  0.5401 -0.9100 -0.6402
  192SLPC  C31322302   1.196   0.395   8.443 -0.0006  0.0631 -0.9468
  192SLPC  H13X22303   1.169   0.320   8.520 -2.1878  2.4789  0.8135
  192SLPC  H13Y22304   1.220   0.489   8.497 -1.5997  0.0945 -0.2276
  192SLPC  C31422305   1.324   0.350   8.377 -0.1357 -0.5867 -0.8807
  192SLPC  H14X22306   1.285   0.269   8.312 -4.6363  0.1797  0.4634
  192SLPC  H14Y22307   1.396   0.307   8.449 -1.6774  0.1804  1.2388
  192SLPC  C31522308   1.399   0.462   8.305  0.0917  0.5057  0.6365
  192SLPC  H15X22309   1.429   0.534   8.384 -4.0287 -0.5259  3.5290
  192SLPC  H15Y22310   1.319   0.508   8.244  0.6254  0.2596 -0.2675
  192SLPC  C31622311   1.520   0.401   8.226 -0.3166 -0.5639  0.1270
  192SLPC  H16X22312   1.564   0.487   8.171  2.3326 -1.1623  1.1297
  192SLPC  H16Y22313   1.468   0.340   8.150 -0.5412 -1.2223  0.7918
  192SLPC  C31722314   1.638   0.332   8.295 -0.3914 -0.6915 -0.0021
  192SLPC  H17X22315   1.607   0.245   8.356 -0.8644 -0.5077  0.0254
  192SLPC  H17Y22316   1.691   0.404   8.362 -2.5099  0.9061  0.0906
  192SLPC  C31822317   1.736   0.262   8.195  0.5917  0.2115  0.0182
  192SLPC  H18X22318   1.694   0.188   8.123  1.4717 -0.5822  0.2935
  192SLPC  H18Y22319   1.807   0.198   8.252 -1.0391 -1.8213 -0.1086
  192SLPC  H18Z22320   1.800   0.332   8.138  0.3053  0.3094 -0.1871
  193SOD    SOD22321   0.123   6.251  16.454  0.1958 -0.0552  0.2800
  194SOD    SOD22322   5.066   0.727  12.567  0.0325  0.8715  0.0231
  195SOD    SOD22323   3.049   3.338   2.634  0.1744 -0.2311  0.0739
  196SOD    SOD22324   1.157   0.987  10.922  0.2710 -0.0006 -0.4369
  197SOD    SOD22325   4.726   4.374   1.328  0.2876  0.6795 -0.2633
  198SOD    SOD22326   5.360   5.355   6.463 -0.7910 -0.0007  0.3599
  199SOD    SOD22327   5.322   1.395   5.400  0.0833  0.3366 -0.1622
  200SOD    SOD22328   0.212   4.527   6.512  0.5346  0.1644  0.1630
  201SOD    SOD22329   3.081   2.921   0.045  0.0793 -0.2230  0.5240
  202SOD    SOD22330   2.107   5.814   3.512 -0.5381 -0.1394 -0.4745
  203SOD    SOD22331   4.499   3.063   4.896  0.2853  0.2552 -0.3045
  204SOD    SOD22332   2.058   5.724   0.923 -0.1216  0.6052 -0.1827
  205SOD    SOD22333   6.060   6.809  13.724  0.5980 -0.3253 -0.2395
  206SOD    SOD22334   4.334   5.573   1.950 -0.0863 -0.3908  0.4398
  207SOD    SOD22335   0.929   4.536  11.789  0.1084  0.3589 -0.4492
  208SOD    SOD22336   5.742   3.320   3.982  0.2116  0.1587 -0.0098
  209SOD    SOD22337   4.382   5.983  13.125 -0.1681  0.1565  0.2038
  210SOD    SOD22338   1.229   6.345  15.632 -0.3099 -0.2041 -0.2398
  211SOD    SOD22339   1.173   0.597   0.119 -0.0012 -0.2322 -0.1812
  212SOD    SOD22340   1.163   2.017   0.294  0.0163  0.3713 -0.5742
  213SOD    SOD22341   1.029   3.354   0.502  0.0542  0.1148  0.1481
  214SOD    SOD22342   6.678   2.135  12.205  0.0979  0.1032  0.1506
  215SOD    SOD22343   2.962   2.510  13.509 -0.1321 -0.0364 -0.1003
  216SOD    SOD22344   4.729   4.090  10.962 -0.2679 -0.0551 -0.3637
  217SOD    SOD22345   5.538   4.474  11.595 -0.4008 -0.1335 -0.2543
  218SOD    SOD22346   6.264   2.556  15.329 -0.0789  0.0042  0.0708
  219SOD    SOD22347   0.717   5.048   5.205 -0.0473 -0.4899 -0.3094
  220SOD    SOD22348   6.044   1.217   4.746 -0.2806  0.1227  0.6380
  221SOD    SOD22349   0.951   2.359  11.709  0.3908 -0.2545  0.0984
  222SOD    SOD22350   3.171   0.659   2.542 -0.2042 -0.1624 -0.3850
  223SOD    SOD22351   1.413   0.114  10.541 -0.0597 -0.3913  0.0603
  224SOD    SOD22352   5.890   4.576  13.853 -0.4768 -0.3844 -0.0598
  225SOD    SOD22353   2.037   6.689   2.307 -0.2441 -0.0300  0.0372
  226SOD    SOD22354   1.963   2.335  12.485  0.0895  0.1140 -0.1150
  227SOD    SOD22355   5.648   3.472  11.095  0.1556 -0.2590  0.6517
  228SOD    SOD22356   4.473   3.758  13.743  0.3764  0.6814  0.0775
  229SOD    SOD22357   6.451   2.225  10.885 -0.3784 -0.2933 -1.2179
  230SOD    SOD22358   1.992   0.820   2.800 -0.0664  0.1304 -0.6437
  231SOD    SOD22359   2.598   3.484  12.239 -0.0248  0.1518 -0.5703
  232SOD    SOD22360   1.954   1.012   1.669 -0.3492  0.3148  0.1394
  233SOD    SOD22361   5.024   4.259   5.355 -0.2731 -0.4249  0.0734
  234SOD    SOD22362   0.491   5.844   0.681  0.1955 -0.1734  0.3943
  235SOD    SOD22363   0.692   0.423   0.838  0.1367  0.3985 -0.2797
  236SOD    SOD22364   0.929   1.861  15.933  0.7331  0.2187 -0.2552
  237SOD    SOD22365   3.261   0.654   4.519  0.1478 -0.5169 -0.3323
  238SOD    SOD22366   6.609   0.830  11.159  0.3768 -0.0375 -0.5567
  239SOD    SOD22367   5.185   5.258  11.405 -0.4282  0.2041  0.7721
  240SOD    SOD22368   4.031   0.109  11.662 -0.1708 -0.1253 -0.1859
  241SOD    SOD22369   0.054   1.970   6.153 -0.0437  0.5852 -0.2955
  242SOD    SOD22370   6.422   2.762  14.633  0.3989 -0.4773 -0.6043
  243SOD    SOD22371   2.458   6.499  16.724  0.1492 -0.0491 -0.2316
  244SOD    SOD22372   0.829   3.672  14.856  0.1304  0.1156  0.3832
  245SOD    SOD22373   4.699   6.731   5.125 -0.0163 -0.1836  0.0100
  246SOD    SOD22374   1.814   2.429   6.537 -0.0359  0.1027 -0.6607
  247SOD    SOD22375   4.360   1.513   0.884 -0.6991  0.2879  0.0893
  248SOD    SOD22376   2.018   1.685  16.136  0.2414  0.0479  0.2705
  249SOD    SOD22377   0.318   0.716  15.126  0.2243 -0.4974 -0.6433
  250SOD    SOD22378   5.691   4.512   4.580  0.2071 -0.7491 -0.3145
  251SOD    SOD22379   4.038   3.262  16.289  0.1842 -0.1563  0.4810
  252SOD    SOD22380   0.389   1.370   2.809  0.3364 -0.0470  0.5091
  253SOD    SOD22381   5.563   6.114   2.718 -0.1921 -0.0057  0.1530
  254SOD    SOD22382   3.578   6.033  16.244 -0.2274 -0.0197 -0.7217
  255SOD    SOD22383   5.834   3.393   2.971  0.2975  0.0157 -0.0811
  256SOD    SOD22384   3.713   3.703  14.178  0.0963 -0.0498  0.4848
  257SOD    SOD22385   3.855   0.408   1.916 -0.2048 -0.3921  0.3912
  258SOD    SOD22386   3.414   2.852   0.818  0.1279 -0.2825  0.6487
  259SOD    SOD22387   0.941   0.938  13.094 -0.0706 -0.1678 -0.2291
  260SOD    SOD22388   5.908   0.777   4.063 -0.4182 -0.3095  0.1854
  261SOD    SOD22389   6.774   3.956   0.657  0.4517  0.0260  0.3251
  262SOD    SOD22390   1.734   5.522  15.855 -0.4463  0.0255  0.4695
  263SOD    SOD22391   0.646   1.356   1.388  0.0076 -0.3415  0.2317
  264SOD    SOD22392   2.610   3.361   4.784  0.0404 -0.0703 -0.0084
  265SOD    SOD22393   2.036   5.025   2.651 -0.1686  0.0006  0.0574
  266CLA    CLA22394   4.061   4.666   5.074 -0.3471  0.4681  0.1311
  267CLA    CLA22395   3.672   3.779  11.288  0.4267 -0.1429 -0.0297
  268CLA    CLA22396   4.338   2.381   0.294 -0.0036  0.3273 -0.3264
  269CLA    CLA22397   0.192   5.096  13.593 -0.1364  0.0785  0.5038
  270CLA    CLA22398   1.043   3.997  15.877 -0.0522  0.1851 -0.4798
  271CLA    CLA22399   1.919   0.014   4.826 -0.2562 -0.1077  0.0217
  272CLA    CLA22400   0.686   0.549   2.035 -0.1165  0.4950  0.1142
  273CLA    CLA22401   1.120   1.559  14.578  0.3517  0.4398  0.2600
  274CLA    CLA22402   5.508   3.935   2.829 -0.2761 -0.7006 -0.2658
  275CLA    CLA22403   2.137   5.601   3.024  0.0090 -0.1791 -0.1314
  276CLA    CLA22404   0.442   2.106  12.584  0.3643 -0.0563 -0.2405
  277CLA    CLA22405   2.947   1.785   2.156 -0.2553  0.4734  0.5590
  278CLA    CLA22406   0.770   6.496  16.304 -0.0567  0.0810  0.0644
  279CLA    CLA22407   3.451   1.104   0.934 -0.1686 -0.2503 -0.2394
  280CLA    CLA22408   1.946   4.114   1.937 -0.2805  0.0351  0.1631
  281CLA    CLA22409   3.240   3.119  14.123  0.2880  0.1595 -0.0237
  282CLA    CLA22410   0.498   3.404  14.571  0.3922  0.1654  0.2264
  283CLA    CLA22411   1.503   6.453  14.326 -0.1665  0.2518  0.0388
  284CLA    CLA22412   3.422   0.863   4.514  0.2031 -0.2056  0.1443
  285CLA    CLA22413   2.296   1.154   2.416  0.2010 -0.2030 -0.0484
  286CLA    CLA22414   6.569   5.123  14.703 -0.0999  0.4176 -0.0226
  287CLA    CLA22415   2.683   6.200   1.644  0.2034 -0.1425  0.1688
  288CLA    CLA22416   4.819   0.337   2.958 -0.1901  0.7792 -0.0221
  289CLA    CLA22417   2.684   0.640   2.847 -0.2315 -0.4538  0.0318
  290CLA    CLA22418   5.700   3.214  16.366 -0.0119 -0.1588  0.3150
  291CLA    CLA22419   1.294   6.254  16.514  0.0295 -0.6758  0.1617
  292CLA    CLA22420   1.478   5.396  11.144 -0.3077 -0.1676 -0.2473
  293CLA    CLA22421   5.617   3.972   1.803  0.1616 -0.5758 -0.1897
  294CLA    CLA22422   3.874   6.352  16.444 -0.0621  0.1319 -0.4035
  295CLA    CLA22423   6.447   0.943  12.565 -0.1133  0.2334 -0.0557
  296CLA    CLA22424   0.693   4.384   3.245 -0.2209  0.3268  0.7275
  297CLA    CLA22425   3.470   1.644  14.694  0.1248 -0.1046  0.1754
  298CLA    CLA22426   1.988   1.495   1.485 -0.2545  0.1240 -0.0505
  299CLA    CLA22427   6.634   4.543   3.026  0.1387  0.4516  0.1876
  300CLA    CLA22428   1.601   6.187  15.462  0.1125  0.2521  0.2581
  301CLA    CLA22429   4.469   2.380  11.957  0.2557  0.1266 -0.0024
  302CLA    CLA22430   5.622   6.473  15.419 -0.0997 -0.1565 -0.2952
  303CLA    CLA22431   4.444   3.097   4.512  0.0421 -0.2047 -0.1050
  304CLA    CLA22432   4.918   4.160  11.383  0.0916  0.2717  0.1009
  305CLA    CLA22433   4.963   5.570  16.348  0.0215  0.4703 -0.0424
  306CLA    CLA22434   6.269   1.427  17.224  0.1252 -0.5380 -0.0409
  307CLA    CLA22435   4.807   5.900  14.913  0.2565 -0.3932  0.1129
  308CLA    CLA22436   6.380   3.638   2.402 -0.1648  0.4587  0.1916
  309CLA    CLA22437   0.364   1.814  17.064  0.1120  0.1747 -0.4331
  310CLA    CLA22438   3.215   0.043  12.163  0.0898  0.1584  0.3825
  311CLA    CLA22439   1.697   3.598   0.971 -0.0851  0.2056 -0.2659
  312CLA    CLA22440   4.001   6.763   2.352 -0.3234  0.2118  0.0176
  313CLA    CLA22441   1.268   1.577   0.028  0.1833  0.3627  0.1873
  314CLA    CLA22442   0.051   5.398   1.942 -0.0289 -0.1229  0.1532
  315CLA    CLA22443   2.483   2.090   0.838  0.0766  0.0838  0.1764
  316CLA    CLA22444   0.313   3.180   5.361 -0.0375 -0.3460 -0.1861
  317CLA    CLA22445   2.605   2.703  13.249 -0.0048  0.3235 -0.3050
  318CLA    CLA22446   0.754   0.214   2.832  0.0892  0.0135 -0.0455
  319TIP3   OH222447   1.698   4.400  11.561  0.0773  0.2506 -0.4514
  319TIP3    H122448   1.705   4.463  11.632 -0.1250  1.2930 -1.3421
  319TIP3    H222449   1.755   4.434  11.492 -0.8207  0.0026 -1.3331
  320TIP3   OH222450   1.237   3.268  11.673  0.5034 -0.0440  0.1922
  320TIP3    H122451   1.182   3.222  11.610 -1.8380  1.3267  1.1223
  320TIP3    H222452   1.280   3.198  11.722 -1.7473 -1.2732  0.5467
  321TIP3   OH222453   4.749   0.990   5.859  0.0902  1.0539  0.1019
  321TIP3    H122454   4.721   0.935   5.933 -0.6191  2.5088  0.9624
  321TIP3    H222455   4.708   1.074   5.875  1.7680  2.0988 -0.7577
  322TIP3   OH222456   3.561   0.135   0.660 -0.2059 -0.0920 -0.2168
  322TIP3    H122457   3.565   0.050   0.705  0.5633  0.3592  0.6015
  322TIP3    H222458   3.531   0.196   0.727 -1.4422  0.1859 -0.9864
  323TIP3   OH222459   1.446   6.150  12.415 -0.0357 -0.2445 -0.3763
  323TIP3    H122460   1.507   6.081  12.441 -0.3819 -0.2870  0.3334
  323TIP3    H222461   1.485   6.231  12.448  0.1408 -0.1447 -0.8135
  324TIP3   OH222462   4.551   3.005  12.082 -0.0717  0.2024  0.1581
  324TIP3    H122463   4.602   3.005  12.163  1.6393  0.5627 -0.8723
  324TIP3    H222464   4.549   2.914  12.055  0.0244  0.1862  0.2033
  325TIP3   OH222465   1.574   0.943  14.134  0.1353  0.5854 -0.3856
  325TIP3    H122466   1.517   0.933  14.210  1.9603  3.5404  1.6394
  325TIP3    H222467   1.599   0.854  14.110 -1.0233 -0.5163  2.1127
  326TIP3   OH222468   3.717   4.870   0.320 -0.2501  0.0230 -0.7541
  326TIP3    H122469   3.704   4.934   0.390 -1.6532 -0.0574 -0.9133
  326TIP3    H222470   3.639   4.878   0.265 -1.0126 -2.5250 -0.2062
  327TIP3   OH222471   4.954   4.859  16.252  0.0066  0.6217  0.1567
  327TIP3    H122472   4.884   4.795  16.265  0.5710 -0.2409 -0.9310
  327TIP3    H222473   5.016   4.841  16.323 -0.4688  0.8599  0.6408
  328TIP3   OH222474   5.479   3.910   1.331  0.0975 -0.0307  0.1732
  328TIP3    H122475   5.417   3.936   1.399 -1.1526 -3.2514  0.4652
  328TIP3    H222476   5.561   3.893   1.378  0.0279  0.3409  0.4312
  329TIP3   OH222477   3.095   3.651   5.031 -0.1385  0.3745  0.0214
  329TIP3    H122478   3.056   3.733   5.002 -2.2067 -0.2433  0.8417
  329TIP3    H222479   3.033   3.584   5.002 -0.2983 -0.5882  2.3598
  330TIP3   OH222480   1.896   1.681  14.185  0.3553 -0.3333 -0.1807
  330TIP3    H122481   1.936   1.664  14.100  1.7776  0.5232  0.2891
  330TIP3    H222482   1.929   1.767  14.210 -0.0472 -0.5734  1.2453
  331TIP3   OH222483   3.330   2.748  12.689 -0.2623  0.2949  0.6112
  331TIP3    H122484   3.368   2.827  12.649 -2.5313  0.3368 -1.7678
  331TIP3    H222485   3.302   2.695  12.614 -0.1490 -2.1009  2.1772
  332TIP3   OH222486   5.164   1.142   1.951 -0.2885  0.3534 -0.2541
  332TIP3    H122487   5.243   1.185   1.982  0.4538  0.8854 -2.6624
  332TIP3    H222488   5.166   1.055   1.991 -0.5051  1.5794  2.6751
  333TIP3   OH222489   3.996   2.798   2.056 -0.3388  0.4179 -0.2646
  333TIP3    H122490   3.927   2.841   2.005  0.6581  1.2848 -0.9352
  333TIP3    H222491   3.995   2.842   2.141  1.2523  2.4753 -1.2346
  334TIP3   OH222492   4.155   1.033  12.040  0.3799  0.0032  0.0782
  334TIP3    H122493   4.207   1.086  12.100  1.3801 -1.2249  0.3464
  334TIP3    H222494   4.151   1.085  11.959  0.2629  1.0132  0.7109
  335TIP3   OH222495   5.648   0.831  11.653 -0.4992 -0.4506  0.2820
  335TIP3    H122496   5.620   0.788  11.734  0.6534  1.0892  1.5675
  335TIP3    H222497   5.714   0.773  11.617 -0.0570 -0.5234  1.1810
  336TIP3   OH222498   4.174   0.281  12.495  0.6864 -0.0550  0.2961
  336TIP3    H122499   4.263   0.299  12.465  0.3814 -0.4776 -0.9183
  336TIP3    H222500   4.163   0.335  12.574  2.3676 -0.7787  1.0790
  337TIP3   OH222501   4.187   3.399  14.246 -0.0156  0.2157  0.2747
  337TIP3    H122502   4.151   3.482  14.213  0.7643 -0.5213 -2.6595
  337TIP3    H222503   4.113   3.358  14.292 -1.7511  0.5941 -2.0118
  338TIP3   OH222504   4.078   6.705  10.740  0.8170  0.0847  0.4516
  338TIP3    H122505   3.992   6.662  10.746  1.1342 -0.8273 -0.9161
  338TIP3    H222506   4.066   6.789  10.784 -0.2574 -0.7776  1.9169
  339TIP3   OH222507   2.926   6.311  13.122 -0.0613  0.0356 -0.0268
  339TIP3    H122508   2.969   6.240  13.073  2.3012  1.1287  0.3262
  339TIP3    H222509   2.897   6.372  13.055  0.1130 -0.0983 -0.2279
  340TIP3   OH222510   0.877   0.491  13.623 -0.3849  0.0008 -0.2846
  340TIP3    H122511   0.822   0.526  13.553  0.3401 -0.9358 -1.3477
  340TIP3    H222512   0.924   0.418  13.583  0.0675 -0.5470  1.1752
  341TIP3   OH222513   3.641   1.457  10.895 -0.0015  0.1898  0.2065
  341TIP3    H122514   3.633   1.466  10.800  2.9119 -1.1069 -0.2712
  341TIP3    H222515   3.646   1.362  10.910 -0.4147  0.3728  1.6866
  342TIP3   OH222516   4.126   1.800  12.522 -0.3442 -0.0058  0.0560
  342TIP3    H122517   4.153   1.807  12.431 -0.2252 -2.3842 -0.1507
  342TIP3    H222518   4.031   1.812  12.519 -0.2971  0.2980 -0.3163
  343TIP3   OH222519   5.829   3.475   0.510 -0.1577  0.2142 -0.0286
  343TIP3    H122520   5.770   3.443   0.578 -0.6652 -0.0419 -0.5852
  343TIP3    H222521   5.811   3.569   0.504 -3.3432 -0.3860 -2.8361
  344TIP3   OH222522   0.491   3.442   1.212  0.9976  0.1766  0.2629
  344TIP3    H122523   0.430   3.375   1.245  0.9257  0.7100  1.2562
  344TIP3    H222524   0.492   3.509   1.280 -0.2661  2.0634 -1.4450
  345TIP3   OH222525   3.258   0.296   0.629 -0.6569 -0.6103 -0.0054
  345TIP3    H122526   3.315   0.361   0.670 -1.7271 -0.1553  0.7890
  345TIP3    H222527   3.190   0.278   0.694 -2.7812  0.6046 -1.7727
  346TIP3   OH222528   1.117   4.824  15.797  0.7406  0.1590 -0.1180
  346TIP3    H122529   1.077   4.902  15.758  0.7286  0.1134 -0.1963
  346TIP3    H222530   1.171   4.858  15.868  1.6836  0.3444 -0.9084
  347TIP3   OH222531   2.611   6.530  12.605 -0.3406 -0.2580  0.7498
  347TIP3    H122532   2.550   6.603  12.600  1.9103  1.9923  3.0357
  347TIP3    H222533   2.557   6.452  12.595 -3.0168  1.6424 -0.7699
  348TIP3   OH222534   4.360   0.683  16.267 -0.2896 -0.2064  0.2197
  348TIP3    H122535   4.324   0.771  16.277  0.4405 -0.0129  1.3499
  348TIP3    H222536   4.284   0.628  16.246 -0.6369  0.7945 -1.2748
  349TIP3   OH222537   4.172   5.130   0.957 -0.2389  0.0795 -0.0687
  349TIP3    H122538   4.243   5.159   1.013 -1.3724  2.9724  0.0668
  349TIP3    H222539   4.195   5.040   0.933  1.4687 -0.4417  3.0243
  350TIP3   OH222540   0.373   4.812   1.845  0.1674  0.0756  0.3374
  350TIP3    H122541   0.443   4.791   1.907 -1.0404 -1.0396  1.4129
  350TIP3    H222542   0.379   4.744   1.778 -0.4859 -0.6469  0.9861
  351TIP3   OH222543   4.871   3.505   2.348  0.2229 -0.1124  0.1421
  351TIP3    H122544   4.802   3.550   2.396 -0.6656 -2.1885  0.9109
  351TIP3    H222545   4.950   3.518   2.401  0.9159  3.5974 -1.5169
  352TIP3   OH222546   6.782   2.441  11.745 -0.0273  0.6568 -0.6310
  352TIP3    H122547   6.746   2.427  11.657 -0.6679  2.5900 -0.7104
  352TIP3    H222548   6.764   2.533  11.765  0.8378  0.4806  1.2060
  353TIP3   OH222549   1.718   3.966  15.183  0.2172 -0.8735 -0.0017
  353TIP3    H122550   1.753   3.906  15.250  2.1905  0.3626  0.1302
  353TIP3    H222551   1.757   3.935  15.101 -0.9262 -1.3916 -0.3750
  354TIP3   OH222552   2.869   2.263  16.196  0.3033  0.7464  0.1069
  354TIP3    H122553   2.957   2.238  16.170 -0.4851  0.7955 -2.9970
  354TIP3    H222554   2.819   2.265  16.115 -2.1211  2.6110  1.4751
  355TIP3   OH222555   3.636   6.640   4.457  0.1857 -0.1310  0.3919
  355TIP3    H122556   3.652   6.609   4.367  2.3250 -0.5681  0.8645
  355TIP3    H222557   3.576   6.576   4.494 -0.4883 -0.1103 -0.6155
  356TIP3   OH222558   5.125   5.732  10.497 -0.0278  0.2158  0.2067
  356TIP3    H122559   5.137   5.819  10.458 -0.4893 -0.8109 -2.4675
  356TIP3    H222560   5.180   5.674  10.443 -2.6303 -1.6935 -0.5762
  357TIP3   OH222561   4.080   3.368   6.634  0.1428  0.2977  0.0592
  357TIP3    H122562   3.998   3.322   6.614 -0.3481 -0.3643  3.0747
  357TIP3    H222563   4.054   3.460   6.642 -0.3250  0.1000  0.9409
  358TIP3   OH222564   5.429   4.091   5.710 -0.2473  0.0616  0.1546
  358TIP3    H122565   5.514   4.045   5.711  0.1537  0.7820 -0.1497
  358TIP3    H222566   5.401   4.085   5.619 -1.7164 -2.2816  0.6727
  359TIP3   OH222567   6.314   0.232   2.917 -0.2299 -0.0046  0.1954
  359TIP3    H122568   6.301   0.223   2.822 -0.0159 -0.9278  0.2430
  359TIP3    H222569   6.282   0.319   2.937  1.1772  0.8398 -0.9979
  360TIP3   OH222570   3.213   3.306  12.563  0.3308  0.4348 -0.6053
  360TIP3    H122571   3.147   3.368  12.533 -0.0586  1.5595  2.2207
  360TIP3    H222572   3.248   3.267  12.483 -1.4681  2.1668 -2.3488
  361TIP3   OH222573   6.619   4.859  13.859  0.0737  0.0494  0.6241
  361TIP3    H122574   6.616   4.876  13.765 -0.9400  0.6163  0.7504
  361TIP3    H222575   6.695   4.909  13.890 -0.4319  1.0207  0.3231
  362TIP3   OH222576   0.454   2.749   1.545  0.4531  0.1172  0.1317
  362TIP3    H122577   0.546   2.749   1.518  0.1139 -0.8848 -1.0935
  362TIP3    H222578   0.405   2.756   1.463 -0.5782  1.1062  0.7975
  363TIP3   OH222579   1.315   1.261   3.355 -0.0579 -0.1013  0.2195
  363TIP3    H122580   1.332   1.250   3.448  0.8743 -0.2510  0.0383
  363TIP3    H222581   1.401   1.258   3.314 -0.4572 -0.0296 -0.6484
  364TIP3   OH222582   4.449   3.855   2.152 -0.5132 -0.7910 -0.2506
  364TIP3    H122583   4.399   3.895   2.080 -0.1244  0.0403 -0.0723
  364TIP3    H222584   4.463   3.765   2.125  0.6979 -0.1798 -1.8077
  365TIP3   OH222585   4.538   2.132   3.530 -0.1896  0.2627 -0.0602
  365TIP3    H122586   4.443   2.122   3.542 -0.1914  0.7680  0.3619
  365TIP3    H222587   4.557   2.082   3.450 -0.6923 -0.4722  0.2686
  366TIP3   OH222588   0.072   3.481  12.293 -0.5140 -0.2925 -0.1710
  366TIP3    H122589   0.092   3.503  12.384  2.4881 -1.6809 -0.3535
  366TIP3    H222590  -0.009   3.431  12.297 -1.8453  1.8304  1.3776
  367TIP3   OH222591   2.659   3.842  11.639  0.0399 -1.0774 -0.2958
  367TIP3    H122592   2.566   3.860  11.627  0.0166 -0.7490  0.3344
  367TIP3    H222593   2.665   3.807  11.728  0.5638 -0.7594 -0.2067
  368TIP3   OH222594   6.559   0.977  15.088  0.1222  0.0190  0.1492
  368TIP3    H122595   6.468   0.966  15.116 -0.6124 -1.7255 -2.5567
  368TIP3    H222596   6.559   1.060  15.041 -0.3826 -0.5425 -0.8616
  369TIP3   OH222597   2.528   1.895   6.009  0.3247  0.2380  0.2703
  369TIP3    H122598   2.534   1.815   6.061 -1.1073  0.6741  1.1542
  369TIP3    H222599   2.435   1.908   5.995  0.6186  0.6654 -1.6335
  370TIP3   OH222600   0.458   0.481  13.090 -0.3685 -0.3464  0.1356
  370TIP3    H122601   0.415   0.566  13.101 -0.5138 -0.3834 -0.1462
  370TIP3    H222602   0.413   0.441  13.016 -1.4574 -1.3828  1.3122
  371TIP3   OH222603   4.910   3.403  14.586 -0.2555  0.7209 -0.0563
  371TIP3    H122604   4.836   3.351  14.617  0.7906 -0.8589 -0.0913
  371TIP3    H222605   4.960   3.423  14.665 -0.5522  1.5237 -0.0675
  372TIP3   OH222606   2.245   3.525  15.088  0.2873  0.4354 -0.5782
  372TIP3    H122607   2.319   3.469  15.064  1.3026  1.7019 -0.5111
  372TIP3    H222608   2.279   3.584  15.155  0.0417  2.7874 -2.3663
  373TIP3   OH222609   3.273   5.607  13.185 -0.0482 -0.8988  0.0923
  373TIP3    H122610   3.284   5.579  13.275  2.2503  2.1566  0.9493
  373TIP3    H222611   3.353   5.577  13.141  1.7871  2.5582  0.7042
  374TIP3   OH222612   3.957   5.733  15.751  0.3967 -0.2790 -0.6458
  374TIP3    H122613   3.874   5.731  15.800  0.7511 -0.2635 -0.0306
  374TIP3    H222614   3.958   5.819  15.710  0.3518 -0.0684 -0.2142
  375TIP3   OH222615   4.674   2.225  13.310  0.2556  0.2922 -0.3131
  375TIP3    H122616   4.670   2.130  13.320 -1.8547  0.4324  0.7091
  375TIP3    H222617   4.617   2.244  13.236 -2.1077  0.9367  1.5421
  376TIP3   OH222618   5.114   2.611   6.588  0.8424 -0.0154 -0.3021
  376TIP3    H122619   5.089   2.542   6.650  1.3130  0.6874  0.6787
  376TIP3    H222620   5.052   2.600   6.515  1.0593 -1.6277 -0.2883
  377TIP3   OH222621   6.264   6.673  15.071 -0.1060 -0.0516 -0.8152
  377TIP3    H122622   6.323   6.662  15.145 -0.4214  0.7324 -0.4375
  377TIP3    H222623   6.179   6.641  15.103  0.3174 -2.2688 -1.7173
  378TIP3   OH222624   0.770   1.733   3.984 -0.2541 -0.7669 -0.6033
  378TIP3    H122625   0.860   1.707   4.004  0.3742  0.1297 -2.1013
  378TIP3    H222626   0.737   1.769   4.067  1.1192 -0.1435 -0.2891
  379TIP3   OH222627   1.655   1.666   3.426  0.1258 -0.8358  0.1056
  379TIP3    H122628   1.680   1.672   3.518  2.2135  0.9883 -0.5040
  379TIP3    H222629   1.614   1.750   3.406 -1.7865 -1.7905 -0.3205
  380TIP3   OH222630   2.651   4.972   4.703  0.8019  0.0054 -0.3389
  380TIP3    H122631   2.639   5.053   4.754  1.0260 -0.5321  0.5904
  380TIP3    H222632   2.693   5.001   4.622 -0.4304  1.0084 -0.6531
  381TIP3   OH222633   2.542   1.715   2.975  0.0203 -0.2368 -0.1461
  381TIP3    H122634   2.612   1.773   3.008  0.8283 -0.9150 -0.6335
  381TIP3    H222635   2.502   1.764   2.904  0.1587  0.0533 -0.0273
  382TIP3   OH222636   2.515   6.083  13.417  0.0080 -0.2222  0.7291
  382TIP3    H122637   2.509   6.038  13.501  0.0653  2.5383  2.3301
  382TIP3    H222638   2.603   6.063  13.386 -0.0726 -1.4249  1.1932
  383TIP3   OH222639   3.247   0.102   3.603  0.3939  0.2366  0.0827
  383TIP3    H122640   3.176   0.144   3.554  1.3034  1.3277 -0.3266
  383TIP3    H222641   3.219   0.107   3.694  0.4324  1.6949  0.0421
  384TIP3   OH222642   1.058   0.676   3.690 -0.3760  0.5383 -0.2083
  384TIP3    H122643   1.092   0.725   3.616  0.9595  0.3733  0.2669
  384TIP3    H222644   1.119   0.695   3.762 -1.1091 -0.0338  0.5898
  385TIP3   OH222645   6.063   0.229   3.312 -0.2038 -0.0392 -0.4604
  385TIP3    H122646   6.127   0.196   3.375 -0.6409  0.0493  0.0379
  385TIP3    H222647   6.030   0.151   3.268  1.4503  0.0354 -1.9151
  386TIP3   OH222648   0.365   3.942   5.449 -0.5381 -0.3498  0.1970
  386TIP3    H122649   0.348   3.960   5.357  0.1772 -0.8000 -0.0306
  386TIP3    H222650   0.459   3.959   5.460 -0.8228  0.7799  1.1065
  387TIP3   OH222651   1.645   3.119  15.773  0.1636 -0.2419 -0.1828
  387TIP3    H122652   1.558   3.118  15.811  0.4956 -2.5484  0.7016
  387TIP3    H222653   1.661   3.028  15.747  2.5837 -0.0508  0.4015
  388TIP3   OH222654   4.977   0.965  11.113  1.0493  0.0918 -0.0925
  388TIP3    H122655   4.942   1.052  11.131  1.0405  0.2581 -0.8964
  388TIP3    H222656   5.029   0.944  11.191  1.9448  1.2737 -0.3450
  389TIP3   OH222657   6.652   2.509   0.253 -0.0030  0.0650  0.2825
  389TIP3    H122658   6.712   2.467   0.191 -0.8852 -1.8231  0.6494
  389TIP3    H222659   6.683   2.481   0.339 -1.0732 -0.4749  0.5039
  390TIP3   OH222660   3.449   5.424   0.749 -0.0695 -0.0147  0.0245
  390TIP3    H122661   3.441   5.339   0.792 -4.2717  0.7543  1.1904
  390TIP3    H222662   3.409   5.411   0.663  0.4111  0.5169 -0.2883
  391TIP3   OH222663   4.571   0.523  11.510 -0.0807  0.7906  0.7412
  391TIP3    H122664   4.484   0.560  11.525 -1.0946 -1.6880  1.6691
  391TIP3    H222665   4.569   0.492  11.419  0.0559  1.2233  0.5873
  392TIP3   OH222666   2.252   0.736  11.994 -0.0270  0.0804 -0.3498
  392TIP3    H122667   2.240   0.819  11.948  0.3946  1.3927  1.7744
  392TIP3    H222668   2.163   0.706  12.013 -0.1750  0.7707  0.0790
  393TIP3   OH222669   0.662   1.454  14.665  0.6409  0.1389  0.0450
  393TIP3    H122670   0.620   1.369  14.678 -0.2794  0.6900  0.8031
  393TIP3    H222671   0.646   1.475  14.573  0.3980 -0.2632 -0.0046
  394TIP3   OH222672   4.744   1.557   3.099 -0.4817  0.0579  0.4301
  394TIP3    H122673   4.657   1.569   3.061 -0.8975 -1.9554  0.6228
  394TIP3    H222674   4.750   1.463   3.116  1.1753  0.3535  1.7873
  395TIP3   OH222675   5.614   0.411   0.071 -0.2448 -0.1455  0.5156
  395TIP3    H122676   5.589   0.369  -0.011 -0.1706 -0.6397  0.7388
  395TIP3    H222677   5.676   0.480   0.045 -0.1929 -0.3238  0.1593
  396TIP3   OH222678   2.690   0.640  15.974  0.4135  0.1862  0.5506
  396TIP3    H122679   2.666   0.717  16.026 -0.0332 -0.1692  0.8730
  396TIP3    H222680   2.692   0.672  15.884 -2.0645  0.0616  0.3981
  397TIP3   OH222681   2.109   3.112  12.982  0.5571  0.0327  0.3320
  397TIP3    H122682   2.075   3.083  13.067  0.2760  0.5419  0.4049
  397TIP3    H222683   2.171   3.045  12.956 -0.6965 -1.0620  0.0829
  398TIP3   OH222684   0.560   6.559  10.444 -0.0260  0.1866  0.0458
  398TIP3    H122685   0.464   6.564  10.440  0.0026  0.6579 -0.1225
  398TIP3    H222686   0.578   6.471  10.476 -0.5471  0.5702  1.4622
  399TIP3   OH222687   5.413   0.083  16.983 -0.4980 -0.2975 -0.1921
  399TIP3    H122688   5.489   0.120  17.029 -0.7673  0.2484 -0.1706
  399TIP3    H222689   5.338   0.111  17.036 -0.6991 -1.0882 -0.0444
  400TIP3   OH222690   1.296   1.089  15.998  0.2402 -0.1397 -0.3925
  400TIP3    H122691   1.331   1.098  15.909  0.1269  1.5248 -0.2987
  400TIP3    H222692   1.372   1.103  16.055 -0.2361  2.0802 -0.2102
  401TIP3   OH222693   0.928   6.108  14.072 -0.0069  0.0152  0.1551
  401TIP3    H122694   0.859   6.151  14.022 -0.2608  1.3633  1.5713
  401TIP3    H222695   0.901   6.017  14.076 -1.6197  0.4661  0.4697
  402TIP3   OH222696   5.526   5.511   4.237 -0.1464 -0.1077  0.2522
  402TIP3    H122697   5.465   5.469   4.297  0.9882 -0.9833  0.8321
  402TIP3    H222698   5.594   5.548   4.293  0.7250 -0.6047 -0.4509
  403TIP3   OH222699   3.299   1.679  15.115  0.0941 -0.5067  0.2034
  403TIP3    H122700   3.383   1.684  15.070  0.0224 -0.6214  0.0573
  403TIP3    H222701   3.310   1.734  15.193 -0.1507  0.5981 -0.5213
  404TIP3   OH222702   4.227   5.154   5.468  0.1499 -0.2895  0.1215
  404TIP3    H122703   4.160   5.095   5.505 -0.6315  0.7018  0.3202
  404TIP3    H222704   4.181   5.235   5.450  1.0633  0.0425 -0.8323
  405TIP3   OH222705   3.749   4.657  14.878 -0.2337 -0.6613 -0.0282
  405TIP3    H122706   3.675   4.696  14.924 -0.4625 -0.9846 -0.1223
  405TIP3    H222707   3.825   4.707  14.910 -0.5860  0.3075 -0.6463
  406TIP3   OH222708   5.258   5.576   4.019 -0.3355  0.1024  0.0265
  406TIP3    H122709   5.211   5.504   4.062 -0.6377  0.6060  0.5392
  406TIP3    H222710   5.344   5.539   3.998 -0.2938 -0.2497  0.7757
  407TIP3   OH222711   5.805   4.727  16.040 -1.0017  0.3581  0.6259
  407TIP3    H122712   5.776   4.720  16.131  1.7988 -1.9801  1.4714
  407TIP3    H222713   5.794   4.639  16.005 -0.6268  0.8824 -0.8601
  408TIP3   OH222714   3.657   5.818  12.618 -0.3742  0.5283  0.2822
  408TIP3    H122715   3.659   5.849  12.528 -1.0237 -0.1001  0.0391
  408TIP3    H222716   3.723   5.749  12.622  0.3822  1.2516  0.5686
  409TIP3   OH222717   4.124   2.512  12.089  0.0128 -0.7398  0.1434
  409TIP3    H122718   4.173   2.549  12.163  0.2306 -0.5625 -0.0890
  409TIP3    H222719   4.146   2.419  12.090  0.3647 -0.6589  0.0314
  410TIP3   OH222720   1.383   3.671  16.293  1.0028  0.4355  0.0122
  410TIP3    H122721   1.350   3.693  16.380 -0.9016  1.3570 -0.8844
  410TIP3    H222722   1.385   3.754  16.246 -0.5091 -0.3950 -1.6018
  411TIP3   OH222723   0.840   3.438  14.343 -0.6156  0.3662  0.1992
  411TIP3    H122724   0.757   3.485  14.344 -1.4058 -0.9810  1.1209
  411TIP3    H222725   0.822   3.357  14.390  1.1482 -0.0953  0.1413
  412TIP3   OH222726   1.188   3.835  13.807  0.1058 -0.1393  0.1282
  412TIP3    H122727   1.136   3.776  13.753 -1.7399  1.9789 -0.5569
  412TIP3    H222728   1.198   3.914  13.753  1.3405  0.6778  1.4925
  413TIP3   OH222729   3.073   4.650  12.093 -0.0977  0.0087  0.1036
  413TIP3    H122730   2.998   4.620  12.145  0.5589  0.2628  1.2500
  413TIP3    H222731   3.138   4.580  12.102 -0.1961 -0.2094 -0.8783
  414TIP3   OH222732   5.433   0.258   3.867  0.3745  0.5399  0.8590
  414TIP3    H122733   5.491   0.265   3.943 -0.6054  0.0362  1.6888
  414TIP3    H222734   5.382   0.340   3.870  2.0109  1.6853 -0.7429
  415TIP3   OH222735   3.401   3.778  11.437 -0.0531 -0.1345  0.5463
  415TIP3    H122736   3.373   3.708  11.379 -0.4221  0.5270 -0.0859
  415TIP3    H222737   3.497   3.772  11.438 -0.0014  0.2378 -0.6432
  416TIP3   OH222738   4.858   3.821   1.354  0.0020  0.2360 -0.1532
  416TIP3    H122739   4.905   3.832   1.272  0.9445  1.3545  0.5098
  416TIP3    H222740   4.877   3.900   1.403 -1.1399 -0.0891  0.8634
  417TIP3   OH222741   5.065   2.524  14.228 -0.0050  0.0325  0.3014
  417TIP3    H122742   5.019   2.584  14.169  0.5372  1.2312  1.0747
  417TIP3    H222743   5.103   2.458  14.170 -2.6051 -0.9789 -0.3837
  418TIP3   OH222744   1.114   3.886   5.123 -0.9241 -0.0471  0.1763
  418TIP3    H122745   1.161   3.889   5.040 -1.4141  1.3054 -0.0917
  418TIP3    H222746   1.022   3.878   5.098 -0.9751 -0.9518  0.6370
  419TIP3   OH222747   0.275   2.605   3.226 -0.0489 -0.1079  0.2585
  419TIP3    H122748   0.188   2.566   3.239 -0.1476  0.7346  2.4436
  419TIP3    H222749   0.287   2.663   3.301  1.1968  2.0567 -1.5007
  420TIP3   OH222750   0.360   4.800  11.544  0.0071 -0.0541 -0.6937
  420TIP3    H122751   0.358   4.753  11.627 -1.7619  1.0551 -0.0695
  420TIP3    H222752   0.359   4.731  11.477 -3.5653 -1.0109  0.1618
  421TIP3   OH222753   2.380   2.820   2.336  0.1602  0.2605 -0.3376
  421TIP3    H122754   2.434   2.800   2.413  0.3779 -1.9367 -1.0022
  421TIP3    H222755   2.293   2.837   2.372  0.2087 -0.9549  0.4064
  422TIP3   OH222756   3.130   1.553  10.666 -0.9701  0.6888  0.4235
  422TIP3    H122757   3.145   1.481  10.727  3.5956  2.0766  1.3452
  422TIP3    H222758   3.062   1.606  10.707 -2.6636 -1.7072  0.9270
  423TIP3   OH222759   1.508   5.203  16.128 -0.4734  0.3812  0.5821
  423TIP3    H122760   1.521   5.155  16.209  0.5244 -0.4770 -0.0547
  423TIP3    H222761   1.581   5.265  16.124 -0.5918  0.5123  0.4129
  424TIP3   OH222762   1.264   2.679   1.885 -0.0916  0.3404  0.4906
  424TIP3    H122763   1.281   2.619   1.958 -0.9288  0.3301  0.6831
  424TIP3    H222764   1.183   2.724   1.909 -1.0861 -0.5857 -1.0171
  425TIP3   OH222765   1.414   1.578   3.375  0.7256  0.0750 -0.4698
  425TIP3    H122766   1.503   1.603   3.402  0.5986 -1.4863  1.6624
  425TIP3    H222767   1.419   1.484   3.362 -0.8370 -0.2342  0.8715
  426TIP3   OH222768   5.144   2.582  13.298  0.0068  0.0544 -0.5980
  426TIP3    H122769   5.166   2.667  13.259 -1.7294  0.7868 -0.0952
  426TIP3    H222770   5.066   2.554  13.251  0.8031 -1.4960 -1.0405
  427TIP3   OH222771   5.750   6.032  12.372 -0.2758 -0.0529 -0.0750
  427TIP3    H122772   5.724   6.122  12.393  0.2679  0.2697 -0.7493
  427TIP3    H222773   5.712   5.979  12.442 -0.8440  0.6691  0.1740
  428TIP3   OH222774   3.193   6.652  11.329 -0.0594 -0.0687 -0.0068
  428TIP3    H122775   3.131   6.630  11.260  0.2035 -0.8893  0.0131
  428TIP3    H222776   3.202   6.747  11.323 -0.9922  0.0186 -0.2826
  429TIP3   OH222777   4.444   0.226  14.477 -0.2078 -0.3454 -0.0217
  429TIP3    H122778   4.365   0.269  14.510 -0.8870 -0.8619 -0.9324
  429TIP3    H222779   4.508   0.297  14.468 -0.7402  0.1705  0.1906
  430TIP3   OH222780   5.753   6.572   2.493  0.1916  0.1586  0.5448
  430TIP3    H122781   5.790   6.607   2.574 -1.7910  0.9228  1.2046
  430TIP3    H222782   5.819   6.513   2.458  2.1844  1.8223  1.3360
  431TIP3   OH222783   5.479   2.310   0.493 -0.2980  0.0868  0.0197
  431TIP3    H122784   5.564   2.266   0.486  1.0495  2.6989 -1.1863
  431TIP3    H222785   5.423   2.246   0.537  1.8597 -2.2940 -0.4611
  432TIP3   OH222786   5.701   1.853   2.305 -0.0958  0.1478  0.7383
  432TIP3    H122787   5.726   1.838   2.213 -0.9339  0.1202  0.5132
  432TIP3    H222788   5.718   1.946   2.318  0.9018 -0.0377  0.8337
  433TIP3   OH222789   6.110   6.731  12.293  0.1082 -0.3246  0.2605
  433TIP3    H122790   6.107   6.817  12.335  0.0686 -0.1532 -0.0859
  433TIP3    H222791   6.124   6.669  12.365 -0.4804 -0.0876  0.5813
  434TIP3   OH222792   1.757   5.056   0.369  0.4635 -0.0769  0.2205
  434TIP3    H122793   1.782   5.008   0.289 -0.3692 -1.8799  0.9671
  434TIP3    H222794   1.789   5.001   0.440  0.4935  1.1040  1.1352
  435TIP3   OH222795   1.388   3.915   6.365 -0.3659  0.0742 -0.3957
  435TIP3    H122796   1.332   3.950   6.295 -0.3813  1.2368  0.1723
  435TIP3    H222797   1.331   3.913   6.442  0.5178  1.9719  0.3782
  436TIP3   OH222798   2.262   5.267  12.255  0.1611  0.2138  0.0630
  436TIP3    H122799   2.185   5.324  12.256  0.6351  0.8764  1.4955
  436TIP3    H222800   2.233   5.186  12.297 -0.5368 -0.6932 -2.0491
  437TIP3   OH222801   1.441   1.526  10.454 -0.2954  0.3664  0.0617
  437TIP3    H122802   1.469   1.529  10.362 -1.6849 -0.4074 -0.4092
  437TIP3    H222803   1.398   1.610  10.469 -1.5914 -0.1661 -0.5289
  438TIP3   OH222804   5.053   5.290  11.233  0.0706 -0.2872 -0.6718
  438TIP3    H122805   5.087   5.284  11.144  0.9287  1.4175 -0.4916
  438TIP3    H222806   4.967   5.330  11.223  0.2347  0.0549 -0.7267
  439TIP3   OH222807   3.091   4.330  16.305 -0.0485  0.1706  0.0687
  439TIP3    H122808   3.151   4.274  16.256  0.5192 -1.3652  2.3880
  439TIP3    H222809   3.091   4.295  16.394 -1.3331  2.5776  1.1352
  440TIP3   OH222810   6.488   2.395   0.911  0.4365 -0.3092  0.3738
  440TIP3    H122811   6.492   2.333   0.838 -3.8330 -1.7986  1.0807
  440TIP3    H222812   6.527   2.349   0.985  1.1822 -0.3839 -0.0589
  441TIP3   OH222813   2.471   4.916  12.653  0.0033 -0.1732 -0.0007
  441TIP3    H122814   2.422   4.874  12.722  1.7032 -1.8881  0.2466
  441TIP3    H222815   2.445   5.008  12.657 -0.5952 -0.3920  2.3275
  442TIP3   OH222816   3.562   3.697   1.960 -0.5218 -0.1110 -0.0898
  442TIP3    H122817   3.519   3.774   1.922 -0.0408  0.1477 -0.1259
  442TIP3    H222818   3.637   3.733   2.007  0.2426 -0.6320 -0.8841
  443TIP3   OH222819   5.456   5.386   4.778  0.1807  0.4416  0.2298
  443TIP3    H122820   5.498   5.305   4.808 -1.4107 -1.0132 -1.2109
  443TIP3    H222821   5.528   5.445   4.757  1.4559 -1.3014 -0.5153
  444TIP3   OH222822   4.503   1.333   1.311 -0.3107 -0.1282 -0.4343
  444TIP3    H122823   4.587   1.299   1.341 -0.9919 -0.4485  1.2502
  444TIP3    H222824   4.504   1.425   1.338 -0.7023 -0.2726  0.0946
  445TIP3   OH222825   4.962   5.184  12.181  0.2431 -0.3844  0.1660
  445TIP3    H122826   4.997   5.220  12.099  0.5176  1.3447  0.9994
  445TIP3    H222827   5.037   5.142  12.222  0.1447 -1.1075 -0.3760
  446TIP3   OH222828   4.587   4.292  16.629  0.0983  0.0131 -0.7815
  446TIP3    H122829   4.565   4.298  16.537 -2.4129 -2.3175 -0.4444
  446TIP3    H222830   4.679   4.267  16.631  0.7913  2.1088 -2.5112
  447TIP3   OH222831   4.193   5.767   2.492  0.4712 -0.1776  0.0684
  447TIP3    H122832   4.265   5.724   2.539  1.5170  0.3192 -1.0392
  447TIP3    H222833   4.159   5.831   2.555  0.1097 -1.3038  1.0671
  448TIP3   OH222834   3.345   4.115   0.404 -0.2881  0.1426 -0.0060
  448TIP3    H122835   3.308   4.141   0.489 -3.0801 -0.0976 -1.0452
  448TIP3    H222836   3.303   4.174   0.341  2.5665  1.0876 -1.1996
  449TIP3   OH222837   4.183   1.157   1.422  0.3214 -0.0224 -0.2035
  449TIP3    H122838   4.220   1.180   1.507  1.4020  1.6386 -1.0690
  449TIP3    H222839   4.231   1.211   1.359 -0.1147 -1.5371 -1.9380
  450TIP3   OH222840   5.128   0.334   0.031  0.0985  0.9844 -0.3887
  450TIP3    H122841   5.177   0.252   0.034 -1.8950 -0.2619  0.2170
  450TIP3    H222842   5.128   0.360  -0.061  0.6289  0.2457 -0.6019
  451TIP3   OH222843   5.659   0.384  12.046 -0.4081  0.5182 -0.5716
  451TIP3    H122844   5.657   0.479  12.060 -2.0878  0.2720  1.3598
  451TIP3    H222845   5.712   0.350  12.118 -0.5828 -0.0659 -0.7121
  452TIP3   OH222846   0.825   5.292   3.168  0.6639 -0.1521 -0.0275
  452TIP3    H122847   0.746   5.253   3.206  0.8751  0.5708  1.2173
  452TIP3    H222848   0.846   5.364   3.227  1.7041  0.2704 -0.8922
  453TIP3   OH222849   4.427   2.234  10.435 -0.4742  0.6783  0.0753
  453TIP3    H122850   4.425   2.304  10.370  0.5511  0.1113 -0.5823
  453TIP3    H222851   4.409   2.278  10.518 -0.3791  1.6316 -0.3985
  454TIP3   OH222852   0.231   1.382   2.059  0.4056 -0.3139  0.3049
  454TIP3    H122853   0.301   1.348   2.004  0.8820 -0.5965  1.0745
  454TIP3    H222854   0.162   1.316   2.056  0.3318 -0.2185 -0.1345
  455TIP3   OH222855   6.349   3.745  14.494  0.1521 -0.4955 -0.0394
  455TIP3    H122856   6.328   3.822  14.546  1.9346  0.0900 -0.1291
  455TIP3    H222857   6.346   3.672  14.557 -2.3454 -0.5372 -0.1194
  456TIP3   OH222858   0.961   1.696   1.265  0.5372 -0.1675  0.2909
  456TIP3    H122859   1.023   1.725   1.333 -1.3365  0.3706  1.8733
  456TIP3    H222860   0.915   1.775   1.238 -1.3065 -0.8709  1.1529
  457TIP3   OH222861   2.970   0.309   4.329 -0.2447 -0.6645 -0.2519
  457TIP3    H122862   3.037   0.297   4.396 -1.1048  0.5476  0.8984
  457TIP3    H222863   2.888   0.309   4.377 -0.9975 -1.0049 -1.4883
  458TIP3   OH222864   5.814   4.466   6.433  0.1539  0.6919 -0.3109
  458TIP3    H122865   5.796   4.530   6.501  1.2864  1.1141 -0.3836
  458TIP3    H222866   5.906   4.442   6.445  0.4774  1.0059 -1.8679
  459TIP3   OH222867   1.592   6.774   0.839 -0.4592  0.1107 -0.1425
  459TIP3    H122868   1.569   6.802   0.928  0.0579  0.2973 -0.0641
  459TIP3    H222869   1.518   6.804   0.786 -0.8414 -0.1294  0.2432
  460TIP3   OH222870   5.753   0.950   1.770 -0.3885  0.7334  0.0223
  460TIP3    H122871   5.658   0.962   1.770 -0.3404  1.2612 -0.9517
  460TIP3    H222872   5.778   0.952   1.862 -1.4482 -0.5665  0.3755
  461TIP3   OH222873   5.820   1.864   0.749 -0.3027 -0.0525  0.5822
  461TIP3    H122874   5.886   1.859   0.819  0.1518  0.9069  0.2359
  461TIP3    H222875   5.810   1.773   0.720  0.4208 -0.2953  1.0546
  462TIP3   OH222876   5.536   3.363   1.535 -0.3758 -0.3120 -0.4643
  462TIP3    H122877   5.624   3.392   1.511 -0.3909 -0.5932 -0.8641
  462TIP3    H222878   5.549   3.294   1.600 -0.2199 -1.7213 -1.9291
  463TIP3   OH222879   4.012   3.017  15.682  0.0975 -0.2339  0.4360
  463TIP3    H122880   3.936   3.000  15.738  0.3966 -0.4767  0.7665
  463TIP3    H222881   4.079   2.956  15.712  0.5113  0.1539  0.3148
  464TIP3   OH222882   1.943   5.052   3.840 -0.1818 -0.1217  0.3367
  464TIP3    H122883   1.865   5.063   3.896 -0.3121  0.5673  0.0228
  464TIP3    H222884   1.919   5.094   3.757  1.7042  3.2475  1.3008
  465TIP3   OH222885   0.236   1.098  13.404 -0.0314  0.3368  0.0963
  465TIP3    H122886   0.247   1.045  13.325 -0.7424  2.2726 -1.4009
  465TIP3    H222887   0.204   1.182  13.371 -0.8649  1.0400  2.5153
  466TIP3   OH222888   2.277   4.677   0.517 -1.1113 -0.3449  0.0703
  466TIP3    H122889   2.209   4.676   0.450  1.0014 -0.5066 -2.2180
  466TIP3    H222890   2.262   4.758   0.565 -1.5385  0.8422 -1.9531
  467TIP3   OH222891   3.080   2.812  11.696 -0.4603 -0.0672 -0.3100
  467TIP3    H122892   3.174   2.826  11.699 -0.0454 -2.4863  0.1851
  467TIP3    H222893   3.047   2.850  11.777  0.0349  1.0099 -0.6044
  468TIP3   OH222894   1.281   6.740   5.972  0.0498 -0.0839  0.3467
  468TIP3    H122895   1.341   6.809   5.999  0.5070 -0.6409  0.7695
  468TIP3    H222896   1.240   6.774   5.892  0.0470  0.8000  0.7062
  469TIP3   OH222897   0.199   0.909  12.763  0.1846 -0.4166  0.2762
  469TIP3    H122898   0.115   0.889  12.723  0.2574 -0.4810  0.1555
  469TIP3    H222899   0.220   0.832  12.815  0.5187 -0.7063 -0.2772
  470TIP3   OH222900   3.370   4.630  16.544  0.0751  0.2385 -0.1253
  470TIP3    H122901   3.379   4.610  16.451 -1.9120 -0.0206 -0.2901
  470TIP3    H222902   3.276   4.634  16.559  0.3421 -0.5633  2.0699
  471TIP3   OH222903   1.004   6.409   5.172 -0.2765 -0.0893  0.4104
  471TIP3    H122904   1.037   6.376   5.256 -2.7898 -1.4479  0.9591
  471TIP3    H222905   1.082   6.445   5.129  1.2644 -0.1310  2.9258
  472TIP3   OH222906   5.405   2.126   1.272 -0.4894 -0.1799 -0.0050
  472TIP3    H122907   5.327   2.078   1.244 -0.5448 -0.2792  0.3215
  472TIP3    H222908   5.414   2.106   1.365  0.0617 -0.3545 -0.0930
  473TIP3   OH222909   6.407   4.963  16.601 -0.7277  0.2511  0.3327
  473TIP3    H122910   6.387   5.003  16.686 -2.5026  0.8215 -0.2963
  473TIP3    H222911   6.411   4.870  16.619 -0.2068  0.4293  1.1967
  474TIP3   OH222912   3.141   3.578   1.946 -0.0984 -0.3298 -0.2087
  474TIP3    H122913   3.190   3.537   2.017 -2.3123 -0.0513  1.5880
  474TIP3    H222914   3.155   3.672   1.958 -0.6712 -0.2714  0.0112
  475TIP3   OH222915   5.245   3.987   3.313  0.6799  0.4925 -0.7589
  475TIP3    H122916   5.153   3.997   3.336  0.6825  0.3175 -0.6750
  475TIP3    H222917   5.256   4.041   3.235  0.5370  0.6201 -0.6930
  476TIP3   OH222918   2.528   3.202  14.146  0.0714 -0.6487 -0.4797
  476TIP3    H122919   2.562   3.255  14.218  0.7624 -0.8625 -0.6385
  476TIP3    H222920   2.455   3.154  14.183 -1.1679  1.0957 -0.5611
  477TIP3   OH222921   6.682   6.816   1.837 -0.6420  0.2750 -0.1039
  477TIP3    H122922   6.728   6.849   1.760 -1.4389  2.1553  0.1627
  477TIP3    H222923   6.706   6.878   1.907 -0.7297 -0.8076  0.9152
  478TIP3   OH222924   5.454   0.627  15.406  0.2153 -0.3675 -0.1151
  478TIP3    H122925   5.505   0.682  15.346  0.4677 -1.6511 -1.1000
  478TIP3    H222926   5.519   0.570  15.448 -0.1270 -0.3743  0.4155
  479TIP3   OH222927   1.775   2.803  13.097  0.0561  0.3748 -0.0810
  479TIP3    H122928   1.827   2.805  13.178  0.2935  1.1831 -0.2539
  479TIP3    H222929   1.836   2.828  13.028 -0.3604  0.5390 -0.3950
  480TIP3   OH222930   4.168   4.370   5.139 -0.1208 -0.2396 -0.4363
  480TIP3    H122931   4.115   4.340   5.213 -1.4741 -1.1124 -1.7146
  480TIP3    H222932   4.127   4.452   5.112 -1.9161 -1.7192 -2.4472
  481TIP3   OH222933   4.136   6.352  11.403  0.1869  0.1916  0.0554
  481TIP3    H122934   4.082   6.279  11.374  0.6605 -0.2352  0.2370
  481TIP3    H222935   4.132   6.415  11.331 -2.3007  1.1606  0.9037
  482TIP3   OH222936   0.352   3.081   3.257  0.8450 -0.7226 -0.0501
  482TIP3    H122937   0.428   3.055   3.309  0.6068  0.6192  1.0543
  482TIP3    H222938   0.309   3.149   3.310  0.0386  0.0211 -1.5840
  483TIP3   OH222939   5.578   6.615  13.207  0.2517  0.5509  0.3385
  483TIP3    H122940   5.509   6.657  13.259 -1.7039 -1.7851 -0.1823
  483TIP3    H222941   5.568   6.652  13.119  0.9670  1.6141  0.6871
  484TIP3   OH222942   2.313   2.903  12.923  0.2226 -0.6007 -0.3837
  484TIP3    H122943   2.298   2.891  12.829 -0.8541  1.0295 -0.4577
  484TIP3    H222944   2.278   2.824  12.963 -0.1409 -0.9153 -1.2924
  485TIP3   OH222945   0.652   6.763  15.925  0.3535  0.3357 -0.3506
  485TIP3    H122946   0.661   6.722  15.839 -2.1523  1.3018 -1.1555
  485TIP3    H222947   0.666   6.857  15.908  0.0046  0.5157  0.3347
  486TIP3   OH222948   2.907   3.810   0.850 -0.1002  0.0308 -0.5817
  486TIP3    H122949   2.928   3.750   0.921  4.2407  1.8246 -0.0666
  486TIP3    H222950   2.895   3.754   0.773 -0.0389 -1.6624  0.5970
  487TIP3   OH222951   2.685   2.026  11.287 -0.0100  0.0764  0.3824
  487TIP3    H122952   2.759   2.080  11.259  0.9474 -1.3064  0.1349
  487TIP3    H222953   2.625   2.087  11.328  1.5972  1.1487  1.2555
  488TIP3   OH222954   6.136   2.156  14.660  0.0281  0.3456 -0.1091
  488TIP3    H122955   6.139   2.065  14.631 -2.0133  0.4426 -0.8272
  488TIP3    H222956   6.146   2.207  14.579 -0.4122  0.7158  0.0635
  489TIP3   OH222957   1.220   3.215  13.063 -0.2260 -0.2681  0.1935
  489TIP3    H122958   1.162   3.289  13.085 -0.9192 -1.4121  2.4903
  489TIP3    H222959   1.266   3.195  13.145  1.2753 -1.2821 -0.8439
  490TIP3   OH222960   2.756   0.325  13.012 -0.2850  0.2378 -0.4791
  490TIP3    H122961   2.697   0.399  13.027  0.7376  0.7647  1.2676
  490TIP3    H222962   2.826   0.361  12.957  0.9312  1.0231  1.4853
  491TIP3   OH222963   4.253   5.385  15.037  0.1850  0.6258  0.3033
  491TIP3    H122964   4.169   5.417  15.070  0.2591  1.4681 -0.2806
  491TIP3    H222965   4.230   5.326  14.966  0.0367 -0.8991  1.5811
  492TIP3   OH222966   3.554   3.579   4.060 -0.2629  0.0624 -0.3159
  492TIP3    H122967   3.571   3.531   4.141 -0.2328  0.0006 -0.3588
  492TIP3    H222968   3.637   3.622   4.039 -0.8401  1.8346  0.8465
  493TIP3   OH222969   0.199   0.375  14.180 -0.4460  0.7204  0.1815
  493TIP3    H122970   0.205   0.303  14.117 -0.5948 -0.2724  1.2715
  493TIP3    H222971   0.145   0.340  14.251  1.2324  1.1370  1.7440
  494TIP3   OH222972   2.371   0.299  15.618  0.2302 -0.0457  0.0484
  494TIP3    H122973   2.346   0.295  15.525  2.4624 -2.1727 -0.5815
  494TIP3    H222974   2.297   0.260  15.664 -0.0678 -0.8934 -1.0906
  495TIP3   OH222975   0.695   4.944   3.177 -0.2888  0.2738  0.3693
  495TIP3    H122976   0.649   4.933   3.094 -3.4776 -2.6490  2.2997
  495TIP3    H222977   0.712   5.039   3.182  0.7312  0.5120 -3.8020
  496TIP3   OH222978   2.651   2.340  12.841  0.1407 -0.1429 -0.0095
  496TIP3    H122979   2.665   2.283  12.917 -0.0155  1.0547  0.9345
  496TIP3    H222980   2.732   2.391  12.834  0.2020 -0.3221 -0.7385
  497TIP3   OH222981   3.323   1.780   0.800 -0.4568 -0.1717 -0.6613
  497TIP3    H122982   3.247   1.774   0.741  0.4613 -1.9344 -1.7357
  497TIP3    H222983   3.379   1.707   0.774  0.9749  0.2730  1.0374
  498TIP3   OH222984   2.479   2.423  11.759 -0.4594 -0.1233  0.3426
  498TIP3    H122985   2.496   2.516  11.747  0.2925 -0.3879 -0.8490
  498TIP3    H222986   2.525   2.400  11.840  0.3795  0.3097  0.0076
  499TIP3   OH222987   2.357   2.536  14.139  0.1850  0.6752 -0.0931
  499TIP3    H122988   2.421   2.515  14.207  0.3302 -0.5995 -0.5893
  499TIP3    H222989   2.344   2.631  14.146  0.6943  0.6710  1.2590
  500TIP3   OH222990   5.278   2.410   6.068 -0.4266  0.0261 -0.3671
  500TIP3    H122991   5.251   2.501   6.078 -0.3627 -0.0188  0.2576
  500TIP3    H222992   5.196   2.362   6.055 -0.3972  0.2725 -1.5684
  501TIP3   OH222993   5.504   3.292  15.135  0.3366 -0.3233  0.1971
  501TIP3    H122994   5.424   3.302  15.084 -0.0631 -2.3253  0.3513
  501TIP3    H222995   5.482   3.328  15.221  0.0993  0.4886 -0.1958
  502TIP3   OH222996   0.811   6.614  13.618 -0.3487  0.0138  0.0807
  502TIP3    H122997   0.853   6.676  13.676 -1.4400  1.8704 -1.0266
  502TIP3    H222998   0.880   6.587  13.557  0.3923 -0.7355  1.2025
  503TIP3   OH222999   2.395   3.948   0.248  0.1898  0.5729  0.0089
  503TIP3    H123000   2.473   3.939   0.194  0.1837 -2.5166  0.2970
  503TIP3    H223001   2.330   3.987   0.190  0.2174 -2.4711 -2.3556
  504TIP3   OH223002   6.016   5.529   1.532  0.5571  0.1911  0.0002
  504TIP3    H123003   6.086   5.464   1.532  0.8812  0.5418 -0.0803
  504TIP3    H223004   6.059   5.612   1.514  0.1459  0.4362  0.1245
  505TIP3   OH223005   3.653   3.713  17.069  0.4795 -0.8183  0.1772
  505TIP3    H123006   3.681   3.626  17.041 -1.3170 -2.0093  1.7638
  505TIP3    H223007   3.588   3.739  17.004 -1.0448 -1.9865  1.1407
  506TIP3   OH223008   1.134   5.270  12.244  0.3553  0.2118  0.2881
  506TIP3    H123009   1.101   5.265  12.334  0.5119  1.2184  0.4047
  506TIP3    H223010   1.055   5.285  12.191  0.5241  2.1187  0.5190
  507TIP3   OH223011   5.474   0.914   5.064 -0.3393 -0.2149  0.3427
  507TIP3    H123012   5.472   0.948   4.974  0.9266  0.4921  0.5687
  507TIP3    H223013   5.398   0.955   5.106 -1.8371 -1.6829 -0.7542
  508TIP3   OH223014   4.081   0.691   1.441 -0.0314 -0.0610  0.6211
  508TIP3    H123015   3.994   0.730   1.435 -0.7912 -1.8607 -2.1739
  508TIP3    H223016   4.120   0.707   1.355  2.4172  0.6168  1.7673
  509TIP3   OH223017   6.239   5.311   0.733  0.3574  0.2757  0.1328
  509TIP3    H123018   6.226   5.404   0.713  1.1654  0.4971  0.6053
  509TIP3    H223019   6.287   5.310   0.815  1.9235 -0.5136 -0.7370
  510TIP3   OH223020   6.411   5.469   3.456  0.3986 -0.0605  0.2671
  510TIP3    H123021   6.464   5.393   3.431  0.2064  0.5251 -2.2546
  510TIP3    H223022   6.336   5.433   3.503 -0.1007 -1.5686 -1.5785
  511TIP3   OH223023   6.595   2.513  11.060  0.0342  0.4400 -0.2278
  511TIP3    H123024   6.626   2.434  11.015 -0.7328  0.3645 -0.6567
  511TIP3    H223025   6.674   2.562  11.081  0.7625 -1.6458  2.4036
  512TIP3   OH223026   2.818   0.156  10.824  0.3080  0.0971  0.1920
  512TIP3    H123027   2.787   0.082  10.877 -3.0846  0.8599 -0.4485
  512TIP3    H223028   2.834   0.119  10.738 -0.6617 -0.0726  0.0688
  513TIP3   OH223029   4.477   3.411   5.678 -0.1636 -0.1860 -0.2517
  513TIP3    H123030   4.410   3.345   5.660  1.2188 -0.9680 -3.1444
  513TIP3    H223031   4.524   3.377   5.754 -1.5874 -0.7732  0.4006
  514TIP3   OH223032   1.704   2.321   2.199 -0.1561  0.1111 -0.3318
  514TIP3    H123033   1.758   2.260   2.149  1.2082 -0.8060  2.0647
  514TIP3    H223034   1.727   2.407   2.166 -0.7532 -0.5160 -2.5326
  515TIP3   OH223035   5.387   3.277  11.348  0.3440 -0.0623  0.5504
  515TIP3    H123036   5.387   3.373  11.352  0.3802 -0.0700  0.8006
  515TIP3    H223037   5.370   3.257  11.257  1.4092  0.2002  0.2759
  516TIP3   OH223038   4.931   5.331  10.745 -0.4160 -0.3380 -0.2301
  516TIP3    H123039   4.970   5.377  10.671  0.8785  1.4797  1.4802
  516TIP3    H223040   4.877   5.397  10.789 -1.4085 -1.4581  0.2722
  517TIP3   OH223041   3.088   0.536   4.965  0.0410  0.2419 -0.0419
  517TIP3    H123042   3.046   0.451   4.982 -1.6838  0.3863 -2.8350
  517TIP3    H223043   3.077   0.585   5.046  1.1770 -2.1530  1.7167
  518TIP3   OH223044   0.722   5.907  15.837  0.2891 -0.4759 -0.4052
  518TIP3    H123045   0.672   5.925  15.916  0.6040  0.1784 -0.3478
  518TIP3    H223046   0.807   5.950  15.851  0.6167 -0.9782 -0.7904
  519TIP3   OH223047   1.788   1.615   0.011  0.0966  0.4571  0.2777
  519TIP3    H123048   1.717   1.571  -0.035  0.7796 -0.7288  0.3102
  519TIP3    H223049   1.766   1.708   0.008 -1.2195  0.1436 -0.0915
  520TIP3   OH223050   4.781   1.926  12.467  0.2726  0.3559 -0.3583
  520TIP3    H123051   4.763   1.956  12.556 -1.3607  1.2651 -0.9687
  520TIP3    H223052   4.867   1.885  12.474  0.2039  0.4228  1.6308
  521TIP3   OH223053   0.502   5.611   0.262  0.6431 -0.0158 -0.0705
  521TIP3    H123054   0.568   5.659   0.212  1.4386 -0.7925  0.2146
  521TIP3    H223055   0.549   5.577   0.338 -0.1020 -0.5199  0.1791
  522TIP3   OH223056   0.754   0.895   3.145 -0.4634  0.7612 -0.1951
  522TIP3    H123057   0.795   0.900   3.059  0.4726  0.7592  0.2428
  522TIP3    H223058   0.684   0.831   3.135  0.8477 -0.6782 -0.4834
  523TIP3   OH223059   3.490   1.530   2.795 -0.1726 -0.1216 -0.2521
  523TIP3    H123060   3.559   1.502   2.736  1.6609  0.6136  1.4274
  523TIP3    H223061   3.489   1.465   2.865 -2.0324 -0.7637 -0.8128
  524TIP3   OH223062   4.612   5.723   6.705 -0.3823  0.2940 -0.2014
  524TIP3    H123063   4.559   5.646   6.725  0.4337 -0.5478 -1.1400
  524TIP3    H223064   4.631   5.763   6.790  1.0596 -1.8357  0.5760
  525TIP3   OH223065   5.113   5.031  15.035  0.3050 -0.1229 -0.3509
  525TIP3    H123066   5.203   5.022  15.004  0.0790 -0.8693 -0.8208
  525TIP3    H223067   5.083   5.114  14.998  0.4925 -0.3322 -0.9907
  526TIP3   OH223068   1.525   4.255   2.368  0.5733 -0.6833 -0.1827
  526TIP3    H123069   1.577   4.317   2.420  0.2148 -0.9918  0.5676
  526TIP3    H223070   1.438   4.260   2.407  0.3487 -1.0672 -0.6392
  527TIP3   OH223071   2.385   3.540  12.328  0.4741  0.0106 -0.4053
  527TIP3    H123072   2.327   3.488  12.384  0.3408 -0.6890 -1.1652
  527TIP3    H223073   2.393   3.624  12.373 -0.2251 -0.2764  0.2830
  528TIP3   OH223074   2.580   0.075   2.221 -0.2129  0.3743  0.3265
  528TIP3    H123075   2.626   0.003   2.177  1.3578  1.2689  0.4008
  528TIP3    H223076   2.552   0.132   2.149  0.1940  0.5991  0.3369
  529TIP3   OH223077   2.854   6.462  13.576  0.7962 -0.2014  0.4163
  529TIP3    H123078   2.935   6.486  13.621  2.2405 -0.1940 -1.9969
  529TIP3    H223079   2.884   6.418  13.496 -1.6404 -1.8433  0.3148
  530TIP3   OH223080   5.559   5.327  15.939  0.1404  0.7735  0.4159
  530TIP3    H123081   5.498   5.374  15.996 -1.7403 -0.4370 -0.4896
  530TIP3    H223082   5.568   5.384  15.863 -1.7311  0.0105 -0.4518
  531TIP3   OH223083   4.781   0.344   0.486  0.1222  0.3445 -0.0312
  531TIP3    H123084   4.728   0.268   0.513 -0.3451  0.9919  0.9515
  531TIP3    H223085   4.801   0.328   0.394 -1.8477  0.1061 -0.4649
  532TIP3   OH223086   1.317   0.501  14.931 -0.0508 -0.2167 -0.8040
  532TIP3    H123087   1.300   0.570  14.867  1.0608 -0.4773 -1.4103
  532TIP3    H223088   1.232   0.459  14.944 -0.9748  1.8724  0.3416
  533TIP3   OH223089   3.810   6.144   0.202 -0.2272  0.3066 -0.4300
  533TIP3    H123090   3.753   6.094   0.144 -0.5912  0.0946  0.1019
  533TIP3    H223091   3.801   6.102   0.287 -0.2251  1.0228 -0.0662
  534TIP3   OH223092   3.908   2.450  16.361  0.0150  0.0796 -0.3875
  534TIP3    H123093   3.903   2.447  16.456 -0.9174  0.6237 -0.4108
  534TIP3    H223094   3.986   2.398  16.340  1.4407  1.6336  0.7667
  535TIP3   OH223095   0.328   2.133  12.247 -0.2062 -0.5746  0.2908
  535TIP3    H123096   0.345   2.181  12.329  0.0755 -0.8681  0.4050
  535TIP3    H223097   0.383   2.055  12.253  1.1760  0.2639 -0.9732
  536TIP3   OH223098   4.885   0.597  12.480 -0.1359 -0.0802 -0.3099
  536TIP3    H123099   4.794   0.611  12.506  0.3654  1.6928  0.6330
  536TIP3    H223100   4.883   0.594  12.384 -1.0002  1.4700 -0.3611
  537TIP3   OH223101   3.148   6.199  11.574  0.3459 -0.4495  0.5045
  537TIP3    H123102   3.075   6.167  11.627  1.1236 -0.2428  1.7702
  537TIP3    H223103   3.189   6.266  11.630  0.5310  0.6012 -0.8463
  538TIP3   OH223104   5.818   3.692  17.156 -0.2688 -0.3274 -0.0527
  538TIP3    H123105   5.826   3.599  17.137  1.6838 -0.1932 -0.1251
  538TIP3    H223106   5.904   3.717  17.190 -1.4913  0.9240  2.3854
  539TIP3   OH223107   6.252   6.357   0.036  0.7028 -0.3736  0.0512
  539TIP3    H123108   6.313   6.323   0.102 -0.3950 -3.2561 -0.2887
  539TIP3    H223109   6.165   6.338   0.072  0.0307  0.8508 -0.8596
  540TIP3   OH223110   5.942   3.070  15.361 -0.1260 -0.3753  0.2282
  540TIP3    H123111   5.953   3.098  15.270 -2.1113 -3.4183 -1.0961
  540TIP3    H223112   5.864   3.118  15.390  0.2894  0.3237  0.1999
  541TIP3   OH223113   2.450   4.384  12.817 -0.0578  0.1757  0.1624
  541TIP3    H123114   2.458   4.448  12.887 -0.8545 -0.1082  0.5268
  541TIP3    H223115   2.395   4.315  12.854  0.6032 -0.6148 -0.2938
  542TIP3   OH223116   5.934   1.791  11.658  0.2602  0.2943  0.1911
  542TIP3    H123117   5.841   1.816  11.661  0.6627  1.8046  1.2590
  542TIP3    H223118   5.936   1.704  11.697 -0.7171  0.2048  0.0762
  543TIP3   OH223119   0.108   6.559  15.958 -0.1032 -0.0310 -0.3790
  543TIP3    H123120   0.185   6.599  16.001 -0.3268 -0.7736  0.7514
  543TIP3    H223121   0.033   6.606  15.995 -0.3551 -1.2660  0.7762
  544TIP3   OH223122   3.848   6.194  14.825  0.1887  0.3989  0.1668
  544TIP3    H123123   3.862   6.232  14.911  2.1955  0.6938 -0.2284
  544TIP3    H223124   3.903   6.246  14.766  1.3564 -1.7146 -0.7586
  545TIP3   OH223125   5.387   0.835  15.603 -0.1619  0.1678  0.0030
  545TIP3    H123126   5.348   0.767  15.658 -1.2947 -1.3971 -2.5557
  545TIP3    H223127   5.431   0.787  15.533  4.4890  1.9447  1.3700
  546TIP3   OH223128   3.570   0.416  16.013 -0.4051  0.1198  0.0549
  546TIP3    H123129   3.544   0.325  15.997  1.4303 -0.8762  2.2451
  546TIP3    H223130   3.501   0.451  16.069 -1.8383  0.6126 -1.8819
  547TIP3   OH223131   1.866   5.311   5.833 -0.1917  0.3242  0.1894
  547TIP3    H123132   1.958   5.307   5.806 -0.3678  0.4379 -0.4331
  547TIP3    H223133   1.867   5.280   5.924  0.2822 -0.8955 -0.2159
  548TIP3   OH223134   0.217   4.687  14.761  0.1056 -0.2600 -0.1061
  548TIP3    H123135   0.152   4.656  14.698  0.0251 -2.5310  0.9955
  548TIP3    H223136   0.170   4.752  14.814 -0.5015 -0.0337 -0.9056
  549TIP3   OH223137   5.664   2.817  14.407 -0.2193 -0.2757 -0.5962
  549TIP3    H123138   5.588   2.760  14.412  0.0563 -0.5739  0.3295
  549TIP3    H223139   5.641   2.894  14.460  0.7525 -1.1383  1.1652
  550TIP3   OH223140   2.464   6.601   3.215  0.5923  0.0597 -0.0156
  550TIP3    H123141   2.419   6.635   3.138  0.6600  0.6794  0.2074
  550TIP3    H223142   2.531   6.667   3.235 -0.0120  0.3692  1.1049
  551TIP3   OH223143   5.685   0.752   2.083  0.3482 -0.3022 -0.4197
  551TIP3    H123144   5.694   0.847   2.085  0.1513 -0.2955  1.1878
  551TIP3    H223145   5.775   0.719   2.076  0.3284 -0.0336 -3.7583
  552TIP3   OH223146   2.544   6.211   0.663  0.3556 -0.2232  0.0814
  552TIP3    H123147   2.469   6.157   0.640  0.8479 -0.1771 -1.8084
  552TIP3    H223148   2.614   6.148   0.681  0.6875 -0.2904 -1.2676
  553TIP3   OH223149   1.648   3.092  15.026  0.0143 -0.2245  0.3994
  553TIP3    H123150   1.584   3.052  14.967  1.8413 -1.3694 -0.9236
  553TIP3    H223151   1.656   3.182  14.994  0.1354 -0.5019 -0.3763
  554TIP3   OH223152   0.813   5.873  14.152  0.3639  0.0834  0.1277
  554TIP3    H123153   0.825   5.792  14.103  0.6096  1.4682 -2.2485
  554TIP3    H223154   0.723   5.900  14.132  0.4369  0.6389  0.5140
  555TIP3   OH223155   3.508   5.261   0.350 -0.6285  0.0895 -0.1808
  555TIP3    H123156   3.475   5.271   0.260 -1.2761 -0.2932  0.0085
  555TIP3    H223157   3.598   5.295   0.346 -0.5993 -0.0580 -1.0058
  556TIP3   OH223158   1.582   0.350   1.656  0.2553  0.0645 -0.5662
  556TIP3    H123159   1.639   0.283   1.616  3.4955  2.8254 -1.0979
  556TIP3    H223160   1.521   0.373   1.586 -1.1451 -2.4428 -0.2655
  557TIP3   OH223161   6.574   5.655  15.063  0.3876 -0.2725  0.3252
  557TIP3    H123162   6.585   5.694  14.976 -0.0661  1.0154  0.8229
  557TIP3    H223163   6.509   5.586  15.049 -0.0178  0.2177 -0.2853
  558TIP3   OH223164   6.106   1.386  12.715  0.3057  0.3490 -0.6842
  558TIP3    H123165   6.195   1.356  12.730  0.4889  2.0472  2.3490
  558TIP3    H223166   6.056   1.352  12.789 -0.9289  1.8063 -0.7812
  559TIP3   OH223167   5.643   0.176   3.309  0.0078  0.4571 -0.0470
  559TIP3    H123168   5.722   0.130   3.281  0.2159  0.4831  0.5003
  559TIP3    H223169   5.576   0.148   3.246  0.5064  0.6199 -0.6514
  560TIP3   OH223170   5.864   5.736  15.427 -0.5968  0.2165 -0.6807
  560TIP3    H123171   5.804   5.703  15.495 -0.3005  1.2450  0.1106
  560TIP3    H223172   5.808   5.782  15.366 -1.0515 -1.8379 -1.9292
  561TIP3   OH223173   1.744   6.596  12.082 -0.3163 -0.0485  0.1368
  561TIP3    H123174   1.818   6.653  12.098 -1.0686  0.9258  0.2386
  561TIP3    H223175   1.724   6.557  12.167 -1.3339  1.4638  0.6374
  562TIP3   OH223176   6.746   1.810   4.942 -0.5453  0.8897 -0.1013
  562TIP3    H123177   6.822   1.834   4.995  0.1242 -1.0684 -0.1022
  562TIP3    H223178   6.682   1.879   4.960  0.6051  1.6686  1.2290
  563TIP3   OH223179   1.792   2.025  11.405 -0.0546 -0.3392 -0.7111
  563TIP3    H123180   1.783   1.972  11.326  2.0931  0.7399 -1.7528
  563TIP3    H223181   1.714   2.081  11.406 -0.8586 -1.4322 -1.1958
  564TIP3   OH223182   4.251   0.918  17.002  0.7253  0.2137 -0.7682
  564TIP3    H123183   4.202   0.842  17.032  2.0271 -0.3152  0.1053
  564TIP3    H223184   4.288   0.892  16.918  0.4393  0.2133 -0.8952
  565TIP3   OH223185   6.382   2.216   4.652  0.2947  0.3142  0.3421
  565TIP3    H123186   6.333   2.244   4.729  0.0218 -1.8266  0.9977
  565TIP3    H223187   6.419   2.131   4.675  0.2482 -0.3848 -1.8530
  566TIP3   OH223188   1.903   0.647  13.098 -0.1822  0.0399  0.0899
  566TIP3    H123189   1.971   0.636  13.165 -0.8281  1.0585  0.9400
  566TIP3    H223190   1.854   0.724  13.126 -1.6001 -0.5850 -0.5935
  567TIP3   OH223191   6.435   0.841   6.275  1.0019  0.3721  0.0045
  567TIP3    H123192   6.461   0.749   6.282  3.5661  0.5407 -3.8769
  567TIP3    H223193   6.514   0.890   6.296 -0.7552  2.0006  3.7473
  568TIP3   OH223194   6.591   2.374  13.555  0.3398 -0.3453 -0.4505
  568TIP3    H123195   6.519   2.438  13.552 -0.5452 -1.3567 -2.7725
  568TIP3    H223196   6.549   2.290  13.536  1.4780 -1.7447  2.5651
  569TIP3   OH223197   2.014   2.236   4.723 -0.1419 -0.4868  0.2170
  569TIP3    H123198   2.048   2.149   4.700  0.2500 -0.2419 -0.1555
  569TIP3    H223199   1.984   2.273   4.639  0.2361 -0.0356  0.2736
  570TIP3   OH223200   2.586   5.325  10.974 -0.4181 -0.4452 -0.2741
  570TIP3    H123201   2.674   5.331  10.935  0.1212  0.0638  0.9733
  570TIP3    H223202   2.591   5.249  11.032 -0.0199  0.9764  1.6389
  571TIP3   OH223203   2.987   3.846   0.441 -0.0388  0.0341 -0.1051
  571TIP3    H123204   3.029   3.930   0.422 -0.5529 -0.0233 -1.5478
  571TIP3    H223205   2.900   3.869   0.473  0.1468  0.0677  0.3871
  572TIP3   OH223206   5.761   2.798   1.871  0.3345 -0.5157  0.1145
  572TIP3    H123207   5.669   2.774   1.887 -0.3546  1.3654 -0.7832
  572TIP3    H223208   5.777   2.774   1.780  1.0669 -1.7353  0.5432
  573TIP3   OH223209   2.663   1.512   0.520  0.1337 -0.3376 -0.3608
  573TIP3    H123210   2.688   1.600   0.494  0.0762 -0.2194 -0.0155
  573TIP3    H223211   2.702   1.455   0.454  0.4746 -0.0817 -0.3778
  574TIP3   OH223212   2.907   1.611   4.940  0.0486  0.3474 -0.1689
  574TIP3    H123213   2.843   1.645   4.877 -1.1188 -1.1118  0.1813
  574TIP3    H223214   2.942   1.690   4.982 -0.8983  1.2363 -0.9710
  575TIP3   OH223215   4.372   4.030  14.136  0.6653 -0.0035 -0.1497
  575TIP3    H123216   4.277   4.020  14.141  0.6148 -1.0421 -2.1727
  575TIP3    H223217   4.401   4.023  14.227 -1.1227 -0.5146  0.4296
  576TIP3   OH223218   2.228   5.502  13.003  1.0272  0.1774  0.0408
  576TIP3    H123219   2.237   5.586  12.957 -0.4670  0.6853  0.6089
  576TIP3    H223220   2.163   5.519  13.071 -0.6911 -1.9077 -0.9675
  577TIP3   OH223221   6.283   3.466   1.698 -0.0224  0.2048  0.0257
  577TIP3    H123222   6.337   3.388   1.686  1.1944  0.9007  0.7724
  577TIP3    H223223   6.279   3.506   1.611 -1.6358 -1.2463 -0.6409
  578TIP3   OH223224   5.809   6.691   2.737 -0.5568 -0.0023  0.0195
  578TIP3    H123225   5.895   6.731   2.752 -1.2670  1.0715  1.4742
  578TIP3    H223226   5.750   6.765   2.721 -1.8243 -0.3709  2.4017
  579TIP3   OH223227   6.444   3.716  15.653  0.7963  0.1900  0.3520
  579TIP3    H123228   6.463   3.790  15.595 -0.4513  0.0081 -0.3204
  579TIP3    H223229   6.409   3.649  15.595 -1.5798  0.4049  1.4409
  580TIP3   OH223230   1.705   3.041  15.311 -0.7693 -0.3637  0.1396
  580TIP3    H123231   1.658   3.124  15.321 -0.9139 -0.4124 -0.1215
  580TIP3    H223232   1.720   3.033  15.217 -0.5856 -0.5394  0.1843
  581TIP3   OH223233   4.895   3.089  14.033  0.0943 -0.3034 -0.0153
  581TIP3    H123234   4.815   3.037  14.028 -0.9215  1.1322  0.5812
  581TIP3    H223235   4.946   3.062  13.957  0.0027 -2.7217  0.7108
  582TIP3   OH223236   4.366   3.849   5.364 -0.4131  0.6769  0.6571
  582TIP3    H123237   4.395   3.849   5.273 -1.8306  1.2967  0.1765
  582TIP3    H223238   4.436   3.805   5.412  0.2560  0.1451 -0.7634
  583TIP3   OH223239   1.277   6.052  13.753  0.0214  0.1199 -0.3682
  583TIP3    H123240   1.368   6.081  13.748  0.0079  0.3595  0.5515
  583TIP3    H223241   1.236   6.111  13.817 -0.2784 -1.1917  0.7084
  584TIP3   OH223242   4.432   3.255  14.784  0.0595  0.1249 -0.3676
  584TIP3    H123243   4.392   3.288  14.704 -0.5749 -1.5594 -0.7832
  584TIP3    H223244   4.396   3.168  14.795  3.4505 -1.4866 -0.6953
  585TIP3   OH223245   5.873   3.408  11.097 -0.3338  0.0526 -0.2222
  585TIP3    H123246   5.953   3.395  11.047 -0.1580 -0.2399  0.1293
  585TIP3    H223247   5.898   3.468  11.168 -0.5256  0.2874 -0.3503
  586TIP3   OH223248   1.570   0.309   2.330  0.1886  0.1662 -0.6944
  586TIP3    H123249   1.496   0.308   2.391  0.2320 -1.4581 -0.6445
  586TIP3    H223250   1.531   0.334   2.246 -0.2692  0.1551 -0.4912
  587TIP3   OH223251   3.773   1.877   3.333  0.1538  0.0918  0.2506
  587TIP3    H123252   3.751   1.895   3.424 -3.3478 -0.6047 -0.3321
  587TIP3    H223253   3.694   1.838   3.296  1.6097 -0.1252 -2.9905
  588TIP3   OH223254   6.508   4.136   1.646 -0.0565 -0.3072 -0.0915
  588TIP3    H123255   6.603   4.122   1.656 -0.4905 -1.8075  3.1295
  588TIP3    H223256   6.497   4.231   1.654  1.0875 -0.2008  0.3651
  589TIP3   OH223257   5.472   0.224  15.077 -0.3652 -0.3496  0.8417
  589TIP3    H123258   5.475   0.218  15.173  0.8961  1.2852  0.9542
  589TIP3    H223259   5.534   0.295  15.056 -1.2842 -0.0783 -1.1246
  590TIP3   OH223260   3.333   2.732   1.000  0.3580 -0.4627 -0.0570
  590TIP3    H123261   3.248   2.707   1.037  0.5257 -1.7861 -0.5116
  590TIP3    H223262   3.394   2.727   1.074 -0.0664  1.2942  0.4626
  591TIP3   OH223263   0.999   2.501  16.279 -0.3589 -0.2456 -0.5440
  591TIP3    H123264   0.986   2.484  16.372 -1.8454  1.9796 -0.2710
  591TIP3    H223265   0.934   2.447  16.235 -0.8989  0.0708 -0.1443
  592TIP3   OH223266   1.780   4.811  15.690  0.2766 -0.2185 -0.5882
  592TIP3    H123267   1.843   4.868  15.734 -1.2320  0.0905  1.3290
  592TIP3    H223268   1.833   4.753  15.637  2.2448 -0.3061  1.3231
  593TIP3   OH223269   2.279   2.069   2.405  0.2908 -0.1466  0.1805
  593TIP3    H123270   2.367   2.083   2.371  0.4439 -0.4311  0.4573
  593TIP3    H223271   2.223   2.122   2.348  0.5516 -0.5774 -0.4853
  594TIP3   OH223272   3.618   6.261   1.254  0.7454 -0.0082  0.4408
  594TIP3    H123273   3.677   6.194   1.288 -1.1548 -1.7947  0.4113
  594TIP3    H223274   3.632   6.258   1.159  2.1625  1.1769  0.5742
  595TIP3   OH223275   6.734   6.242  12.170 -0.6680 -0.0323 -0.0437
  595TIP3    H123276   6.669   6.308  12.193  1.1913  2.3874 -1.2538
  595TIP3    H223277   6.815   6.273  12.210  0.1272 -2.0952  0.0797
  596TIP3   OH223278   4.050   3.869   2.273 -0.3420 -0.0507 -0.5523
  596TIP3    H123279   4.079   3.938   2.214 -0.3163  0.5589  0.1654
  596TIP3    H223280   4.130   3.827   2.303 -0.2293  0.9934  0.6612
  597TIP3   OH223281   3.888   0.442  15.220  0.1710 -0.4361  0.2163
  597TIP3    H123282   3.886   0.515  15.157 -0.9639 -1.1018 -0.5567
  597TIP3    H223283   3.961   0.464  15.279 -1.2781  2.2862  1.1808
  598TIP3   OH223284   5.913   2.662  12.492  0.1983  0.6719  1.1197
  598TIP3    H123285   5.945   2.751  12.477  0.5845  0.7508  2.3318
  598TIP3    H223286   5.936   2.643  12.583  1.3548 -1.1742  0.4967
  599TIP3   OH223287   4.635   0.910  13.567  0.5652  0.0637 -0.3809
  599TIP3    H123288   4.669   0.822  13.552 -1.8366 -1.0182 -0.0568
  599TIP3    H223289   4.660   0.960  13.489 -0.0193 -1.6059 -1.6941
  600TIP3   OH223290   1.369   1.826   4.973  0.1300  0.0479 -0.3174
  600TIP3    H123291   1.285   1.781   4.981 -1.1208  2.4087  0.7874
  600TIP3    H223292   1.347   1.912   4.938  2.0568  0.8184  0.2487
  601TIP3   OH223293   6.583   4.582   4.950 -0.0382  0.0145  0.2654
  601TIP3    H123294   6.556   4.657   4.897 -1.1088 -0.0797  0.6529
  601TIP3    H223295   6.673   4.603   4.976  1.2897 -0.8368 -3.1240
  602TIP3   OH223296   5.200   5.912  14.420  0.2269 -0.1878 -0.0829
  602TIP3    H123297   5.116   5.924  14.465 -0.0968 -0.4429 -0.6021
  602TIP3    H223298   5.218   5.997  14.381  0.2055 -0.1316  0.0314
  603TIP3   OH223299   5.513   0.782  11.361  0.2382 -0.4417  0.6604
  603TIP3    H123300   5.513   0.815  11.272 -1.0110 -0.2639  0.7175
  603TIP3    H223301   5.587   0.827  11.403 -1.7215  2.7975  0.9066
  604TIP3   OH223302   2.558   1.222  12.783 -0.3105 -0.6792 -0.4652
  604TIP3    H123303   2.479   1.216  12.838 -0.2015  0.7102 -0.1155
  604TIP3    H223304   2.595   1.134  12.785 -1.0507 -0.9911  0.5829
  605TIP3   OH223305   5.949   5.516  14.141  0.5024 -0.8508 -0.3359
  605TIP3    H123306   6.015   5.502  14.209 -0.6260 -0.6092  0.8609
  605TIP3    H223307   5.866   5.507  14.187 -0.2938  0.4740 -1.4419
  606TIP3   OH223308   3.868   1.282   1.194  0.3162  0.1099 -0.0017
  606TIP3    H123309   3.812   1.298   1.118 -0.7830 -1.0266  0.5313
  606TIP3    H223310   3.868   1.364   1.242  1.4470  1.0141 -1.4588
  607TIP3   OH223311   2.472   3.798   3.975 -0.7784  0.2389 -0.3116
  607TIP3    H123312   2.462   3.881   3.928 -3.3499  1.5592  2.2812
  607TIP3    H223313   2.525   3.821   4.051 -0.7480 -0.7508 -0.0260
  608TIP3   OH223314   4.976   2.638   0.215 -0.0297 -0.7100  1.0414
  608TIP3    H123315   4.998   2.552   0.179  1.4814 -1.1198  2.7784
  608TIP3    H223316   4.978   2.697   0.139  0.7936 -1.8953  0.0985
  609TIP3   OH223317   6.687   3.927   4.210 -0.4294 -0.5088  0.0794
  609TIP3    H123318   6.604   3.925   4.258 -1.4176 -0.7640 -1.5466
  609TIP3    H223319   6.668   3.879   4.129  1.5696 -1.3311  0.0415
  610TIP3   OH223320   4.102   0.884  11.541  0.4633  0.0620  0.2180
  610TIP3    H123321   4.043   0.890  11.466  0.4872  0.1481  0.2068
  610TIP3    H223322   4.121   0.791  11.549  1.7569  0.2138 -0.8824
  611TIP3   OH223323   3.591   0.940   1.779  0.2455  0.1884 -0.6046
  611TIP3    H123324   3.542   0.858   1.781  1.0495 -0.2955 -0.1671
  611TIP3    H223325   3.535   1.000   1.729 -1.3663  0.0489  0.9438
  612TIP3   OH223326   0.505   6.234   4.401 -0.3138 -0.0683 -0.1961
  612TIP3    H123327   0.543   6.225   4.314  0.5457 -1.3768  0.2790
  612TIP3    H223328   0.535   6.320   4.432 -1.2393  0.7379 -1.4433
  613TIP3   OH223329   4.434   6.811  13.387 -0.1409 -0.1904 -0.0961
  613TIP3    H123330   4.468   6.724  13.409 -2.8112 -1.3702 -0.2806
  613TIP3    H223331   4.449   6.863  13.466 -0.4778 -1.4552  0.8204
  614TIP3   OH223332   1.425   5.982  13.304 -0.1123  0.2980  0.0803
  614TIP3    H123333   1.501   5.974  13.246  0.2637  1.4721  0.3989
  614TIP3    H223334   1.399   6.074  13.297  0.4529  0.6835  2.3887
  615TIP3   OH223335   4.668   4.449  14.769  0.6705  0.2556  0.4032
  615TIP3    H123336   4.700   4.417  14.685  1.1149  1.3496  0.1499
  615TIP3    H223337   4.691   4.379  14.831  2.0220  0.2558 -0.0654
  616TIP3   OH223338   0.425   5.302   5.423  0.3645  0.2631  0.2111
  616TIP3    H123339   0.389   5.385   5.392 -1.7148 -0.6116  0.1258
  616TIP3    H223340   0.519   5.319   5.434  0.2288  2.1998 -1.1508
  617TIP3   OH223341   4.893   3.118  10.802  0.2336 -0.7589  0.1506
  617TIP3    H123342   4.954   3.125  10.875  1.6678 -0.9576 -0.9775
  617TIP3    H223343   4.944   3.077  10.732 -1.5865 -2.1484 -0.4342
  618TIP3   OH223344   5.292   4.993   4.848 -0.1330  0.0798 -0.2973
  618TIP3    H123345   5.246   4.993   4.931 -0.6154  0.9235 -0.5503
  618TIP3    H223346   5.264   5.074   4.805 -2.3808 -1.7939 -2.6567
  619TIP3   OH223347   5.857   2.867  11.625 -0.3390  0.3590 -0.5306
  619TIP3    H123348   5.801   2.937  11.658 -1.1418 -0.3721 -0.3281
  619TIP3    H223349   5.910   2.909  11.556  0.2970  1.5345  0.6316
  620TIP3   OH223350   2.267   6.572   4.434 -0.3299 -0.3731 -0.3683
  620TIP3    H123351   2.331   6.574   4.362  0.0988  2.3256 -0.0162
  620TIP3    H223352   2.276   6.657   4.476 -2.8832 -0.6428  0.8862
  621TIP3   OH223353   4.367   6.819   3.208 -0.4088 -0.1295  0.3946
  621TIP3    H123354   4.340   6.907   3.234  0.3324  0.1999  0.0636
  621TIP3    H223355   4.442   6.833   3.150 -1.4012 -0.8640 -1.1522
  622TIP3   OH223356   3.489   0.045   4.336  0.0050  0.4425  0.2412
  622TIP3    H123357   3.488   0.004   4.249 -1.9087  2.4237 -0.7979
  622TIP3    H223358   3.527  -0.021   4.394 -0.1488 -1.5741 -1.8117
  623TIP3   OH223359   1.011   6.311   1.165 -0.3013  0.6327 -0.0903
  623TIP3    H123360   1.062   6.299   1.085 -0.4552  0.5259 -0.1708
  623TIP3    H223361   0.938   6.251   1.157  0.5747 -0.6175  0.8899
  624TIP3   OH223362   2.324   1.146   5.491 -0.0599  0.0441  0.0252
  624TIP3    H123363   2.291   1.058   5.508  0.4892  0.2068  2.2252
  624TIP3    H223364   2.249   1.204   5.506 -0.2405  0.0211 -0.7397
  625TIP3   OH223365   5.710   5.546  14.273 -0.2081 -0.1189  0.8839
  625TIP3    H123366   5.674   5.575  14.357  1.8401  0.5989  1.5781
  625TIP3    H223367   5.641   5.492  14.234 -0.9221 -1.1375  3.3760
  626TIP3   OH223368   4.256   1.195  13.894  0.9214  0.6134  0.1462
  626TIP3    H123369   4.351   1.191  13.889  0.9869  0.7198  1.0630
  626TIP3    H223370   4.230   1.108  13.926  0.6532  0.3625 -0.7287
  627TIP3   OH223371   6.742   0.456   3.514 -0.2688 -0.4501  0.1192
  627TIP3    H123372   6.693   0.380   3.544  1.0122 -1.0817  0.6905
  627TIP3    H223373   6.772   0.432   3.426  0.0196 -0.5543  0.2450
  628TIP3   OH223374   4.984   3.743  16.746 -0.2423  0.0205  0.5650
  628TIP3    H123375   5.042   3.774  16.677  0.5440 -0.4778  0.9849
  628TIP3    H223376   4.953   3.823  16.789  0.7480  0.2784  0.8240
  629TIP3   OH223377   3.675   2.894   3.822 -0.0655 -0.2348 -0.1769
  629TIP3    H123378   3.671   2.810   3.867  0.8326 -0.6358 -0.8359
  629TIP3    H223379   3.742   2.883   3.755 -0.0588  0.9497 -0.3871
  630TIP3   OH223380   6.648   0.854   5.631  0.7695  0.1763  0.1026
  630TIP3    H123381   6.697   0.932   5.655 -1.0273  1.3007  0.2913
  630TIP3    H223382   6.602   0.828   5.712 -0.5604  0.3988 -0.5547
  631TIP3   OH223383   3.910   3.213  12.362  0.5719 -0.0058  0.7107
  631TIP3    H123384   3.856   3.280  12.405 -0.1202  0.6746 -1.1386
  631TIP3    H223385   3.972   3.263  12.308  0.3967 -0.8364 -0.2844
  632TIP3   OH223386   4.492   6.337   1.304  0.1159 -0.8429 -0.4039
  632TIP3    H123387   4.521   6.352   1.395 -0.8978  0.4108 -0.2607
  632TIP3    H223388   4.427   6.267   1.311 -0.8188  0.0492  0.0116
  633TIP3   OH223389   5.257   2.336  14.067  0.3262  0.0707  0.0788
  633TIP3    H123390   5.195   2.341  13.995 -0.9923 -3.3894  0.7863
  633TIP3    H223391   5.336   2.379  14.034 -1.1841  1.2471 -2.2533
  634TIP3   OH223392   6.252   1.570  11.818 -0.3237  0.0773 -0.2834
  634TIP3    H123393   6.157   1.576  11.808 -0.2882 -0.6328 -1.1850
  634TIP3    H223394   6.284   1.553  11.729  0.7699  1.7221 -0.2493
  635TIP3   OH223395   2.183   1.395  15.861  0.3797  0.1826 -0.0087
  635TIP3    H123396   2.202   1.359  15.774  1.8764  1.7375 -0.3717
  635TIP3    H223397   2.244   1.467  15.872 -0.2891  0.5226  2.0517
  636TIP3   OH223398   5.241   1.615  17.273 -0.4507 -0.2182  0.0737
  636TIP3    H123399   5.295   1.675  17.221 -0.9105  0.2558  0.1326
  636TIP3    H223400   5.237   1.656  17.360  2.7359 -2.4328  1.4465
  637TIP3   OH223401   2.878   6.316  12.836  0.3547 -0.1126 -0.6402
  637TIP3    H123402   2.972   6.330  12.828  0.3956 -0.6020 -1.1392
  637TIP3    H223403   2.857   6.253  12.766 -0.5786  1.0248 -1.4405
  638TIP3   OH223404   5.250   0.695   0.582 -0.5065 -0.7098  0.6574
  638TIP3    H123405   5.233   0.610   0.541 -2.4164 -0.2843  0.4415
  638TIP3    H223406   5.230   0.681   0.674  1.4557 -1.0474  1.0792
  639TIP3   OH223407   3.850   4.120   1.140  0.0155 -0.1564  0.2588
  639TIP3    H123408   3.785   4.166   1.087 -1.3173 -0.5889  1.4583
  639TIP3    H223409   3.925   4.110   1.082 -1.2231 -0.2409 -1.4096
  640TIP3   OH223410   2.775   5.628  11.384 -0.0490  0.0720 -0.3135
  640TIP3    H123411   2.770   5.572  11.307 -1.1622 -0.8141  0.3768
  640TIP3    H223412   2.815   5.709  11.353 -3.1792  0.9331 -2.5424
  641TIP3   OH223413   1.803   4.638  14.484 -0.3744  0.1661 -0.3552
  641TIP3    H123414   1.769   4.721  14.519  0.7623 -0.2319  1.9491
  641TIP3    H223415   1.726   4.592  14.451 -0.8353  2.7993 -3.4035
  642TIP3   OH223416   4.151   4.373   2.367  0.7798  0.3407 -0.4277
  642TIP3    H123417   4.128   4.413   2.283  0.3545 -0.2126 -0.5880
  642TIP3    H223418   4.193   4.290   2.343  2.1767  0.9442 -0.1170
  643TIP3   OH223419   4.146   6.409   3.146  0.0750  0.2173 -0.3365
  643TIP3    H123420   4.204   6.449   3.210 -0.6807 -2.0601  1.9332
  643TIP3    H223421   4.073   6.375   3.197 -2.4803  1.4250 -2.8689
  644TIP3   OH223422   0.979   4.385  16.848 -0.3634 -0.3509 -0.3037
  644TIP3    H123423   0.932   4.415  16.925 -0.7461 -1.6046 -0.0161
  644TIP3    H223424   0.912   4.340  16.796 -0.0811  0.3727 -1.3077
  645TIP3   OH223425   2.367   0.940  12.493 -1.0197 -0.7275 -0.2335
  645TIP3    H123426   2.364   1.035  12.479 -3.6879 -0.3672  1.8760
  645TIP3    H223427   2.285   0.908  12.456  0.3632 -2.4865 -1.9827
  646TIP3   OH223428   0.976   0.283   3.225 -0.2173  0.6735  0.8274
  646TIP3    H123429   0.994   0.261   3.134 -3.8743 -2.2886  0.5626
  646TIP3    H223430   1.056   0.259   3.272  0.1585 -2.3788 -1.1098
  647TIP3   OH223431   4.297   1.031  15.361  0.6349 -0.6599  0.1538
  647TIP3    H123432   4.299   1.024  15.456 -0.0091 -0.8565  0.1577
  647TIP3    H223433   4.234   0.965  15.334  0.3740 -0.2037 -0.3697
  648TIP3   OH223434   0.452   5.713   4.454 -0.4332  0.0479 -0.2427
  648TIP3    H123435   0.483   5.750   4.372  3.1018 -0.4456  0.6888
  648TIP3    H223436   0.487   5.624   4.455  0.4995  0.3603  2.1429
  649TIP3   OH223437   3.671   1.519  11.702  0.1752 -0.2312  0.0425
  649TIP3    H123438   3.589   1.565  11.687 -0.2087 -0.7979  0.3636
  649TIP3    H223439   3.713   1.516  11.616  0.4993  1.2481  0.1308
  650TIP3   OH223440   3.259   6.337  14.940  0.0533  0.4163 -0.6599
  650TIP3    H123441   3.168   6.332  14.968  0.3299 -1.3887  0.0626
  650TIP3    H223442   3.309   6.347  15.022  0.5533  0.8137 -1.0040
  651TIP3   OH223443   1.397   0.647   2.008 -0.1145 -0.0998  0.0455
  651TIP3    H123444   1.317   0.666   2.057 -0.8335  0.2950 -1.2294
  651TIP3    H223445   1.463   0.703   2.048 -1.1648  1.8212 -0.7155
  652TIP3   OH223446   1.626   4.051   0.362  0.3556  0.3992 -0.0709
  652TIP3    H123447   1.701   4.018   0.411  1.8939  0.8598 -2.0267
  652TIP3    H223448   1.613   4.140   0.396  0.6605  0.3064  0.2998
  653TIP3   OH223449   4.373   3.806  15.799 -0.1474  0.1340 -0.3811
  653TIP3    H123450   4.337   3.730  15.752 -1.1016  0.8420 -0.8189
  653TIP3    H223451   4.302   3.834  15.857  0.4702  0.2373  0.3509
  654TIP3   OH223452   4.317   5.481   3.366 -0.0557  0.4183  0.0112
  654TIP3    H123453   4.306   5.483   3.271  0.5030 -2.3184 -0.2110
  654TIP3    H223454   4.228   5.490   3.401 -0.6536 -1.2428 -0.9395
  655TIP3   OH223455   2.366   0.898  14.383 -0.0466  0.3322 -0.0931
  655TIP3    H123456   2.459   0.875  14.390  0.2221  1.5650  0.7297
  655TIP3    H223457   2.345   0.883  14.291  0.4687 -1.6830  0.0706
  656TIP3   OH223458   0.242   4.732  12.230  0.4657 -0.2396  0.2581
  656TIP3    H123459   0.303   4.718  12.303  0.5230 -0.1097  0.2364
  656TIP3    H223460   0.297   4.767  12.160  0.3858 -0.2352  0.1974
  657TIP3   OH223461   2.088   4.521   4.725 -0.5128  0.0048 -0.0219
  657TIP3    H123462   2.112   4.428   4.724  0.3518  0.1752  1.3061
  657TIP3    H223463   2.120   4.555   4.642 -1.2598 -0.9835 -0.7261
  658TIP3   OH223464   0.109   3.185  16.409  0.3672  0.7942  0.4344
  658TIP3    H123465   0.055   3.227  16.342 -1.3751  0.1719  1.4013
  658TIP3    H223466   0.087   3.092  16.404  1.3681  0.5185  0.8496
  659TIP3   OH223467   5.482   0.956  15.842  1.1175 -0.3640 -0.1353
  659TIP3    H123468   5.428   1.035  15.853  0.0538 -0.9850 -0.7167
  659TIP3    H223469   5.456   0.922  15.756 -1.1141 -3.3064  1.5484
  660TIP3   OH223470   5.101   6.456  15.991 -0.5436  0.2620  0.2403
  660TIP3    H123471   5.152   6.384  15.954 -0.5115  0.2942  0.2218
  660TIP3    H223472   5.085   6.431  16.082  1.4119  1.2536  0.9090
  661TIP3   OH223473   0.660   6.388  12.040 -0.5208  0.0233  0.5772
  661TIP3    H123474   0.693   6.477  12.052  2.8694 -1.1122  0.7876
  661TIP3    H223475   0.668   6.348  12.127 -4.4991  0.1349  1.1496
  662TIP3   OH223476   3.552   1.709  12.623  0.0624 -0.5092 -0.3029
  662TIP3    H123477   3.560   1.695  12.718  2.6052 -1.2571 -0.5392
  662TIP3    H223478   3.539   1.803  12.613 -0.1522 -0.4125  0.7812
  663TIP3   OH223479   4.704   3.043  16.753  0.3916  0.0384 -0.3793
  663TIP3    H123480   4.638   3.109  16.730 -0.4495 -0.8580 -0.6012
  663TIP3    H223481   4.672   2.962  16.712  0.3351 -0.9796  1.5705
  664TIP3   OH223482   6.507   5.122  12.556  0.1254  0.5969 -0.4285
  664TIP3    H123483   6.485   5.037  12.517  0.3954  0.5686 -0.5175
  664TIP3    H223484   6.426   5.149  12.599  0.6479 -0.7362  1.5468
  665TIP3   OH223485   3.708   6.399   1.496  0.4700  0.1520 -0.2460
  665TIP3    H123486   3.779   6.335   1.504 -1.7289 -2.3974  0.2340
  665TIP3    H223487   3.695   6.408   1.401 -0.0222 -1.1662 -0.3286
  666TIP3   OH223488   0.960   0.034   2.628 -0.1941 -0.5360  0.3343
  666TIP3    H123489   0.900   0.078   2.688 -2.3831 -1.0616 -1.3491
  666TIP3    H223490   0.937  -0.059   2.635 -2.1400 -0.4240 -2.8675
  667TIP3   OH223491   3.904   1.875  11.697  0.4634 -0.4464 -0.3592
  667TIP3    H123492   3.955   1.837  11.625 -0.1131  1.9447 -2.1802
  667TIP3    H223493   3.856   1.947  11.656 -1.4959 -0.2676  2.0620
  668TIP3   OH223494   4.125   2.422   3.451  0.1801 -0.6932  0.1621
  668TIP3    H123495   4.071   2.470   3.389  1.1217  3.7554  2.3598
  668TIP3    H223496   4.063   2.393   3.519  0.0009  0.8253  0.6755
  669TIP3   OH223497   0.931   5.290  13.002  0.7511  0.3297 -0.0375
  669TIP3    H123498   1.002   5.240  12.963  1.3669  1.0963  0.0856
  669TIP3    H223499   0.907   5.355  12.935  1.1243  0.9803  0.4411
  670TIP3   OH223500   2.124   1.957  10.819 -0.2328 -0.1839  0.9245
  670TIP3    H123501   2.169   1.964  10.903  1.4896 -0.1542  0.0478
  670TIP3    H223502   2.078   2.040  10.809  1.3464  0.7317  0.8841
  671TIP3   OH223503   4.337   0.418   1.701  0.0683  0.1311  0.2726
  671TIP3    H123504   4.254   0.372   1.686 -0.7352  1.7025 -0.3862
  671TIP3    H223505   4.314   0.511   1.696  1.7777  0.6099  0.6584
  672TIP3   OH223506   1.449   4.665  16.110  0.0104  0.1887  0.4041
  672TIP3    H123507   1.376   4.646  16.169  0.6419  1.4830  1.6723
  672TIP3    H223508   1.428   4.617  16.030 -2.5343  0.9738  0.5021
  673TIP3   OH223509   2.505   4.015   6.417  0.0576 -0.3299 -0.0620
  673TIP3    H123510   2.422   3.976   6.390 -0.8420  0.6976  1.1290
  673TIP3    H223511   2.481   4.098   6.457  1.7624  0.5037 -0.6567
  674TIP3   OH223512   4.116   4.445  15.475  0.2979  0.0915  0.2316
  674TIP3    H123513   4.121   4.489  15.390 -1.4039  0.6739  0.3897
  674TIP3    H223514   4.079   4.359  15.456  1.6512 -0.4938  0.1789
  675TIP3   OH223515   0.743   6.521   0.611 -0.0488 -0.3040  0.2932
  675TIP3    H123516   0.813   6.546   0.552 -0.1251  1.6411  0.9600
  675TIP3    H223517   0.788   6.496   0.692 -0.0244 -1.4437 -0.0589
  676TIP3   OH223518   2.990   4.407  13.577  0.5938  0.2145 -0.3407
  676TIP3    H123519   2.945   4.437  13.498  1.8320 -0.3583 -1.2938
  676TIP3    H223520   2.948   4.455  13.649 -0.9547  0.3068 -1.2661
  677TIP3   OH223521   5.073   0.439   3.100 -0.3542  1.1739 -0.7302
  677TIP3    H123522   5.043   0.476   3.184  0.1171  1.4370 -0.6758
  677TIP3    H223523   4.994   0.400   3.063 -0.4861  0.7010  0.0167
  678TIP3   OH223524   6.491   4.275   1.346  0.4462  0.2630  0.7459
  678TIP3    H123525   6.516   4.199   1.397 -0.1657  1.1690  2.4649
  678TIP3    H223526   6.561   4.284   1.281  0.2923 -2.0120  0.1576
  679TIP3   OH223527   1.508   6.676   3.965  0.0281 -0.5321  0.2951
  679TIP3    H123528   1.536   6.584   3.966  2.2055  0.0752  1.1708
  679TIP3    H223529   1.435   6.678   3.903  0.3329 -2.7305 -0.2317
  680TIP3   OH223530   2.689   0.336   4.402  0.3245  0.8116  0.1729
  680TIP3    H123531   2.664   0.392   4.329  1.1991  0.5619 -0.3351
  680TIP3    H223532   2.673   0.389   4.480  1.9493  2.1112 -0.3348
  681TIP3   OH223533   6.106   1.043   1.482 -0.3352  0.5653  0.4662
  681TIP3    H123534   6.084   0.950   1.481 -0.6512  0.6348  1.0022
  681TIP3    H223535   6.060   1.080   1.406  0.0764  0.2263  0.0428
  682TIP3   OH223536   4.488   3.253   6.205 -0.1414 -0.0431  0.3744
  682TIP3    H123537   4.491   3.284   6.115  0.1989  0.1572  0.4541
  682TIP3    H223538   4.396   3.260   6.230 -0.0900  0.7915  0.3517
  683TIP3   OH223539   3.692   0.107   3.585 -0.1594 -0.5461 -1.1951
  683TIP3    H123540   3.744   0.048   3.530 -0.0539 -3.7768  2.0092
  683TIP3    H223541   3.604   0.071   3.583 -0.6113  0.5034 -0.8604
  684TIP3   OH223542   0.905   4.399   2.763  0.5492  0.5364 -0.2220
  684TIP3    H123543   0.848   4.444   2.827 -0.5014 -0.3356 -0.5217
  684TIP3    H223544   0.858   4.319   2.742  1.4685  0.2428 -1.1990
  685TIP3   OH223545   4.542   0.449  14.276  0.0477 -0.0974  0.6081
  685TIP3    H123546   4.632   0.423  14.257  0.6462  0.8911  1.9148
  685TIP3    H223547   4.514   0.498  14.199 -0.4950 -2.8855 -1.1324
  686TIP3   OH223548   0.252   3.481  17.059  0.8987  0.4501 -0.0544
  686TIP3    H123549   0.211   3.428  17.128  3.0113 -0.5753  0.5040
  686TIP3    H223550   0.198   3.560  17.054 -1.5893 -1.1709 -0.0010
  687TIP3   OH223551   0.633   3.241   5.247  0.1258  0.0628 -0.1097
  687TIP3    H123552   0.622   3.311   5.183  0.6204  1.0795  0.8843
  687TIP3    H223553   0.555   3.246   5.302  1.7433  2.3005  2.2259
  688TIP3   OH223554   0.974   6.632   0.502 -0.0418  0.2268  0.0117
  688TIP3    H123555   1.029   6.558   0.473  0.7822  0.7397  0.2286
  688TIP3    H223556   0.993   6.702   0.439 -2.2278 -0.2921 -1.3188
  689TIP3   OH223557   4.546   4.707  13.511  0.0139  0.4132  0.0213
  689TIP3    H123558   4.475   4.653  13.476  0.6055 -0.9199  0.7939
  689TIP3    H223559   4.609   4.644  13.547 -0.2480  1.5983  2.8897
  690TIP3   OH223560   1.967   3.431   3.157 -0.0007 -0.1700 -0.3452
  690TIP3    H123561   1.978   3.488   3.234 -0.1100  1.3519 -1.4096
  690TIP3    H223562   2.022   3.355   3.175  1.4467  1.0152  0.4338
  691TIP3   OH223563   1.963   5.052   3.141  0.3631  0.1380  0.5102
  691TIP3    H123564   1.930   5.121   3.083  0.6363 -0.6936 -0.6644
  691TIP3    H223565   1.913   5.063   3.222 -1.2775  0.2342 -0.4719
  692TIP3   OH223566   3.438   3.516  12.868 -0.3967 -0.1916  0.2591
  692TIP3    H123567   3.460   3.442  12.811 -1.3739 -0.2988 -0.0119
  692TIP3    H223568   3.347   3.499  12.893  0.4888 -1.1096  3.3323
  693TIP3   OH223569   6.186   0.937   6.309 -0.3024  0.3076  1.0192
  693TIP3    H123570   6.270   0.891   6.299 -1.1016 -0.8967 -0.9431
  693TIP3    H223571   6.146   0.897   6.386  0.2501 -0.2796  1.0168
  694TIP3   OH223572   4.077   5.907  16.682 -0.4048 -0.4962  0.6925
  694TIP3    H123573   4.086   5.945  16.595 -0.6113  0.9703  1.2773
  694TIP3    H223574   4.095   5.814  16.670  0.8316 -0.1184 -0.7007
  695TIP3   OH223575   5.043   6.041  13.903  0.0355  0.2074 -0.2214
  695TIP3    H123576   5.051   5.979  13.976 -0.1113  0.1812 -0.2271
  695TIP3    H223577   5.028   5.987  13.826 -0.1057  0.2506 -0.2245
  696TIP3   OH223578   6.164   0.430   0.221  0.1574 -0.1261  0.2661
  696TIP3    H123579   6.142   0.453   0.130  0.8966 -0.5734 -0.0384
  696TIP3    H223580   6.260   0.425   0.221  0.1312 -0.7623  0.9129
  697TIP3   OH223581   0.422   5.127  12.039 -0.1264  0.0348 -0.0849
  697TIP3    H123582   0.356   5.185  12.079  1.2827  1.3743  0.3945
  697TIP3    H223583   0.406   5.135  11.945  0.2102  1.4593 -0.0430
  698TIP3   OH223584   4.452   4.169   5.844  0.2751  0.0232  0.7108
  698TIP3    H123585   4.514   4.200   5.778  2.5007 -2.8815  1.2151
  698TIP3    H223586   4.487   4.083   5.870 -3.3322 -1.2320  1.9505
  699TIP3   OH223587   0.230   4.372   3.712  0.2698 -0.0549 -0.1198
  699TIP3    H123588   0.158   4.427   3.681  1.2302  0.3670 -1.6832
  699TIP3    H223589   0.226   4.380   3.808 -1.0537  0.8429 -0.2182
  700TIP3   OH223590   5.282   1.301  11.269  0.0328  0.1205 -0.5791
  700TIP3    H123591   5.219   1.337  11.332  0.9602  2.8109 -1.0604
  700TIP3    H223592   5.363   1.291  11.319 -0.5081 -2.7924 -0.1065
  701TIP3   OH223593   5.150   4.856  16.831  0.6389  0.3493  0.2888
  701TIP3    H123594   5.163   4.763  16.812  2.4206  0.5783  0.1502
  701TIP3    H223595   5.190   4.901  16.756  0.0089  1.2284  0.4698
  702TIP3   OH223596   5.175   5.725  16.520 -0.6257  0.0192 -0.4237
  702TIP3    H123597   5.178   5.667  16.596  0.2077 -0.7831 -1.0515
  702TIP3    H223598   5.119   5.679  16.457 -0.5200  0.2280 -0.6707
  703TIP3   OH223599   4.514   3.610  13.238  0.0051 -0.1771 -1.4884
  703TIP3    H123600   4.603   3.644  13.229  0.3052  0.1555  1.5998
  703TIP3    H223601   4.458   3.686  13.222  0.4794  0.5818  0.2275
  704TIP3   OH223602   0.205   4.852   0.023 -0.0476  1.0572 -0.0287
  704TIP3    H123603   0.181   4.936   0.061  0.0389  1.4707 -0.8734
  704TIP3    H223604   0.130   4.828  -0.032  1.0110  1.9067 -1.9421
  705TIP3   OH223605   0.618   3.591  15.969  0.1502 -0.3612  0.2861
  705TIP3    H123606   0.601   3.513  15.916  1.8120 -1.1149  0.8015
  705TIP3    H223607   0.542   3.598  16.027 -1.4969  0.2222 -1.8026
  706TIP3   OH223608   0.528   1.877  15.992 -0.3982 -0.0519  0.0964
  706TIP3    H123609   0.542   1.959  16.039  0.3140 -0.0315 -0.1347
  706TIP3    H223610   0.611   1.830  16.001 -0.0960  0.1407 -1.5021
  707TIP3   OH223611   3.758   0.952  16.028  0.0968 -0.3248  0.1062
  707TIP3    H123612   3.833   1.003  15.999  0.6593 -0.5943  1.0415
  707TIP3    H223613   3.717   0.922  15.947  1.7429 -1.2587 -0.4384
  708TIP3   OH223614   5.054   2.001   6.521  0.0630 -0.2350 -0.2787
  708TIP3    H123615   5.089   2.087   6.543 -0.8307  0.2330 -0.6342
  708TIP3    H223616   5.131   1.946   6.508  0.6430  0.1133  1.4469
  709TIP3   OH223617   6.094   1.042   4.604  0.1661 -0.2723  0.3404
  709TIP3    H123618   6.126   1.074   4.520  1.1676  1.4852  1.3430
  709TIP3    H223619   6.131   0.954   4.612  0.7203 -0.1396 -0.6983
  710TIP3   OH223620   0.173   2.477  12.305 -0.5276  0.0919  0.1187
  710TIP3    H123621   0.260   2.507  12.329 -1.1093  0.2584  2.1582
  710TIP3    H223622   0.161   2.511  12.216  2.4216 -2.1262 -1.2785
  711TIP3   OH223623   1.054   0.805  10.447 -0.0930 -0.4270  0.3189
  711TIP3    H123624   1.128   0.744  10.444  1.3348  1.2690 -2.3901
  711TIP3    H223625   0.981   0.755  10.412  1.0161 -0.7119 -1.7260
  712TIP3   OH223626   3.319   2.735  14.372 -0.1333 -0.0906  0.3845
  712TIP3    H123627   3.340   2.825  14.396 -0.5356  0.2215 -0.3835
  712TIP3    H223628   3.401   2.699  14.337  0.2240 -0.2752  1.3971
  713TIP3   OH223629   5.045   2.183  12.680  0.7846 -0.0605 -0.2039
  713TIP3    H123630   4.956   2.218  12.685  1.5359  2.3437 -1.5367
  713TIP3    H223631   5.101   2.261  12.686  2.8836 -1.5944  1.7305
  714TIP3   OH223632   1.149   3.158  12.130 -0.0411 -0.1505  0.2009
  714TIP3    H123633   1.115   3.086  12.183 -2.5639  0.6574 -0.2029
  714TIP3    H223634   1.092   3.161  12.054  2.7142 -0.4547 -2.0241
  715TIP3   OH223635   0.945   4.034   5.398 -0.0235  0.1231 -0.2018
  715TIP3    H123636   0.905   4.003   5.480 -0.4722 -0.4742 -0.6308
  715TIP3    H223637   1.004   4.104   5.425 -0.6779  0.4052  0.5587
  716TIP3   OH223638   0.788   3.592  12.637 -0.2075  0.2526 -0.4718
  716TIP3    H123639   0.724   3.542  12.688 -0.5062  0.2792 -0.8088
  716TIP3    H223640   0.834   3.646  12.701  2.7889 -3.1345  0.5356
  717TIP3   OH223641   0.958   0.617   0.001 -0.5455  0.3662 -0.2943
  717TIP3    H123642   0.937   0.554  -0.068 -1.4368  1.4605 -1.0529
  717TIP3    H223643   0.887   0.681  -0.001  0.0824  1.1489  0.7714
  718TIP3   OH223644   0.243   6.075   0.038  0.3148 -0.7815  0.3698
  718TIP3    H123645   0.194   5.999   0.006 -0.2956 -0.2218 -0.0455
  718TIP3    H223646   0.178   6.144   0.044  0.9203 -0.2188  0.5064
  719TIP3   OH223647   0.496   0.941   2.385  0.3743  0.2406 -0.3921
  719TIP3    H123648   0.431   0.967   2.449 -0.5494 -1.5695 -0.5345
  719TIP3    H223649   0.579   0.976   2.419 -0.2089 -0.0177  1.3972
  720TIP3   OH223650   6.204   1.642   2.403 -0.3149  0.3760  0.2094
  720TIP3    H123651   6.116   1.613   2.378 -0.9790  0.5361  2.2046
  720TIP3    H223652   6.225   1.590   2.481  1.3503  0.3876 -0.1990
  721TIP3   OH223653   0.381   0.749   1.682 -0.3574  0.1273  0.5527
  721TIP3    H123654   0.404   0.809   1.753  1.4027  1.7150 -1.2257
  721TIP3    H223655   0.371   0.664   1.725 -0.1527  1.1470  2.7836
  722TIP3   OH223656   2.648   2.976  15.613  0.5417  0.0686  0.1296
  722TIP3    H123657   2.699   3.003  15.690  1.5892  1.0623 -0.8784
  722TIP3    H223658   2.566   3.024  15.621  1.1434  1.1628  0.0042
  723TIP3   OH223659   3.843   4.753   3.124  0.4762  0.1233  0.1729
  723TIP3    H123660   3.929   4.724   3.156 -0.1870  0.0542  1.9972
  723TIP3    H223661   3.780   4.710   3.182 -0.8482 -0.2340 -1.4471
  724TIP3   OH223662   3.303   0.934   5.188 -0.0580 -0.0269  0.2374
  724TIP3    H123663   3.323   1.015   5.140  0.8104  0.7746  1.8339
  724TIP3    H223664   3.263   0.876   5.123  0.3419  1.2688 -1.2309
  725TIP3   OH223665   2.570   4.833   0.231  0.0076 -0.1716 -0.3093
  725TIP3    H123666   2.575   4.738   0.240 -0.3257 -0.1028  0.7827
  725TIP3    H223667   2.640   4.867   0.285  0.6828  0.2018 -1.3833
  726TIP3   OH223668   3.271   6.665   5.290  0.1274  0.4722  0.0116
  726TIP3    H123669   3.310   6.619   5.216 -0.1824  0.0514  0.1067
  726TIP3    H223670   3.306   6.620   5.367 -1.6211 -0.8559  0.0972
  727TIP3   OH223671   1.168   4.634   0.334 -0.0395 -0.3197  0.2062
  727TIP3    H123672   1.196   4.707   0.278 -2.3673  1.0805  0.7018
  727TIP3    H223673   1.168   4.558   0.276  2.6470 -0.0403 -0.2894
  728TIP3   OH223674   6.786   5.611  14.541 -0.7996 -0.0289  0.1268
  728TIP3    H123675   6.742   5.689  14.576 -1.1890 -0.0275 -0.3468
  728TIP3    H223676   6.879   5.629  14.551 -0.8582  0.9324 -0.8945
  729TIP3   OH223677   5.134   1.585  12.791  0.3978 -0.3446  0.2464
  729TIP3    H123678   5.073   1.656  12.772  1.2785  0.0035 -1.5737
  729TIP3    H223679   5.079   1.508  12.802 -0.5731  0.5708  2.1813
  730TIP3   OH223680   1.526   6.134  14.393  0.1891  0.0006  0.5268
  730TIP3    H123681   1.617   6.119  14.421 -0.1011  0.7105  1.9707
  730TIP3    H223682   1.514   6.228  14.402 -0.3642  0.0727 -0.7731
  731TIP3   OH223683   3.468   6.509  12.862  0.6025  0.2979 -0.3223
  731TIP3    H123684   3.434   6.581  12.809  0.7182  0.6723  0.1004
  731TIP3    H223685   3.391   6.455  12.880  1.0258 -1.4832 -3.3018
  732TIP3   OH223686   1.385   3.464   0.130  0.1589 -0.1469 -0.2483
  732TIP3    H123687   1.414   3.375   0.112  0.9673 -0.3580  1.8063
  732TIP3    H223688   1.416   3.482   0.219  0.0603  2.1980 -0.6133
  733TIP3   OH223689   1.156   4.396  14.695 -0.1219  0.2796  0.1923
  733TIP3    H123690   1.090   4.327  14.694 -0.4583  0.5754  1.0167
  733TIP3    H223691   1.240   4.350  14.702 -0.3332 -0.0521  0.5322
  734TIP3   OH223692   5.771   6.755  11.909  0.0399 -0.9293  0.1271
  734TIP3    H123693   5.780   6.809  11.831  0.8063 -1.2168  0.0124
  734TIP3    H223694   5.806   6.670  11.884 -2.2971 -1.9069 -0.1010
  735TIP3   OH223695   3.042   0.656  13.799  0.2637  0.0342  0.0456
  735TIP3    H123696   3.075   0.732  13.847  1.3715 -1.5257  1.8948
  735TIP3    H223697   2.949   0.676  13.783  0.4598  1.6300  0.7022
  736TIP3   OH223698   0.769   5.368   4.204 -0.6621 -0.2220  0.1025
  736TIP3    H123699   0.863   5.388   4.206 -0.5451 -0.5873 -0.8384
  736TIP3    H223700   0.765   5.274   4.220 -0.7644 -0.4177 -0.9848
  737TIP3   OH223701   0.734   2.621   6.194  0.3567 -0.4986 -0.5612
  737TIP3    H123702   0.766   2.709   6.211 -0.1868 -0.1074 -1.5276
  737TIP3    H223703   0.745   2.575   6.278 -1.6078  1.1556  0.6693
  738TIP3   OH223704   1.509   1.046  11.176 -0.3673  0.2421 -0.3369
  738TIP3    H123705   1.558   1.116  11.219  1.3305 -0.9821 -0.1614
  738TIP3    H223706   1.544   0.965  11.214 -0.0834 -0.8297 -2.6888
  739TIP3   OH223707   5.686   1.304  15.509 -0.0214  0.1151  0.4275
  739TIP3    H123708   5.689   1.400  15.507 -0.3517  0.1163 -1.4629
  739TIP3    H223709   5.778   1.278  15.517  0.3824  0.6042 -1.8859
  740TIP3   OH223710   1.014   3.865   5.741 -0.1202  0.6165  0.4023
  740TIP3    H123711   1.013   3.957   5.768  0.1751  0.5031  0.8084
  740TIP3    H223712   1.105   3.838   5.753 -0.6548 -0.3938  2.5851
  741TIP3   OH223713   5.197   3.814  15.619  0.8473 -0.3658 -0.2380
  741TIP3    H123714   5.118   3.852  15.581  0.7479 -1.1194 -0.8102
  741TIP3    H223715   5.243   3.888  15.660 -0.2193  0.0509  0.2329
  742TIP3   OH223716   3.905   5.740   0.528 -0.4341  0.1384 -0.1463
  742TIP3    H123717   3.944   5.761   0.613  3.4626  1.0115 -1.9057
  742TIP3    H223718   3.930   5.649   0.512 -0.5920  0.1753 -0.6130
  743TIP3   OH223719   6.438   5.310   3.953  0.5312 -0.5694  0.3580
  743TIP3    H123720   6.346   5.320   3.927  1.1120  0.0828 -1.6481
  743TIP3    H223721   6.450   5.216   3.963  0.1903 -0.8870 -1.7699
  744TIP3   OH223722   0.317   1.685   0.070  0.3618  0.1270  0.2717
  744TIP3    H123723   0.310   1.769   0.116  4.6440  1.9475 -1.8451
  744TIP3    H223724   0.308   1.707  -0.022 -0.4365 -2.1565 -0.2575
  745TIP3   OH223725   5.735   0.225  10.897  0.5777  0.3665  0.0952
  745TIP3    H123726   5.699   0.153  10.949  0.3730 -0.4316 -1.1119
  745TIP3    H223727   5.658   0.270  10.863  0.6346 -1.1467 -2.2274
  746TIP3   OH223728   0.668   6.477  11.641 -0.4601  0.2991 -0.3995
  746TIP3    H123729   0.729   6.413  11.676 -0.3473 -0.9540 -2.6840
  746TIP3    H223730   0.699   6.561  11.675  0.3571 -0.6684  1.3674
  747TIP3   OH223731   6.429   3.300   3.565  0.8017 -0.7045 -0.1047
  747TIP3    H123732   6.474   3.364   3.509  1.4738  0.5992  1.8192
  747TIP3    H223733   6.364   3.352   3.612  0.3463 -1.7383  0.4397
  748TIP3   OH223734   0.954   3.740  16.468  0.2016 -0.2457  0.2966
  748TIP3    H123735   1.025   3.804  16.464  0.5704 -0.5299  1.6850
  748TIP3    H223736   0.967   3.696  16.553 -0.1415 -2.0260 -0.5348
  749TIP3   OH223737   6.452   6.327  14.637  0.6073  0.3841  0.4001
  749TIP3    H123738   6.510   6.296  14.707  0.2022 -0.3101  0.4296
  749TIP3    H223739   6.364   6.303  14.666  0.5358 -1.2247 -0.9956
  750TIP3   OH223740   0.522   3.792   0.332 -0.1413 -0.8023 -0.7674
  750TIP3    H123741   0.564   3.824   0.412 -2.5510 -1.8027  1.0407
  750TIP3    H223742   0.567   3.710   0.313  0.4798 -0.5368 -0.4822
  751TIP3   OH223743   6.465   4.173  16.766 -0.0329 -0.5663 -0.5608
  751TIP3    H123744   6.418   4.130  16.838 -0.7386 -0.2411 -0.8168
  751TIP3    H223745   6.504   4.251  16.806  1.1360 -1.3496 -0.1237
  752TIP3   OH223746   3.006   5.629  10.926 -0.2445  0.1979  0.1431
  752TIP3    H123747   3.094   5.634  10.888  0.0452  1.1458  0.9130
  752TIP3    H223748   2.960   5.704  10.889  0.2303  1.5063  2.0933
  753TIP3   OH223749   5.537   6.715   1.757 -0.0817 -0.4728 -0.3600
  753TIP3    H123750   5.477   6.640   1.753  0.2453 -0.7947  0.4692
  753TIP3    H223751   5.486   6.788   1.722 -0.9076 -0.7797  0.1694
  754TIP3   OH223752   4.265   6.467  15.007 -0.1070 -0.7055  0.2100
  754TIP3    H123753   4.234   6.469  15.097 -0.6227  1.9988  0.0620
  754TIP3    H223754   4.211   6.400  14.964  0.1162 -1.9976  1.8377
  755TIP3   OH223755   4.571   1.995  12.296  0.8401  0.0162  0.0003
  755TIP3    H123756   4.638   1.991  12.364  0.8065  1.5049  0.1441
  755TIP3    H223757   4.557   2.088  12.281 -1.3239 -0.2470  0.0834
  756TIP3   OH223758   0.800   5.067  11.914  0.3511  0.0561  0.2224
  756TIP3    H123759   0.895   5.074  11.927  0.4315  0.2616 -0.4796
  756TIP3    H223760   0.770   5.157  11.911  0.3350  0.0209 -1.0214
  757TIP3   OH223761   4.839   2.881  16.901  0.0633  0.4688  0.6028
  757TIP3    H123762   4.784   2.804  16.887  0.6469  0.2202 -0.3564
  757TIP3    H223763   4.784   2.955  16.875 -0.0991  0.2863  0.4276
  758TIP3   OH223764   0.423   1.540   4.257 -0.0987 -0.0495 -0.1751
  758TIP3    H123765   0.451   1.545   4.166 -1.5548 -0.0098 -0.6496
  758TIP3    H223766   0.496   1.500   4.303  1.2490  1.2691 -1.0829
  759TIP3   OH223767   3.141   1.129  14.283  0.4479  0.4289 -0.1709
  759TIP3    H123768   3.120   1.215  14.247 -0.5213  0.7447  1.0649
  759TIP3    H223769   3.064   1.075  14.261  1.1857 -0.2440 -1.2225
  760TIP3   OH223770   6.055   3.955  13.760  0.1194  0.3890 -0.2230
  760TIP3    H123771   6.103   4.016  13.816 -0.2795  0.4611  0.0467
  760TIP3    H223772   6.017   4.010  13.692 -1.3318  0.6513  0.7598
  761TIP3   OH223773   4.325   6.131   1.363 -0.1190 -0.0863  0.4142
  761TIP3    H123774   4.240   6.151   1.403 -0.9384 -2.2544 -0.0774
  761TIP3    H223775   4.345   6.042   1.393  1.3653 -0.0968 -0.4993
  762TIP3   OH223776   6.184   5.345   3.345 -0.4049 -0.6036 -0.0816
  762TIP3    H123777   6.279   5.354   3.346 -0.4622  0.1976  1.2349
  762TIP3    H223778   6.155   5.402   3.274  0.0883 -0.7810 -0.4290
  763TIP3   OH223779   0.311   6.745  12.231 -0.1327  0.0549 -0.4016
  763TIP3    H123780   0.311   6.819  12.292 -0.5147  0.1209 -0.4770
  763TIP3    H223781   0.362   6.776  12.156  0.1241  0.0640 -0.2250
  764TIP3   OH223782   4.568   0.692   1.589 -0.1174 -0.4827  0.4996
  764TIP3    H123783   4.614   0.608   1.593 -2.8287 -2.0858  0.1416
  764TIP3    H223784   4.530   0.694   1.501 -0.1937  1.0819  0.5531
  765TIP3   OH223785   5.276   6.456  12.700 -0.1189 -0.1823  0.2470
  765TIP3    H123786   5.290   6.397  12.626  0.3010 -0.6520  0.6927
  765TIP3    H223787   5.337   6.528  12.684  1.9299 -1.5420  1.4537
  766TIP3   OH223788   5.521   6.766   1.437 -0.0112 -0.2528  0.0849
  766TIP3    H123789   5.465   6.791   1.364  2.1499  1.6437 -1.0504
  766TIP3    H223790   5.486   6.815   1.512  0.4541  1.4524 -0.7592
  767TIP3   OH223791   5.232   4.420   4.739 -0.4295 -0.2635 -0.7397
  767TIP3    H123792   5.248   4.331   4.767 -2.2278 -0.6120 -0.6564
  767TIP3    H223793   5.287   4.474   4.795 -0.6298 -1.2213  0.4229
  768TIP3   OH223794   5.836   5.630   5.280  0.7227 -0.1141  0.4200
  768TIP3    H123795   5.819   5.715   5.242  2.3552  0.3909  0.7575
  768TIP3    H223796   5.770   5.621   5.349 -1.7415 -0.6992 -1.8290
  769TIP3   OH223797   3.972   1.292  13.110  0.6480  0.2558  0.0986
  769TIP3    H123798   3.931   1.289  13.023 -3.1827 -1.4627  1.7416
  769TIP3    H223799   3.924   1.361  13.156  1.3913 -0.0565  1.3737
  770TIP3   OH223800   5.670   4.773   3.565  0.4173 -0.1301 -0.4492
  770TIP3    H123801   5.745   4.769   3.504 -1.3762 -1.7086 -2.7236
  770TIP3    H223802   5.594   4.760   3.509 -1.6363  1.7573  1.7484
  771TIP3   OH223803   3.645   0.824  13.024  0.3711  0.1492  0.3572
  771TIP3    H123804   3.608   0.885  13.087 -3.7374 -1.9668  0.2849
  771TIP3    H223805   3.652   0.741  13.071 -1.6344 -1.1752 -1.4892
  772TIP3   OH223806   2.954   3.876   4.948 -0.0223 -0.3193 -0.3670
  772TIP3    H123807   2.871   3.922   4.963 -0.0874 -0.0646 -1.4329
  772TIP3    H223808   2.940   3.827   4.867  0.4516 -1.2922  0.1131
  773TIP3   OH223809   2.084   3.199  14.357 -0.2793 -0.2986 -0.0105
  773TIP3    H123810   2.093   3.241  14.272 -0.1390  0.3556  0.3165
  773TIP3    H223811   2.138   3.252  14.416 -1.9662  0.5282  0.9092
  774TIP3   OH223812   5.486   4.476   1.707 -0.3598 -0.2643 -0.5544
  774TIP3    H123813   5.459   4.485   1.615 -0.6501 -0.0541 -0.4533
  774TIP3    H223814   5.548   4.404   1.707  1.9575  1.5912 -1.4106
  775TIP3   OH223815   5.898   4.098  16.377 -0.4285  0.6292 -0.7336
  775TIP3    H123816   5.906   4.005  16.358  0.9928 -0.3950  3.5558
  775TIP3    H223817   5.985   4.134  16.357 -0.2938  0.5110 -0.3785
  776TIP3   OH223818   5.068   0.856  11.645  0.4438  0.2647 -0.0190
  776TIP3    H123819   5.146   0.866  11.699  1.1367 -0.1314 -0.9275
  776TIP3    H223820   5.008   0.805  11.701  1.0700  0.0230  0.4526
  777TIP3   OH223821   3.189   1.146   0.026  0.0846  0.0041  0.8422
  777TIP3    H123822   3.204   1.093   0.105 -1.4746 -1.2473  0.3595
  777TIP3    H223823   3.269   1.198   0.017  2.2029 -2.9691  0.8309
  778TIP3   OH223824   2.269   2.740  13.366 -0.4730  0.4647 -0.1271
  778TIP3    H123825   2.276   2.774  13.455  0.8205 -0.7037  0.2499
  778TIP3    H223826   2.359   2.717  13.341 -0.4672  2.6253 -2.5259
  779TIP3   OH223827   4.300   0.938  13.690 -0.9643 -0.0816 -0.0362
  779TIP3    H123828   4.232   0.871  13.688 -1.5561  0.5221 -0.9490
  779TIP3    H223829   4.349   0.925  13.609 -2.0236  1.5002 -0.9882
  780TIP3   OH223830   3.252   6.352  12.917 -0.5510 -0.1920  0.1586
  780TIP3    H123831   3.185   6.355  12.849  0.0176  0.7827 -0.3888
  780TIP3    H223832   3.223   6.283  12.976 -1.6779 -0.2507 -0.4284
  781TIP3   OH223833   1.530   4.749  12.248  0.4602  0.3255 -0.2482
  781TIP3    H123834   1.522   4.687  12.176  0.5146 -2.7880  2.1744
  781TIP3    H223835   1.444   4.792  12.253 -0.2262 -0.9179 -0.9167
  782TIP3   OH223836   2.154   1.080  14.713  0.1958 -0.3901  0.1874
  782TIP3    H123837   2.153   1.116  14.802  0.2637  2.6340 -0.9367
  782TIP3    H223838   2.094   1.005  14.717 -0.5333  0.2367  2.5447
  783TIP3   OH223839   1.886   1.287  12.963  0.0055  0.9280  0.6130
  783TIP3    H123840   1.906   1.220  13.030  1.2497  0.8674  0.2085
  783TIP3    H223841   1.933   1.257  12.885 -0.3350  1.7050  0.1010
  784TIP3   OH223842   4.637   1.218  14.219  0.1272 -0.3507 -0.1056
  784TIP3    H123843   4.641   1.254  14.131  1.2111 -0.4611 -0.1162
  784TIP3    H223844   4.637   1.123  14.207 -0.6965 -0.3639 -0.0153
  785TIP3   OH223845   4.689   2.587  10.921  0.4518 -0.5742 -0.0013
  785TIP3    H123846   4.596   2.568  10.934  0.0041 -0.1339 -2.1107
  785TIP3    H223847   4.709   2.552  10.834  1.6892  1.2336 -0.5021
  786TIP3   OH223848   4.149   2.287  13.043  0.2787 -0.1133  0.0266
  786TIP3    H123849   4.177   2.204  13.083 -1.0292 -0.3880  0.4477
  786TIP3    H223850   4.130   2.344  13.118 -0.1222  0.1031 -0.2361
  787TIP3   OH223851   6.503   5.179   4.526  0.0512 -0.1757 -0.0325
  787TIP3    H123852   6.418   5.195   4.485  0.1612  2.8322  0.6967
  787TIP3    H223853   6.561   5.245   4.487  1.2805 -0.2058  1.6438
  788TIP3   OH223854   1.212   0.014  13.499 -0.1683 -0.4110 -0.0416
  788TIP3    H123855   1.196   0.064  13.419  0.3373 -1.5421 -0.8707
  788TIP3    H223856   1.189  -0.076  13.476 -0.2610 -0.7144  1.1742
  789TIP3   OH223857   5.344   2.201  15.905 -0.1828 -0.0481 -0.0784
  789TIP3    H123858   5.297   2.230  15.827 -1.5432  2.4507  1.5343
  789TIP3    H223859   5.278   2.155  15.957 -0.4217  1.7522  1.3132
  790TIP3   OH223860   4.515   6.110   5.007 -0.5187  0.4829 -0.4371
  790TIP3    H123861   4.564   6.052   4.948  1.3865  1.2202  0.3397
  790TIP3    H223862   4.507   6.061   5.088 -0.5066  0.5978 -0.3658
  791TIP3   OH223863   4.740   1.431  13.013 -0.0344  0.0509 -0.2321
  791TIP3    H123864   4.812   1.370  12.994  0.8179  1.0824 -0.4277
  791TIP3    H223865   4.668   1.401  12.958  0.2988 -0.9092 -0.1620
  792TIP3   OH223866   0.843   2.013   2.779 -0.2891  0.3190  0.1418
  792TIP3    H123867   0.889   2.084   2.735 -0.4081  0.3617  0.0864
  792TIP3    H223868   0.759   2.051   2.805 -0.9690 -0.1935 -1.1798
  793TIP3   OH223869   6.008   0.085   3.022  0.6796 -0.1396  0.1108
  793TIP3    H123870   6.045   0.073   2.934  2.3959 -1.0881  0.8935
  793TIP3    H223871   6.019   0.178   3.040 -1.0032  0.3575 -1.1873
  794TIP3   OH223872   1.093   6.346   4.414  0.1214 -0.2153 -0.2855
  794TIP3    H123873   1.149   6.308   4.482  0.7091 -0.3014 -0.8024
  794TIP3    H223874   1.055   6.271   4.369  0.3815 -0.1781 -0.5725
  795TIP3   OH223875   4.367   5.013   0.316  0.0725  0.3023  0.4026
  795TIP3    H123876   4.294   5.075   0.311 -1.2674 -1.1752  0.7988
  795TIP3    H223877   4.336   4.945   0.376  1.0903 -1.2651 -0.7934
  796TIP3   OH223878   6.634   5.541   4.669 -0.1058 -0.0388 -0.3567
  796TIP3    H123879   6.575   5.508   4.737  0.1434 -1.2536 -0.7087
  796TIP3    H223880   6.587   5.526   4.587  1.5409 -3.2079 -0.8653
  797TIP3   OH223881   2.758   5.994  15.557  0.4161  0.1959 -0.4241
  797TIP3    H123882   2.664   6.007  15.552  0.4131 -0.0633 -1.1137
  797TIP3    H223883   2.779   6.007  15.650 -0.4219 -0.6373 -0.0977
  798TIP3   OH223884   6.302   1.305   3.521  0.3955  0.0010 -0.3070
  798TIP3    H123885   6.347   1.337   3.600  0.5799 -0.5896 -0.1701
  798TIP3    H223886   6.309   1.210   3.527  0.3893 -0.0448 -1.0294
  799TIP3   OH223887   2.906   5.680   3.454 -0.0410  0.1874  0.5230
  799TIP3    H123888   2.883   5.697   3.363 -0.0100  0.7147  0.6083
  799TIP3    H223889   2.961   5.602   3.451 -0.1483  0.1255  0.1047
  800TIP3   OH223890   4.476   1.969  16.995  0.6799  0.3298  0.1998
  800TIP3    H123891   4.427   1.887  17.003  0.4841  0.5134  0.9446
  800TIP3    H223892   4.455   2.000  16.907  1.6270 -0.9676 -0.5207
  801TIP3   OH223893   3.680   4.149  15.211 -0.5044  0.1401  0.2198
  801TIP3    H123894   3.643   4.228  15.250  2.3139  0.0104  3.7388
  801TIP3    H223895   3.673   4.083  15.280  1.0358 -1.4086 -1.0189
  802TIP3   OH223896   2.998   4.089  16.985  0.2693 -0.0731  0.1619
  802TIP3    H123897   3.086   4.089  17.023  0.9603 -0.0544 -1.3588
  802TIP3    H223898   2.986   4.177  16.951  0.2197 -0.4477 -0.8305
  803TIP3   OH223899   6.247   5.560  16.163 -0.4048 -0.1014 -0.1521
  803TIP3    H123900   6.292   5.523  16.088 -0.2647 -0.5390  0.1432
  803TIP3    H223901   6.157   5.530  16.155  0.2262 -2.8371  1.5014
  804TIP3   OH223902   4.666   5.505  14.456  0.6162  0.2430  0.3268
  804TIP3    H123903   4.743   5.537  14.408  1.2393 -2.0331 -0.2729
  804TIP3    H223904   4.645   5.577  14.516  1.4906  2.0472 -1.4033
  805TIP3   OH223905   4.756   0.372  15.313  0.0235  0.8808 -0.0647
  805TIP3    H123906   4.776   0.389  15.221  2.9701 -1.4429  0.0029
  805TIP3    H223907   4.771   0.456  15.357 -0.8672  1.8670 -1.5570
  806TIP3   OH223908   4.849   1.417  14.071  0.4785 -0.3234 -0.5936
  806TIP3    H123909   4.771   1.378  14.030 -0.7332 -0.7586  1.9378
  806TIP3    H223910   4.825   1.509  14.085 -0.2471 -0.7779  1.5117
  807TIP3   OH223911   0.171   5.397   1.572  0.1887 -0.3242  0.0425
  807TIP3    H123912   0.243   5.395   1.508 -0.3867 -0.8947 -0.5928
  807TIP3    H223913   0.188   5.322   1.630  0.7940  0.2800  0.6784
  808TIP3   OH223914   2.887   3.656   2.368  0.0772 -0.6883  0.0310
  808TIP3    H123915   2.862   3.749   2.364  0.9987 -0.4711 -0.9896
  808TIP3    H223916   2.803   3.610   2.376 -0.3799  0.2349  0.8219
  809TIP3   OH223917   3.383   1.353  13.529 -0.4910  0.1153  0.3604
  809TIP3    H123918   3.462   1.371  13.581 -0.8166  2.2280  0.2368
  809TIP3    H223919   3.312   1.355  13.592 -0.5511 -0.7156  0.3182
  810TIP3   OH223920   4.033   1.754  15.992  0.1726 -0.4360  0.2212
  810TIP3    H123921   3.989   1.684  16.040 -0.6386 -0.3104 -0.3017
  810TIP3    H223922   3.962   1.799  15.946  1.0396 -1.7372 -2.6375
  811TIP3   OH223923   5.773   1.003   2.037  0.5579 -0.3193  0.5528
  811TIP3    H123924   5.863   1.004   2.004  0.6216 -1.0516  0.6701
  811TIP3    H223925   5.750   1.095   2.049  1.3383 -0.1296  0.6565
  812TIP3   OH223926   2.423   2.399   2.071  0.2657 -0.4534  0.4719
  812TIP3    H123927   2.359   2.328   2.060  0.2793 -0.5926  1.2571
  812TIP3    H223928   2.498   2.356   2.112 -1.0916  0.6346  4.6083
  813TIP3   OH223929   6.202   1.758   2.869 -0.1006 -0.9610  0.6308
  813TIP3    H123930   6.188   1.665   2.850 -0.4117 -0.9090  0.6043
  813TIP3    H223931   6.188   1.802   2.786  0.1322 -0.8996  0.6250
  814TIP3   OH223932   4.296   4.135   5.116  0.0282 -0.0755  0.2855
  814TIP3    H123933   4.252   4.220   5.124  0.1798  0.1686 -1.1362
  814TIP3    H223934   4.280   4.091   5.200 -1.3831  0.7291  0.4728
  815TIP3   OH223935   3.661   1.591   3.634  0.8070  0.3494 -0.4322
  815TIP3    H123936   3.596   1.534   3.594  0.7276  0.0911  0.0644
  815TIP3    H223937   3.615   1.673   3.650  0.2790 -0.1854  0.9284
  816TIP3   OH223938   1.241   4.203   4.744 -0.1981 -0.8888 -0.2998
  816TIP3    H123939   1.326   4.210   4.700 -0.0871  1.8481  0.1677
  816TIP3    H223940   1.183   4.260   4.694 -1.5168 -1.8910  0.0150
  817TIP3   OH223941   0.561   1.180   5.080 -1.1190  0.4624  0.6864
  817TIP3    H123942   0.554   1.235   5.002  0.5958 -0.0568  0.1311
  817TIP3    H223943   0.473   1.145   5.092 -1.8585  1.9923  0.0887
  818TIP3   OH223944   2.242   1.909  16.454 -0.6332  0.2771 -0.2126
  818TIP3    H123945   2.180   1.976  16.426  0.4371  0.1336 -3.3093
  818TIP3    H223946   2.226   1.835  16.395  0.1860 -1.0929  1.2047
  819TIP3   OH223947   0.527   6.796   5.035  0.2914 -0.1840 -0.5180
  819TIP3    H123948   0.613   6.783   4.996 -0.4242 -2.8842 -1.3942
  819TIP3    H223949   0.541   6.783   5.129  0.8592 -0.5447 -0.6451
  820TIP3   OH223950   4.849   5.924  15.212 -0.1951 -0.5935 -0.4766
  820TIP3    H123951   4.823   5.902  15.123 -0.6547 -0.6004 -0.3408
  820TIP3    H223952   4.917   5.991  15.202 -0.2484 -0.5934 -0.8277
  821TIP3   OH223953   3.222   3.184   2.551  0.5015 -0.3035 -0.7954
  821TIP3    H123954   3.219   3.097   2.590 -1.2332 -0.2944 -0.8152
  821TIP3    H223955   3.209   3.169   2.458 -0.6059 -0.0005 -0.7060
  822TIP3   OH223956   2.811   6.132  12.630  0.0091 -0.2786 -0.3312
  822TIP3    H123957   2.829   6.098  12.542  0.3585 -0.1443 -0.3172
  822TIP3    H223958   2.720   6.163  12.626  0.7000  1.8945 -1.3706
  823TIP3   OH223959   5.861   1.692  14.333 -0.3104 -0.2510 -0.6199
  823TIP3    H123960   5.769   1.706  14.315 -1.5739 -4.0419  1.5918
  823TIP3    H223961   5.893   1.641  14.258 -0.8029 -1.2270 -0.1835
  824TIP3   OH223962   2.943   3.373  15.796 -0.6884 -0.0207  0.0242
  824TIP3    H123963   2.874   3.418  15.845  0.2666  2.5357 -0.8295
  824TIP3    H223964   2.917   3.381  15.704 -0.4627 -1.2789 -0.1769
  825TIP3   OH223965   5.594   5.288   6.064 -0.0564 -0.4779  0.3137
  825TIP3    H123966   5.621   5.347   6.134  2.6849  0.2617 -1.1987
  825TIP3    H223967   5.673   5.237   6.044 -0.6493 -0.5051 -2.3321
  826TIP3   OH223968   6.115   4.857   2.870  0.0199  0.3480  0.2847
  826TIP3    H123969   6.145   4.939   2.831  0.1895  0.4255  0.5787
  826TIP3    H223970   6.188   4.797   2.861 -0.3940 -0.0312 -0.6886
  827TIP3   OH223971   5.664   3.245   2.276 -0.2338 -0.0073 -0.5156
  827TIP3    H123972   5.603   3.175   2.253 -1.3747  0.8952 -0.3587
  827TIP3    H223973   5.720   3.207   2.343  0.1080 -1.2038 -1.4530
  828TIP3   OH223974   1.129   5.827  16.688  0.2266  0.3738  0.0498
  828TIP3    H123975   1.199   5.825  16.753  0.9981 -2.0025 -0.7273
  828TIP3    H223976   1.140   5.911  16.643  2.7544  0.0158 -0.1734
  829TIP3   OH223977   4.090   0.592  16.178 -1.0679  0.0071 -0.9163
  829TIP3    H123978   4.052   0.599  16.090 -2.2773  1.0082 -0.3534
  829TIP3    H223979   4.030   0.534  16.225 -0.8312  0.0619 -0.5462
  830TIP3   OH223980   0.381   4.773  16.916  0.0406 -0.6961 -0.6525
  830TIP3    H123981   0.363   4.696  16.971  0.5858 -0.3734 -0.0170
  830TIP3    H223982   0.301   4.825  16.922  0.0265 -0.7536 -0.3133
  831TIP3   OH223983   0.474   6.614   0.652  0.0674 -0.1936  0.1274
  831TIP3    H123984   0.564   6.582   0.661 -0.6939 -2.6419 -0.0538
  831TIP3    H223985   0.446   6.632   0.742  0.6850  0.4439  0.1955
  832TIP3   OH223986   4.801   5.113  15.768 -0.2383 -0.7747 -0.5474
  832TIP3    H123987   4.732   5.167  15.728  0.0477  2.0840  2.3975
  832TIP3    H223988   4.882   5.149  15.732  0.0637  2.2667  2.6379
  833TIP3   OH223989   1.695   3.279   3.742  0.1353 -0.4262 -0.5266
  833TIP3    H123990   1.602   3.256   3.742  0.1120 -0.3396 -0.7342
  833TIP3    H223991   1.730   3.241   3.822 -0.3932  0.8167  0.3269
  834TIP3   OH223992   5.468   2.770  15.583 -0.1625  0.4360 -0.2413
  834TIP3    H123993   5.540   2.788  15.521 -0.1696  0.5904 -0.2030
  834TIP3    H223994   5.508   2.714  15.649  0.2752  1.6041  0.5099
  835TIP3   OH223995   0.898   5.442  15.222  0.6139  0.4969  0.2648
  835TIP3    H123996   0.929   5.351  15.227 -1.5943 -0.5785 -2.5459
  835TIP3    H223997   0.939   5.477  15.143 -0.5931  0.9934 -0.1760
  836TIP3   OH223998   1.577   3.520  14.271  0.2331  0.3075  0.3660
  836TIP3    H123999   1.644   3.589  14.273  0.1919  0.3615 -0.0480
  836TIP3    H224000   1.494   3.568  14.278  0.2217  0.2684  0.4995
  837TIP3   OH224001   1.501   6.682  12.548 -0.0139 -0.8743  0.5152
  837TIP3    H124002   1.439   6.695  12.476  1.4951  0.9533 -0.5372
  837TIP3    H224003   1.462   6.728  12.622  0.0441  0.2542 -0.1369
  838TIP3   OH224004   1.489   1.752  14.546 -0.5487 -0.2396 -0.0279
  838TIP3    H124005   1.438   1.773  14.468 -0.2468 -1.5370 -0.6039
  838TIP3    H224006   1.476   1.658  14.558  0.5453 -0.3181  0.6535
  839TIP3   OH224007   6.295   4.819   3.123  0.0952  0.5897 -0.0225
  839TIP3    H124008   6.264   4.797   3.036 -0.5338  1.8184 -0.1425
  839TIP3    H224009   6.255   4.905   3.141  0.6260  0.5892  1.2563
  840TIP3   OH224010   2.738   1.115   3.795  0.0947  0.3664  0.4768
  840TIP3    H124011   2.746   1.081   3.884 -0.8966  1.2838  0.9414
  840TIP3    H224012   2.828   1.135   3.769  0.3012  1.3661  1.8006
  841TIP3   OH224013   5.786   3.419   1.430 -0.3535  0.1039  0.4097
  841TIP3    H124014   5.872   3.441   1.394 -0.2621 -2.4214 -1.1463
  841TIP3    H224015   5.805   3.382   1.517  0.2548 -1.0666 -0.1928
  842TIP3   OH224016   1.312   4.746  11.571  0.0369  0.4141 -0.5861
  842TIP3    H124017   1.252   4.738  11.497 -1.9063 -0.7182  0.9928
  842TIP3    H224018   1.301   4.836  11.602  0.2781  0.6573 -1.2045
  843TIP3   OH224019   0.100   1.316  13.819  0.3840 -0.2452 -0.4002
  843TIP3    H124020   0.063   1.323  13.907  0.7053  0.6249 -0.3234
  843TIP3    H224021   0.112   1.222  13.806 -0.0534 -0.4148  0.3205
  844TIP3   OH224022   4.029   0.246  16.650 -0.4300 -0.8381 -1.1850
  844TIP3    H124023   4.055   0.160  16.682  1.4490 -0.1386 -0.7117
  844TIP3    H224024   4.106   0.279  16.604 -0.9919  0.7322 -1.0604
  845TIP3   OH224025   3.665   5.812  16.935 -0.2210  0.1382  0.7188
  845TIP3    H124026   3.673   5.907  16.943  0.1292  0.1611  0.1161
  845TIP3    H224027   3.655   5.781  17.025  1.6719  0.5688  1.1141
  846TIP3   OH224028   6.563   1.606   2.576 -0.2284  0.0746  0.1528
  846TIP3    H124029   6.611   1.545   2.520 -0.6233 -0.1289  0.0302
  846TIP3    H224030   6.541   1.555   2.654  0.4513  0.4026  0.5650
  847TIP3   OH224031   2.669   6.459   1.284 -0.3504  0.0083 -0.1971
  847TIP3    H124032   2.588   6.470   1.234  0.6871  0.6706 -1.8214
  847TIP3    H224033   2.647   6.486   1.373 -1.1968  3.1050 -1.2269
  848TIP3   OH224034   6.467   2.428   6.582 -0.2934 -0.5038  0.4013
  848TIP3    H124035   6.415   2.405   6.660  0.4850  2.0246  1.7809
  848TIP3    H224036   6.553   2.391   6.599 -0.4781 -1.0843  0.0974
  849TIP3   OH224037   1.185   0.086   4.077 -0.2850 -0.2031  0.1296
  849TIP3    H124038   1.258   0.146   4.063 -0.9906  0.4233 -1.0835
  849TIP3    H224039   1.224  -0.001   4.071  0.9013  0.0618  2.7230
  850TIP3   OH224040   1.572   0.994   4.610  1.0833 -0.3197  0.0131
  850TIP3    H124041   1.583   0.932   4.682  1.0829  0.0370  0.3216
  850TIP3    H224042   1.649   1.051   4.616 -0.8376  2.2726  2.2404
  851TIP3   OH224043   3.313   4.410  14.000 -0.6176 -0.0035 -0.2418
  851TIP3    H124044   3.358   4.387  14.082 -1.3580 -2.3616 -0.4157
  851TIP3    H224045   3.376   4.387  13.932  0.1730  2.3736 -0.4056
  852TIP3   OH224046   3.171   2.561   5.842  0.1637  0.3183  0.0410
  852TIP3    H124047   3.260   2.525   5.842  0.1071 -0.0664 -3.0342
  852TIP3    H224048   3.117   2.492   5.879  1.0012  0.1837  1.0574
  853TIP3   OH224049   5.862   1.374  15.948 -0.2623 -0.3999  0.3937
  853TIP3    H124050   5.860   1.377  16.043 -1.1523  0.9668  0.3649
  853TIP3    H224051   5.879   1.282  15.927 -1.0408 -0.9189  1.8585
  854TIP3   OH224052   0.322   0.498   5.088 -0.0205  0.2728  0.0024
  854TIP3    H124053   0.302   0.467   5.176 -1.7372  0.5217 -0.2635
  854TIP3    H224054   0.417   0.511   5.088  0.4397 -2.5392  0.8721
  855TIP3   OH224055   2.363   2.305   5.225 -0.6541 -0.4185 -0.8370
  855TIP3    H124056   2.430   2.300   5.157 -0.9979 -0.9796 -1.1413
  855TIP3    H224057   2.405   2.268   5.303 -0.1467  0.5358 -0.6385
  856TIP3   OH224058   0.153   0.028   4.376  0.4254  0.1606 -0.2895
  856TIP3    H124059   0.156   0.063   4.465  2.2723 -1.3947  0.3329
  856TIP3    H224060   0.210   0.086   4.326  0.6020  0.1561 -0.0975
  857TIP3   OH224061   5.451   5.673  15.782  0.3421  0.1303  0.1696
  857TIP3    H124062   5.516   5.714  15.725 -3.5341  3.1513 -2.5982
  857TIP3    H224063   5.434   5.588  15.742  2.5788 -0.8426  1.1078
  858TIP3   OH224064   4.806   5.578  13.534  0.0807  0.5360 -0.0571
  858TIP3    H124065   4.738   5.517  13.506 -1.2903  2.1017 -0.2456
  858TIP3    H224066   4.877   5.565  13.471 -0.8661  0.3001 -1.0973
  859TIP3   OH224067   3.799   5.270  12.520 -0.5434 -0.2217  0.0211
  859TIP3    H124068   3.730   5.322  12.561  0.7032  1.5147  0.0226
  859TIP3    H224069   3.788   5.182  12.557 -2.5328  0.0680  0.2467
  860TIP3   OH224070   4.898   3.321  12.093 -0.4098 -0.2434  0.3838
  860TIP3    H124071   4.819   3.357  12.134  0.9348  1.6233  1.5069
  860TIP3    H224072   4.946   3.282  12.165  0.1385 -0.5479 -0.1398
  861TIP3   OH224073   4.332   3.618  12.315  0.0844  0.5423 -0.1742
  861TIP3    H124074   4.260   3.582  12.368  2.2937 -0.9309  2.0567
  861TIP3    H224075   4.333   3.563  12.237  0.9109 -1.8914  1.4104
  862TIP3   OH224076   1.284   4.701  17.227 -0.0976  0.2304 -0.4114
  862TIP3    H124077   1.273   4.792  17.201  0.5995  0.4386 -0.0186
  862TIP3    H224078   1.354   4.703  17.293  0.6843 -0.7145 -1.1754
  863TIP3   OH224079   4.311   2.449   0.946 -0.1024  0.6868  0.7270
  863TIP3    H124080   4.382   2.432   1.009 -0.9813 -0.7352  1.3770
  863TIP3    H224081   4.239   2.481   1.000 -0.5711  0.3167  0.3276
  864TIP3   OH224082   5.861   0.138   2.441  0.5384 -0.2758  0.1645
  864TIP3    H124083   5.842   0.228   2.414  2.8299  1.0293  2.4693
  864TIP3    H224084   5.781   0.108   2.484 -0.6695  0.1373 -1.6831
  865TIP3   OH224085   4.272   3.158   5.328  0.1132 -0.4463  0.1218
  865TIP3    H124086   4.181   3.130   5.330 -0.3838  1.0121  2.7658
  865TIP3    H224087   4.322   3.077   5.335 -1.0812 -1.1411  1.1242
  866TIP3   OH224088   2.103   2.524   3.863  0.3666  0.1856 -0.2492
  866TIP3    H124089   2.026   2.551   3.912  1.2143  0.7269  0.8288
  866TIP3    H224090   2.084   2.547   3.773 -0.2749  1.3606  0.1738
  867TIP3   OH224091   5.845   4.304   2.604  0.2951  0.0161  0.2005
  867TIP3    H124092   5.935   4.338   2.610 -0.2273  1.5294 -0.2523
  867TIP3    H224093   5.789   4.380   2.618 -0.9631 -1.1593  2.0361
  868TIP3   OH224094   5.932   6.157  13.026 -0.2093 -0.7160 -0.0252
  868TIP3    H124095   5.989   6.085  13.052  3.3861  2.0036  0.4457
  868TIP3    H224096   5.969   6.189  12.943 -1.2470  0.9643  0.0954
  869TIP3   OH224097   1.549   2.932   3.917  0.4483 -0.3472  0.3077
  869TIP3    H124098   1.493   2.960   3.990  0.2078  1.6536 -0.6081
  869TIP3    H224099   1.633   2.911   3.959  0.3745  0.9365  1.1531
  870TIP3   OH224100   1.388   6.406   3.765 -0.1441 -0.1838  0.0056
  870TIP3    H124101   1.303   6.437   3.797 -0.8451 -2.2100  0.2295
  870TIP3    H224102   1.434   6.376   3.843 -0.4115 -1.7637 -0.4078
  871TIP3   OH224103   2.932   3.553  16.315  0.4329 -0.7080 -0.4644
  871TIP3    H124104   3.019   3.524  16.288 -0.3782 -1.2741 -2.6840
  871TIP3    H224105   2.934   3.551  16.411  3.4197  1.0502 -0.3703
  872TIP3   OH224106   1.873   0.376   1.399  0.1509 -0.5300  0.1602
  872TIP3    H124107   1.821   0.309   1.444 -0.6091  1.0217  1.7052
  872TIP3    H224108   1.881   0.344   1.309  1.2786 -3.5003  1.2159
  873TIP3   OH224109   5.633   6.706  13.888 -0.5776 -0.8602 -0.3018
  873TIP3    H124110   5.644   6.613  13.909 -1.9901 -0.9209  0.2747
  873TIP3    H224111   5.636   6.709  13.792  5.4182 -0.6517 -0.4686
  874TIP3   OH224112   4.995   0.311   2.507  0.0032 -0.5725 -0.3462
  874TIP3    H124113   4.953   0.368   2.572  0.8863 -1.3968  0.9994
  874TIP3    H224114   5.009   0.367   2.431 -1.8133  0.2089 -0.1626
  875TIP3   OH224115   2.375   3.823   2.801  0.1161  0.1242  0.4786
  875TIP3    H124116   2.312   3.780   2.858 -0.8190  0.9969  0.1362
  875TIP3    H224117   2.435   3.869   2.860  1.4585 -1.9935  0.8757
  876TIP3   OH224118   1.680   2.307  16.176  0.0287  0.2927 -0.2486
  876TIP3    H124119   1.648   2.250  16.106 -0.2632 -0.8527  0.7644
  876TIP3    H224120   1.707   2.387  16.132 -0.7456 -0.1461 -1.5807
  877TIP3   OH224121   3.302   0.372  17.144  0.2686  0.1615 -0.1372
  877TIP3    H124122   3.396   0.378  17.162  0.1823  0.9127  0.1030
  877TIP3    H224123   3.291   0.415  17.059  0.2461 -0.6340 -0.5448
  878TIP3   OH224124   3.075   4.579  14.006  0.6781  0.3349 -0.3419
  878TIP3    H124125   3.158   4.534  13.987  2.1281  2.2292  1.0640
  878TIP3    H224126   3.076   4.657  13.950  0.0771  0.6335  0.0535
  879TIP3   OH224127   5.449   1.420   3.511 -0.2667  0.1671  0.3383
  879TIP3    H124128   5.445   1.494   3.572  1.1355  1.1097 -0.6368
  879TIP3    H224129   5.444   1.461   3.424 -2.0858 -1.1221 -0.2301
  880TIP3   OH224130   0.113   0.394   4.016 -0.6981 -0.3970  0.1075
  880TIP3    H124131   0.023   0.364   4.031 -0.8255 -1.0379 -1.7441
  880TIP3    H224132   0.125   0.390   3.921  0.8801  0.9118  0.2006
  881TIP3   OH224133   4.520   4.434   6.213 -0.2364 -0.6894  0.0190
  881TIP3    H124134   4.603   4.393   6.237  0.0946 -0.9677 -1.5064
  881TIP3    H224135   4.517   4.428   6.117 -1.5430  0.2346 -0.0219
  882TIP3   OH224136   3.227   3.701   0.330 -0.4836  0.4621 -0.0028
  882TIP3    H124137   3.169   3.760   0.378 -0.5040  0.5777 -0.1666
  882TIP3    H224138   3.169   3.634   0.294 -0.4318  0.2179  0.3663
  883TIP3   OH224139   5.301   3.178   0.923 -0.1807  0.1325 -0.5090
  883TIP3    H124140   5.358   3.104   0.944 -0.8909 -0.0101  1.0509
  883TIP3    H224141   5.350   3.255   0.951 -0.3846  0.0721  0.0274
  884TIP3   OH224142   3.815   3.929   2.399  0.3037  0.3118 -0.4266
  884TIP3    H124143   3.902   3.929   2.360 -0.3894  3.2557 -2.3654
  884TIP3    H224144   3.808   4.015   2.441 -0.1618 -1.5370  3.7516
  885TIP3   OH224145   1.419   5.297   4.198  0.3695 -0.2959 -0.0183
  885TIP3    H124146   1.422   5.305   4.103 -1.3311 -2.3276 -0.3292
  885TIP3    H224147   1.389   5.382   4.229 -1.2105 -0.2496 -1.5263
  886TIP3   OH224148   1.204   0.214   0.922 -0.0151  0.1499  0.6260
  886TIP3    H124149   1.191   0.267   1.001  0.8170  1.8571 -0.3114
  886TIP3    H224150   1.188   0.275   0.850 -0.3811 -1.2681 -0.5395
  887TIP3   OH224151   2.034   1.228   4.441  0.2302 -0.0681  0.2917
  887TIP3    H124152   2.052   1.172   4.366 -0.9100  0.2548 -0.2448
  887TIP3    H224153   2.121   1.252   4.475  0.7401 -0.8825 -0.4133
  888TIP3   OH224154   4.899   0.176   4.028 -0.3047 -0.2637 -0.0817
  888TIP3    H124155   4.907   0.260   4.071  0.4853  0.6367 -1.8962
  888TIP3    H224156   4.931   0.112   4.092 -1.6737  0.6688  1.6175
  889TIP3   OH224157   6.400   3.435  16.627 -0.0571 -0.4917  0.5085
  889TIP3    H124158   6.400   3.529  16.647 -1.6013 -0.0942 -1.0798
  889TIP3    H224159   6.490   3.407  16.641  0.2358  1.0158  1.9059
  890TIP3   OH224160   0.581   1.876   1.135  0.1622 -0.0265 -0.1579
  890TIP3    H124161   0.525   1.864   1.212 -0.2334 -0.8931 -0.5775
  890TIP3    H224162   0.671   1.874   1.170 -0.0101  3.0360  0.7768
  891TIP3   OH224163   3.007   0.866   0.418 -0.2471 -0.0399 -0.4017
  891TIP3    H124164   2.962   0.894   0.339  0.7340 -0.2776 -1.0700
  891TIP3    H224165   3.001   0.771   0.418  0.5987 -0.1086 -0.7379
  892TIP3   OH224166   3.188   2.611  13.487  0.2926  0.1378 -0.6158
  892TIP3    H124167   3.227   2.529  13.518 -0.7656 -0.1645 -0.0305
  892TIP3    H224168   3.243   2.679  13.525  0.5915 -0.2886 -0.2746
  893TIP3   OH224169   0.473   0.082  13.508 -0.3083  0.1002 -0.4693
  893TIP3    H124170   0.522   0.085  13.425 -0.5659 -1.3251 -0.7097
  893TIP3    H224171   0.478   0.171  13.543 -0.1841  0.7225 -2.0085
  894TIP3   OH224172   2.923   0.018  11.382 -0.3977 -0.3618  0.1641
  894TIP3    H124173   2.948  -0.071  11.357  2.1017  0.2449  0.2470
  894TIP3    H224174   3.005   0.066  11.386 -1.5518  1.6737  1.3582
  895TIP3   OH224175   5.991   4.022  12.906 -0.3036  0.2127 -0.4402
  895TIP3    H124176   5.920   3.962  12.926  0.0087 -0.5501 -1.5438
  895TIP3    H224177   5.948   4.104  12.881 -0.7205  0.8819  2.2006
  896TIP3   OH224178   5.463   5.595  15.366 -0.1641  0.5103 -0.4356
  896TIP3    H124179   5.453   5.613  15.272  2.5095 -2.4821 -1.4494
  896TIP3    H224180   5.374   5.574  15.395 -1.1231  1.8982 -2.1543
  897TIP3   OH224181   0.167   3.397  16.031  0.6382 -0.6089 -0.0899
  897TIP3    H124182   0.169   3.383  15.937 -1.9546  0.4149 -0.3702
  897TIP3    H224183   0.203   3.485  16.044  1.6344 -1.0141 -0.0221
  898TIP3   OH224184   3.907   5.906  12.984  0.2833  0.3205 -0.5331
  898TIP3    H124185   3.818   5.908  13.019  0.1416 -0.3915 -0.8261
  898TIP3    H224186   3.907   5.970  12.914  0.0048  0.3356 -0.5199
  899TIP3   OH224187   3.225   3.237   4.026  0.0647  0.2429  0.0525
  899TIP3    H124188   3.164   3.256   4.097 -0.6294  0.4069 -0.5664
  899TIP3    H224189   3.220   3.313   3.969 -0.5291 -0.5099 -0.9389
  900TIP3   OH224190   1.349   6.716   0.107 -0.0662  0.2014 -0.0862
  900TIP3    H124191   1.424   6.777   0.110  0.3927 -0.3441  3.4033
  900TIP3    H224192   1.276   6.770   0.076  0.5956  2.2673  1.7116
  901TIP3   OH224193   5.791   2.154   2.727 -0.2599  0.6764  0.2949
  901TIP3    H124194   5.774   2.063   2.701 -0.2914  0.3065  1.5600
  901TIP3    H224195   5.870   2.149   2.781  0.8158  1.6637 -1.1172
  902TIP3   OH224196   0.493   1.195  15.138 -0.2026 -0.1869  0.3048
  902TIP3    H124197   0.442   1.273  15.116 -1.5620 -1.2017 -0.3353
  902TIP3    H224198   0.549   1.180  15.062 -0.3827 -0.1612  0.1644
  903TIP3   OH224199   3.869   0.326   4.934 -0.1947 -0.2469  0.4087
  903TIP3    H124200   3.936   0.362   4.876 -2.3909 -1.0677 -2.9421
  903TIP3    H224201   3.822   0.403   4.967  1.4049  0.2526  1.6424
  904TIP3   OH224202   4.555   0.886   2.211  0.1528  0.0540  0.0286
  904TIP3    H124203   4.537   0.803   2.166 -1.0144 -0.0197  0.5875
  904TIP3    H224204   4.583   0.861   2.298  1.5306  0.2230 -0.3415
  905TIP3   OH224205   6.787   3.226  14.798 -0.5603 -0.4654  0.2778
  905TIP3    H124206   6.766   3.253  14.709 -0.6543 -0.5706  0.2669
  905TIP3    H224207   6.820   3.137  14.789  0.3003 -0.1547  0.2492
  906TIP3   OH224208   4.068   1.115   1.973  0.7442 -1.1173  0.1247
  906TIP3    H124209   4.117   1.111   2.056 -1.0808 -0.2202  1.3141
  906TIP3    H224210   4.005   1.043   1.979  0.2320 -0.7056 -0.2358
  907TIP3   OH224211   3.271   0.200   4.246  0.4324 -0.4226  0.5894
  907TIP3    H124212   3.275   0.292   4.270  0.8141 -0.6050  1.2672
  907TIP3    H224213   3.354   0.163   4.276 -0.2791 -1.2745  1.6127
  908TIP3   OH224214   5.130   3.690  14.858 -0.2041  0.1482 -0.1320
  908TIP3    H124215   5.090   3.771  14.891  1.0352  0.7180  0.0168
  908TIP3    H224216   5.218   3.689  14.896 -0.7657 -2.1710  1.3035
  909TIP3   OH224217   5.525   0.016   3.696  0.3810 -0.1719 -0.0013
  909TIP3    H124218   5.547   0.099   3.738  1.3582 -0.1046 -0.6244
  909TIP3    H224219   5.601  -0.005   3.642  0.0678 -1.3722 -0.0141
  910TIP3   OH224220   1.324   6.725  15.582 -0.7281  0.1435  0.4011
  910TIP3    H124221   1.299   6.659  15.518 -0.8555  0.2378  0.3531
  910TIP3    H224222   1.407   6.694  15.618  0.4002  1.0524 -1.2342
  911TIP3   OH224223   0.181   4.036  14.885 -0.6579 -0.0341 -0.2772
  911TIP3    H124224   0.109   4.031  14.947  0.0868  2.5896  0.9330
  911TIP3    H224225   0.255   4.067  14.937  0.5830  0.1388 -2.0643
  912TIP3   OH224226   1.217   2.844   1.481  0.2022  0.3497 -0.3134
  912TIP3    H124227   1.152   2.874   1.544 -0.2404 -0.4304 -0.3741
  912TIP3    H224228   1.285   2.911   1.481 -0.5165  1.0853 -0.1081
  913TIP3   OH224229   0.108   3.417  13.147  0.3615  0.7317 -0.2689
  913TIP3    H124230   0.045   3.475  13.104  1.6938  1.4041 -1.4062
  913TIP3    H224231   0.084   3.329  13.117  0.4987  1.0750 -1.4290
  914TIP3   OH224232   4.615   5.234  15.307 -0.1885  0.7875  0.0533
  914TIP3    H124233   4.649   5.249  15.219 -1.1551 -1.0125 -0.6710
  914TIP3    H224234   4.536   5.288  15.312 -0.8718 -0.1196 -0.6893
  915TIP3   OH224235   4.765   6.130   4.472 -0.0266  0.6029  0.0781
  915TIP3    H124236   4.771   6.036   4.452  1.3688  0.9786 -1.5492
  915TIP3    H224237   4.833   6.144   4.539  0.2546  0.5624 -0.1955
  916TIP3   OH224238   5.577   1.339  16.977  0.2884 -0.1990 -0.3048
  916TIP3    H124239   5.597   1.337  17.070  1.0913  0.1942 -0.4640
  916TIP3    H224240   5.528   1.258  16.961  0.4648 -0.4435  0.3842
  917TIP3   OH224241   0.950   5.650  13.048  0.0483  0.0799 -0.9398
  917TIP3    H124242   1.025   5.673  13.103  1.1012  1.2550 -2.7598
  917TIP3    H224243   0.989   5.614  12.968 -1.4021 -0.8646 -1.2563
  918TIP3   OH224244   0.170   6.331   0.705 -0.0639  0.2053  0.0598
  918TIP3    H124245   0.146   6.255   0.757  0.2866  1.3309  1.9566
  918TIP3    H224246   0.248   6.303   0.657  1.7347  0.1096  2.8058
  919TIP3   OH224247   1.902   2.931   4.292  0.3858 -0.4409 -0.2740
  919TIP3    H124248   1.996   2.917   4.285  0.1411 -3.0688  0.8720
  919TIP3    H224249   1.868   2.908   4.206  0.5883 -1.7901 -0.0143
  920TIP3   OH224250   2.401   6.120  13.186  0.3870 -0.3831  0.0936
  920TIP3    H124251   2.434   6.107  13.274 -0.2072  0.2932  0.4262
  920TIP3    H224252   2.472   6.089  13.129  1.8367  1.4593  0.7606
  921TIP3   OH224253   2.324   1.825  13.632 -0.0747 -0.0828 -0.2690
  921TIP3    H124254   2.369   1.844  13.550 -0.9981 -1.7257 -1.2226
  921TIP3    H224255   2.369   1.877  13.698  2.3316 -0.6318 -1.3835
  922TIP3   OH224256   3.124   4.055  11.699  0.7552 -0.2937  0.2050
  922TIP3    H124257   3.037   4.022  11.721  1.4208 -0.7064  2.5161
  922TIP3    H224258   3.149   4.006  11.621  0.2651 -2.7386  1.4859
  923TIP3   OH224259   2.371   4.534  12.596 -0.4790  0.1885  0.3716
  923TIP3    H124260   2.363   4.457  12.540 -3.4856  0.7161 -0.1518
  923TIP3    H224261   2.384   4.499  12.684 -0.3955 -0.8529 -0.0432
  924TIP3   OH224262   4.249   3.571  11.225 -0.2884  0.0812 -0.9333
  924TIP3    H124263   4.181   3.538  11.167  0.2750 -1.5196 -0.7131
  924TIP3    H224264   4.331   3.551  11.181  0.1140 -0.2849 -0.0322
  925TIP3   OH224265   5.493   1.337   2.751 -0.5376 -1.2678 -0.2564
  925TIP3    H124266   5.493   1.411   2.691  4.6564 -0.9218 -0.2641
  925TIP3    H224267   5.479   1.261   2.695 -0.1957 -0.6628 -1.1747
  926TIP3   OH224268   5.073   3.965  11.924 -0.0340  0.1988  0.8335
  926TIP3    H124269   5.151   4.019  11.909  0.0097 -0.3054 -0.9785
  926TIP3    H224270   5.096   3.912  12.000  1.7405 -0.5030 -0.1247
  927TIP3   OH224271   5.262   1.812   6.087  0.1610  0.6693  0.4984
  927TIP3    H124272   5.253   1.842   5.997  1.1071  0.3489  0.2882
  927TIP3    H224273   5.213   1.730   6.090  0.6949  0.3324  0.0917
  928TIP3   OH224274   0.324   4.662   3.868 -0.0427 -0.1238  0.0404
  928TIP3    H124275   0.359   4.597   3.929  1.2897 -0.6133 -1.1911
  928TIP3    H224276   0.386   4.736   3.875 -0.7408  0.4397  0.3830
  929TIP3   OH224277   0.107   6.352  12.320  0.3566 -0.8118  0.3412
  929TIP3    H124278   0.191   6.386  12.289  0.8696 -0.6650  1.8542
  929TIP3    H224279   0.094   6.394  12.405 -1.0582 -1.1577  0.3137
  930TIP3   OH224280   4.029   3.037  12.659 -0.1734 -0.3257 -0.4862
  930TIP3    H124281   4.035   3.132  12.670 -0.9592 -0.1976 -1.0731
  930TIP3    H224282   4.095   3.016  12.593 -0.4671 -0.0900 -0.8556
  931TIP3   OH224283   4.728   0.528   3.647 -0.1415 -0.5965 -0.1612
  931TIP3    H124284   4.772   0.610   3.672  1.8006 -1.3411 -0.9373
  931TIP3    H224285   4.703   0.543   3.555 -0.1437 -0.7181 -0.1797
  932TIP3   OH224286   2.451   4.616   4.395 -0.2899  0.1135  0.8201
  932TIP3    H124287   2.543   4.643   4.390  0.0219 -1.0307 -0.1913
  932TIP3    H224288   2.452   4.536   4.447 -0.7674  0.2536  1.0526
  933TIP3   OH224289   3.212   0.694   3.399  0.7091  0.6055  0.2343
  933TIP3    H124290   3.293   0.670   3.355 -0.0136  0.8160 -1.2611
  933TIP3    H224291   3.229   0.782   3.432  0.0951  2.0308 -2.8753
  934TIP3   OH224292   5.237   2.608  16.132  0.0194  0.5831  0.1171
  934TIP3    H124293   5.224   2.679  16.195 -0.3897  3.4110 -2.9020
  934TIP3    H224294   5.320   2.568  16.159  0.1869  2.0600  2.0437
  935TIP3   OH224295   1.918   5.425  10.903  0.3121 -0.0998 -1.1433
  935TIP3    H124296   1.995   5.428  10.846  0.7321  0.1273 -0.5786
  935TIP3    H224297   1.941   5.482  10.977 -0.3087 -0.2141 -0.8578
  936TIP3   OH224298   1.215   5.812   4.198 -0.2953  0.0622  0.5632
  936TIP3    H124299   1.156   5.869   4.148 -1.8384  0.5867  2.8414
  936TIP3    H224300   1.184   5.818   4.288  1.1829 -2.3103  1.3261
  937TIP3   OH224301   1.994   1.470  16.035  0.0034 -0.2568 -0.4488
  937TIP3    H124302   2.066   1.445  15.976  1.0135 -0.3946  0.8107
  937TIP3    H224303   1.934   1.396  16.033  0.3614 -0.5419 -0.7903
  938TIP3   OH224304   2.098   4.093  14.844 -0.0871  0.3580  0.0180
  938TIP3    H124305   2.187   4.099  14.877  0.4872  0.4309 -1.4825
  938TIP3    H224306   2.068   4.184  14.839 -0.3644  0.3174  0.7888
  939TIP3   OH224307   5.400   6.739  15.783 -0.2731 -0.0537 -0.0446
  939TIP3    H124308   5.423   6.712  15.871 -1.4078  0.8377  0.5530
  939TIP3    H224309   5.483   6.738  15.735  0.7581  1.4798  1.5836
  940TIP3   OH224310   4.264   2.060  16.806  0.6585 -0.1170 -0.0283
  940TIP3    H124311   4.230   1.972  16.826 -0.4026  0.1688 -0.5215
  940TIP3    H224312   4.344   2.043  16.757  0.9531 -0.8137  0.6730
  941TIP3   OH224313   1.953   0.285  16.206 -0.4222  0.1120  0.0251
  941TIP3    H124314   1.892   0.293  16.132  1.7802 -1.1519 -2.0487
  941TIP3    H224315   2.028   0.339  16.181  0.9874 -1.4887  0.6318
  942TIP3   OH224316   6.204   1.849  11.658  0.4346  0.0947 -0.0621
  942TIP3    H124317   6.201   1.884  11.747  0.9316 -0.0989  0.0362
  942TIP3    H224318   6.122   1.802  11.648 -0.6635  2.0096 -0.5155
  943TIP3   OH224319   0.382   5.678  11.960  0.5340  0.1032 -0.0282
  943TIP3    H124320   0.396   5.772  11.945 -2.7875  0.8495  0.6539
  943TIP3    H224321   0.391   5.667  12.055 -1.7234  0.3666  0.2630
  944TIP3   OH224322   1.313   2.871   3.446 -0.0979  0.5375  0.0555
  944TIP3    H124323   1.222   2.885   3.475 -0.8729 -0.0391 -1.9255
  944TIP3    H224324   1.364   2.871   3.527 -1.7165  1.8946  1.1587
  945TIP3   OH224325   5.802   5.943   0.043 -0.2871 -0.3416  0.0271
  945TIP3    H124326   5.857   5.927  -0.034  2.0432 -0.5174  1.6220
  945TIP3    H224327   5.803   5.859   0.090 -2.4681 -0.5231 -0.1759
  946TIP3   OH224328   5.633   3.980   4.652  0.5884 -0.2090  0.2918
  946TIP3    H124329   5.574   3.921   4.699  1.9652  0.4078  3.0099
  946TIP3    H224330   5.574   4.035   4.600 -1.0378 -1.2481  0.9228
  947TIP3   OH224331   2.120   4.405   2.548  0.1895  0.1081  0.0780
  947TIP3    H124332   2.101   4.451   2.466 -0.6909 -0.7310 -0.1920
  947TIP3    H224333   2.213   4.423   2.563 -0.4409  3.3906  0.8720
  948TIP3   OH224334   6.189   6.342   4.014 -0.3895 -0.1388 -0.2512
  948TIP3    H124335   6.237   6.404   4.070  0.1798  0.0892 -0.9705
  948TIP3    H224336   6.248   6.268   4.005  0.2427  0.5179 -1.8658
  949TIP3   OH224337   2.936   6.750   3.908 -0.2565 -0.8989 -0.1370
  949TIP3    H124338   2.985   6.811   3.963 -1.5032  2.0780 -2.0593
  949TIP3    H224339   3.004   6.696   3.867  0.8420 -1.5244  2.2984
  950TIP3   OH224340   0.559   4.476  15.347 -0.1428  0.0898  0.2582
  950TIP3    H124341   0.512   4.529  15.411  0.8951  1.0082  0.2900
  950TIP3    H224342   0.545   4.522  15.264 -2.6920 -1.8624 -0.5104
  951TIP3   OH224343   4.562   1.023  10.269 -0.2170 -0.9416  0.5171
  951TIP3    H124344   4.529   1.043  10.357 -1.4783 -0.8325  0.0365
  951TIP3    H224345   4.606   1.104  10.242 -2.5399  0.1893 -0.1492
  952TIP3   OH224346   1.628   6.085  16.236 -0.6303 -0.7561  0.6619
  952TIP3    H124347   1.613   6.023  16.164 -0.4075 -0.8276  0.6761
  952TIP3    H224348   1.564   6.059  16.302 -0.5302 -0.9794  0.6729
  953TIP3   OH224349   6.044   0.247  15.562 -0.1403 -0.0718  0.2347
  953TIP3    H124350   6.090   0.296  15.631  1.9381 -3.2650  1.3195
  953TIP3    H224351   6.095   0.265  15.482  2.0348 -2.0577  1.0609
  954TIP3   OH224352   5.833   6.241  14.674 -0.0226 -0.3994  0.4113
  954TIP3    H124353   5.844   6.310  14.739  1.2139 -0.1209 -0.0724
  954TIP3    H224354   5.742   6.214  14.684 -0.1302  0.3121  1.5795
  955TIP3   OH224355   0.205   0.990   6.348  0.0758 -0.3906  0.0817
  955TIP3    H124356   0.176   0.991   6.439 -0.3242 -0.5573 -0.0428
  955TIP3    H224357   0.168   1.070   6.310 -0.3373 -0.6693 -0.1105
  956TIP3   OH224358   0.386   4.637   6.232  0.2139 -0.1798 -0.1595
  956TIP3    H124359   0.406   4.647   6.325 -1.1017 -0.5944  0.1941
  956TIP3    H224360   0.292   4.653   6.227  0.4649  1.0315 -1.6117
  957TIP3   OH224361   3.777   0.819   6.430 -0.2459 -0.3033  0.0132
  957TIP3    H124362   3.757   0.749   6.367  1.7673  0.8294 -2.0095
  957TIP3    H224363   3.759   0.900   6.382  0.9723  0.5994  1.0149
  958TIP3   OH224364   3.443   5.587   6.222  0.4412 -0.0132 -0.2970
  958TIP3    H124365   3.406   5.547   6.300 -0.5103  1.6716  0.1541
  958TIP3    H224366   3.404   5.674   6.218  1.6162  0.4957 -1.8277
  959TIP3   OH224367   3.156   1.625   5.972  0.1983 -0.1075  0.2052
  959TIP3    H124368   3.081   1.590   6.021 -0.8171 -0.8856 -1.7588
  959TIP3    H224369   3.153   1.578   5.888  2.4623  0.4018 -0.2186
  960TIP3   OH224370   6.816   0.801   2.197 -0.0601  0.4561  0.2972
  960TIP3    H124371   6.802   0.805   2.292 -0.3095 -2.0662  0.4375
  960TIP3    H224372   6.906   0.771   2.188 -0.3267 -0.2032 -0.2292
  961TIP3   OH224373   4.115   3.243  14.841 -0.2014  0.3079 -0.6601
  961TIP3    H124374   4.145   3.162  14.881  0.9494 -0.3516 -2.7134
  961TIP3    H224375   4.120   3.308  14.911 -1.9252 -1.4723  1.2784
  962TIP3   OH224376   0.619   2.746   5.674 -0.1481 -0.0040 -0.2899
  962TIP3    H124377   0.655   2.758   5.585 -2.5116 -0.5412 -1.3871
  962TIP3    H224378   0.589   2.833   5.699  0.2389  0.0849 -0.1184
  963TIP3   OH224379   1.136   4.708  15.259  0.3659 -0.0168 -0.0157
  963TIP3    H124380   1.062   4.673  15.309  0.7121  0.2447  0.6908
  963TIP3    H224381   1.205   4.721  15.324  0.9805 -0.0970 -0.6385
  964TIP3   OH224382   4.229   0.905   2.740  0.2717  0.5019 -0.4097
  964TIP3    H124383   4.143   0.916   2.700 -0.5406 -0.0040  1.1583
  964TIP3    H224384   4.279   0.856   2.675 -1.6622 -2.2016 -0.0173
  965TIP3   OH224385   6.091   1.366  15.100  0.4565  0.0777  0.4392
  965TIP3    H124386   6.068   1.448  15.145  2.1928  0.4995  0.6391
  965TIP3    H224387   6.050   1.298  15.153 -0.4799  0.7699  0.6348
  966TIP3   OH224388   2.789   3.827  16.307 -0.6355 -0.5743 -0.1185
  966TIP3    H124389   2.832   3.741  16.314 -0.1615 -0.2642  1.0332
  966TIP3    H224390   2.732   3.831  16.384 -1.1945 -0.1374 -0.5473
  967TIP3   OH224391   2.004   2.733  15.889  0.6662  0.1235 -0.3110
  967TIP3    H124392   1.969   2.816  15.857 -0.6773  0.7636  2.4675
  967TIP3    H224393   1.927   2.679  15.904  1.4359 -1.1445 -0.7764
  968TIP3   OH224394   0.785   6.155  14.457 -0.9044  0.2603 -0.5248
  968TIP3    H124395   0.789   6.227  14.394 -0.2724  1.0111  0.3536
  968TIP3    H224396   0.713   6.101  14.426 -2.1762  1.8885 -0.5875
  969TIP3   OH224397   5.148   1.454   2.301  0.0940 -0.2652  0.0622
  969TIP3    H124398   5.073   1.459   2.242 -0.3357 -1.3687  0.5064
  969TIP3    H224399   5.149   1.539   2.345 -0.5966 -0.0598 -0.3015
  970TIP3   OH224400   6.633   5.424  13.163  0.4066  0.2929 -0.3210
  970TIP3    H124401   6.565   5.387  13.219  1.0196  1.9344  1.6228
  970TIP3    H224402   6.593   5.504  13.128  1.1497  1.0401  0.4922
  971TIP3   OH224403   3.022   6.706  15.824  0.4972  0.1288 -0.5273
  971TIP3    H124404   3.082   6.645  15.866  1.0419  0.3326 -0.9998
  971TIP3    H224405   3.070   6.789  15.822  0.3238  0.2229 -1.1655
  972TIP3   OH224406   5.253   1.796  16.148  0.7251  0.3057 -0.0414
  972TIP3    H124407   5.277   1.855  16.220  1.8440  1.7944 -1.5748
  972TIP3    H224408   5.232   1.853  16.075  0.1569 -1.1853 -1.0976
  973TIP3   OH224409   4.649   0.114   0.534 -0.2498  0.3552  0.1879
  973TIP3    H124410   4.602   0.111   0.451  1.6220  4.3269 -1.2469
  973TIP3    H224411   4.687   0.027   0.543 -0.6387 -0.2784 -3.0674
  974TIP3   OH224412   6.792   3.315  13.609 -0.0631  0.6226 -0.2219
  974TIP3    H124413   6.792   3.300  13.514 -1.7630  0.3409 -0.2222
  974TIP3    H224414   6.781   3.228  13.647  0.3036  0.7693  0.2285
  975TIP3   OH224415   4.776   1.665  14.218  0.6885 -0.2018 -0.2219
  975TIP3    H124416   4.823   1.748  14.225 -0.0415  0.0760  2.3307
  975TIP3    H224417   4.693   1.688  14.175 -0.0289  0.6817  1.5473
  976TIP3   OH224418   3.152   0.594  11.637 -0.6761 -0.0279 -0.1929
  976TIP3    H124419   3.201   0.515  11.615  0.2366  0.6021 -0.4608
  976TIP3    H224420   3.103   0.615  11.557  0.4992  0.6953 -0.7468
  977TIP3   OH224421   1.451   0.702   4.568  0.5243  0.1378  0.6593
  977TIP3    H124422   1.472   0.795   4.558 -2.4377  0.7513 -0.6610
  977TIP3    H224423   1.381   0.700   4.633 -0.7679 -0.9380 -0.7140
  978TIP3   OH224424   5.217   4.180  16.765  0.3589 -0.3351 -0.1443
  978TIP3    H124425   5.216   4.191  16.669 -0.0877  1.9811  0.0556
  978TIP3    H224426   5.305   4.208  16.791  0.1562 -0.0126  0.2004
  979TIP3   OH224427   1.574   2.065  11.085  0.1222 -0.4618  0.3697
  979TIP3    H124428   1.525   1.995  11.040  0.0256 -2.6715  3.5539
  979TIP3    H224429   1.665   2.035  11.084  1.1947  2.2818 -3.0840
  980TIP3   OH224430   1.571   6.771   1.853  0.4158  0.3850  0.6913
  980TIP3    H124431   1.524   6.805   1.777  1.0987  1.0385  0.5509
  980TIP3    H224432   1.526   6.689   1.874 -0.6349  0.8751  0.4236
  981TIP3   OH224433   4.194   1.840  11.822 -0.5268  0.4678  0.3604
  981TIP3    H124434   4.257   1.775  11.854 -1.4992 -0.6377  0.0823
  981TIP3    H224435   4.115   1.825  11.874  0.0165  3.2450  2.2277
  982TIP3   OH224436   4.956   3.565   4.896  0.3393 -0.0337 -0.2861
  982TIP3    H124437   4.913   3.503   4.955 -0.7291 -1.6428 -2.5724
  982TIP3    H224438   5.048   3.536   4.894 -0.0320 -1.2530 -0.8962
  983TIP3   OH224439   4.278   2.663  12.264 -0.3540  0.1988  0.0163
  983TIP3    H124440   4.212   2.708  12.318 -0.5970 -0.4896  0.2991
  983TIP3    H224441   4.323   2.605  12.325  0.5159  0.6454 -0.1799
  984TIP3   OH224442   2.875   4.909   2.608 -0.1927 -0.1077  0.2522
  984TIP3    H124443   2.819   4.963   2.552 -0.0667  0.7666  0.9379
  984TIP3    H224444   2.912   4.971   2.672  1.4929 -0.6866 -0.1204
  985TIP3   OH224445   4.014   2.014   3.608  0.3738  0.1022  0.2270
  985TIP3    H124446   3.927   1.978   3.597  1.0188 -1.1153 -1.2226
  985TIP3    H224447   4.027   2.019   3.703 -0.5821 -1.4255  0.4568
  986TIP3   OH224448   0.570   1.220  15.579 -0.2707 -0.0317  0.5976
  986TIP3    H124449   0.642   1.265  15.624  0.0558  0.7883 -0.7065
  986TIP3    H224450   0.508   1.198  15.649  1.4211 -1.1518  1.8179
  987TIP3   OH224451   5.147   4.187   5.912  0.0097  0.7495 -0.4407
  987TIP3    H124452   5.146   4.282   5.916  1.5586  0.7654 -0.0087
  987TIP3    H224453   5.123   4.159   6.000 -1.7630  0.6795 -0.8906
  988TIP3   OH224454   0.800   5.447  13.499  0.4730  0.4015  0.0977
  988TIP3    H124455   0.829   5.433  13.409  0.2872  1.6593 -0.1681
  988TIP3    H224456   0.879   5.437  13.552  0.5708 -0.4175 -0.1796
  989TIP3   OH224457   1.098   2.418   4.325  0.3430  0.2239  0.5357
  989TIP3    H124458   1.104   2.395   4.233 -0.4116  0.2881  0.4612
  989TIP3    H224459   1.116   2.336   4.372  0.5719  0.1560  0.3250
  990TIP3   OH224460   3.516   1.466   6.054 -0.0243  0.5647  0.0322
  990TIP3    H124461   3.487   1.512   6.133  0.9073  1.6568 -0.2485
  990TIP3    H224462   3.507   1.530   5.984 -0.1392 -0.1721 -0.6362
  991TIP3   OH224463   0.486   4.166   1.438 -0.2758  0.2014  0.2509
  991TIP3    H124464   0.564   4.116   1.415 -1.1016 -0.5462 -1.0723
  991TIP3    H224465   0.456   4.126   1.520  0.2012 -0.1354  0.2689
  992TIP3   OH224466   0.015   4.593  12.258 -0.4388  0.0911  0.0843
  992TIP3    H124467   0.091   4.650  12.249 -1.2727  1.4900  1.4228
  992TIP3    H224468   0.042   4.527  12.322  0.0014 -0.0932 -0.2845
  993TIP3   OH224469   4.689   5.595  14.960 -0.3539 -0.1317  0.8811
  993TIP3    H124470   4.598   5.585  14.933 -0.6265  1.6934  0.9890
  993TIP3    H224471   4.714   5.681  14.926  1.4631 -0.7659  0.5140
  994TIP3   OH224472   3.635   2.844  15.623  0.3826 -0.2363  0.3507
  994TIP3    H124473   3.624   2.881  15.535 -0.0114 -0.7768  0.1639
  994TIP3    H224474   3.707   2.893  15.661  2.3977 -1.7599 -1.2461
  995TIP3   OH224475   2.269   0.568  14.820  0.3888  0.3194 -0.2239
  995TIP3    H124476   2.258   0.478  14.790  2.7743  0.0709 -0.6191
  995TIP3    H224477   2.287   0.618  14.741 -0.2756  1.0274  0.0630
  996TIP3   OH224478   2.406   3.067   1.805  0.6616 -0.2468  0.0323
  996TIP3    H124479   2.312   3.055   1.796  0.6999 -1.3123  0.9264
  996TIP3    H224480   2.438   2.983   1.839  1.8435  0.3149  0.3537
  997TIP3   OH224481   6.053   0.638  14.373 -0.1599  0.2857 -0.4412
  997TIP3    H124482   5.980   0.608  14.319 -1.2419 -0.7840  1.5319
  997TIP3    H224483   6.043   0.734  14.376  0.3831  0.4696 -2.6835
  998TIP3   OH224484   2.110   4.353   4.157  0.3806  0.1276 -0.6974
  998TIP3    H124485   2.107   4.448   4.168 -2.0802 -0.0431  0.9426
  998TIP3    H224486   2.022   4.329   4.129  0.8271 -1.7343 -0.6442
  999TIP3   OH224487   5.357   4.994   3.921  0.0499  0.3517  0.0437
  999TIP3    H124488   5.351   4.899   3.929  1.4607  0.2011 -0.3733
  999TIP3    H224489   5.266   5.023   3.913 -0.4565 -0.8778  0.9206
 1000TIP3   OH224490   1.004   5.006  13.656  0.0525  0.5566 -0.4706
 1000TIP3    H124491   1.000   4.911  13.641  1.5679  0.3219  0.4380
 1000TIP3    H224492   0.917   5.038  13.630 -0.1218 -0.9131 -1.8615
 1001TIP3   OH224493   1.543   5.014  15.580  0.3922 -0.2435  0.9067
 1001TIP3    H124494   1.562   4.923  15.557  0.6196 -0.0360  0.2394
 1001TIP3    H224495   1.448   5.021  15.571  0.3634 -0.4414  1.0465
 1002TIP3   OH224496   5.440   0.156   4.619 -0.1015 -0.1059 -0.4387
 1002TIP3    H124497   5.435   0.251   4.607 -1.8635 -0.2290 -0.8616
 1002TIP3    H224498   5.507   0.128   4.557 -1.3225  0.5734 -2.1246
 1003TIP3   OH224499   2.174   5.044   3.476  0.1976  0.2306  0.0702
 1003TIP3    H124500   2.222   4.970   3.440  1.0856  0.4238  0.8144
 1003TIP3    H224501   2.192   5.116   3.416 -1.6382 -0.3996 -1.3275
 1004TIP3   OH224502   4.283   4.664   5.873 -0.2373  0.4801  0.2292
 1004TIP3    H124503   4.200   4.632   5.906  1.6745 -2.8468  2.3993
 1004TIP3    H224504   4.303   4.740   5.928 -1.2411  0.5734  0.4844
 1005TIP3   OH224505   4.424   6.311  12.058  0.3815  0.2621 -0.1843
 1005TIP3    H124506   4.328   6.302  12.060  0.3857 -0.9368 -2.4645
 1005TIP3    H224507   4.455   6.241  12.115 -0.0532  1.9275  2.2671
 1006TIP3   OH224508   4.216   0.854   4.198  0.3956 -0.2493 -0.1184
 1006TIP3    H124509   4.128   0.864   4.234 -0.7689  0.5554 -2.9648
 1006TIP3    H224510   4.272   0.846   4.276 -1.6825  2.9634  1.9608
 1007TIP3   OH224511   0.050   1.631   1.192 -0.3546 -0.1769  0.0217
 1007TIP3    H124512  -0.004   1.589   1.259  2.2375 -2.9388  0.5316
 1007TIP3    H224513   0.108   1.689   1.241 -2.4001  2.5848 -0.5112
 1008TIP3   OH224514   4.200   4.763   4.068  0.6073  0.1100  0.2495
 1008TIP3    H124515   4.190   4.763   4.163  1.6044 -0.6365  0.3686
 1008TIP3    H224516   4.122   4.717   4.037  1.4132 -1.8103  0.8861
 1009TIP3   OH224517   3.608   0.471   0.257  0.2101  0.3300  0.4506
 1009TIP3    H124518   3.642   0.397   0.309 -0.0883  0.0281  0.2151
 1009TIP3    H224519   3.620   0.444   0.166  0.0723  0.5640  0.3624
 1010TIP3   OH224520   4.122   2.021   1.415 -0.1861  0.1962 -0.4440
 1010TIP3    H124521   4.215   2.011   1.392 -0.3194 -1.9399 -0.2668
 1010TIP3    H224522   4.089   2.088   1.355  1.4300  0.8715 -0.6186
 1011TIP3   OH224523   0.340   3.797  13.453 -0.3993 -0.7495  0.1886
 1011TIP3    H124524   0.245   3.799  13.445 -0.3278 -2.0583 -1.8082
 1011TIP3    H224525   0.361   3.703  13.457  0.8101 -0.4831  0.3070
 1012TIP3   OH224526   1.052   5.622   3.359  0.0224 -0.1380  0.0255
 1012TIP3    H124527   1.082   5.644   3.271 -1.0350  0.2147 -0.2653
 1012TIP3    H224528   0.957   5.612   3.350 -0.3387  1.5668  1.4451
 1013TIP3   OH224529   1.079   4.636   2.796  0.5166  0.0152 -0.7221
 1013TIP3    H124530   1.115   4.568   2.739  0.9011  1.5868 -2.4207
 1013TIP3    H224531   1.100   4.718   2.752 -2.6111  1.1575 -0.3411
 1014TIP3   OH224532   6.046   1.362   1.924 -0.1437  0.2458 -0.1146
 1014TIP3    H124533   6.042   1.297   1.854 -0.7261  2.4484 -2.2714
 1014TIP3    H224534   6.021   1.445   1.882  0.7352  1.9397  2.4245
 1015TIP3   OH224535   0.776   6.293  13.433 -0.6120  0.4366  0.1348
 1015TIP3    H124536   0.805   6.229  13.368  0.0605  1.5843 -0.7171
 1015TIP3    H224537   0.684   6.270  13.450 -0.3702 -0.7735 -0.1156
 1016TIP3   OH224538   3.578   0.840  10.451  0.3702 -0.0038 -0.6977
 1016TIP3    H124539   3.520   0.894  10.397  1.3431  2.0931  0.2120
 1016TIP3    H224540   3.656   0.827  10.397  1.9519  3.3122  0.5132
 1017TIP3   OH224541   4.488   1.511  15.626  0.1292 -0.7497 -0.3879
 1017TIP3    H124542   4.421   1.497  15.694  0.7312 -1.8638  0.0111
 1017TIP3    H224543   4.480   1.603  15.603 -1.6412 -0.8810 -0.4571
 1018TIP3   OH224544   2.865   5.812   5.456  0.1335 -0.4895  0.2203
 1018TIP3    H124545   2.859   5.823   5.361 -1.3104 -0.5681  0.2727
 1018TIP3    H224546   2.822   5.890   5.491 -0.9661 -1.3024  0.7553
 1019TIP3   OH224547   5.723   0.816   0.795  0.2755  0.1591  0.0621
 1019TIP3    H124548   5.669   0.875   0.743  0.3959 -0.8972 -1.3464
 1019TIP3    H224549   5.809   0.856   0.796 -0.1461  1.0884  1.0192
 1020TIP3   OH224550   5.325   5.534  12.761  0.4806  0.0151  0.2012
 1020TIP3    H124551   5.252   5.474  12.773  0.7415 -0.7396 -1.5997
 1020TIP3    H224552   5.400   5.492  12.803  0.1431  0.2287  1.0196
 1021TIP3   OH224553   0.035   5.575  12.491 -0.2228  0.7717  0.1840
 1021TIP3    H124554   0.061   5.607  12.404  0.0449 -0.6027 -0.2726
 1021TIP3    H224555  -0.025   5.503  12.473  2.6091 -2.0180  0.9354
 1022TIP3   OH224556   4.180   5.642  13.637 -0.2164  0.3196 -0.0247
 1022TIP3    H124557   4.205   5.612  13.725  2.0359  0.0955 -0.6959
 1022TIP3    H224558   4.125   5.572  13.602  0.0007 -0.2152  0.6830
 1023TIP3   OH224559   2.153   4.949   3.937 -0.2355  0.1774  0.1224
 1023TIP3    H124560   2.225   5.012   3.940 -0.9429  1.1213 -1.5231
 1023TIP3    H224561   2.083   4.994   3.890 -0.9700 -1.6454 -0.6438
 1024TIP3   OH224562   3.922   2.750   3.911  0.4726  0.0272  0.1739
 1024TIP3    H124563   3.891   2.729   3.999  0.4931  0.1092  0.2000
 1024TIP3    H224564   3.895   2.675   3.858 -1.6226  1.0146 -0.2396
 1025TIP3   OH224565   2.956   6.338  14.007  0.1166  0.1814 -0.4821
 1025TIP3    H124566   2.928   6.308  13.921 -0.1174 -1.4690  0.1331
 1025TIP3    H224567   2.932   6.267  14.066 -0.1046  1.4551  1.0208
 1026TIP3   OH224568   1.903   2.134   1.178 -0.4930 -0.8178 -0.4644
 1026TIP3    H124569   1.983   2.098   1.217 -0.5836  0.7162  1.2766
 1026TIP3    H224570   1.842   2.060   1.175 -0.8288 -0.8818  3.3677
 1027TIP3   OH224571   3.933   3.286   0.524  0.6914 -0.2111  0.0740
 1027TIP3    H124572   4.027   3.279   0.538  0.7663 -0.5589 -0.5761
 1027TIP3    H224573   3.912   3.216   0.462 -0.3372 -1.4084  1.6943
 1028TIP3   OH224574   2.614   1.932  16.562  0.4719 -0.0922 -0.0527
 1028TIP3    H124575   2.566   1.962  16.639 -0.7579 -3.8027  0.8265
 1028TIP3    H224576   2.551   1.936  16.490  0.7385  0.6561 -0.2536
 1029TIP3   OH224577   2.126   1.748   1.549 -0.1441 -0.2980  0.4030
 1029TIP3    H124578   2.089   1.661   1.533  0.9351 -0.5225 -1.0398
 1029TIP3    H224579   2.202   1.752   1.492  0.3388  1.2707  1.1251
 1030TIP3   OH224580   6.743   4.373   4.660 -0.1626  0.3296  0.6942
 1030TIP3    H124581   6.744   4.464   4.628  0.6938  0.5695  1.4022
 1030TIP3    H224582   6.655   4.342   4.636  0.4800  0.4061 -2.1271
 1031TIP3   OH224583   5.992   3.519   3.761 -0.0353 -0.5871  0.1773
 1031TIP3    H124584   5.980   3.425   3.749 -1.0736 -0.7446  2.0492
 1031TIP3    H224585   5.964   3.557   3.678 -2.8231 -1.7716  0.4444
 1032TIP3   OH224586   0.685   0.107   1.157  0.7742  0.6650 -0.0463
 1032TIP3    H124587   0.632   0.100   1.236  0.8010  1.7941  0.0908
 1032TIP3    H224588   0.775   0.100   1.188  0.7540 -1.2163 -0.2750
 1033TIP3   OH224589   4.914   2.220   5.399  0.7719  0.1386  0.5509
 1033TIP3    H124590   4.845   2.161   5.369  2.9941 -1.0864 -2.6370
 1033TIP3    H224591   4.875   2.307   5.393 -0.5999 -0.5381 -0.9235
 1034TIP3   OH224592   4.431   5.003  14.256 -0.0409  0.0967 -0.2537
 1034TIP3    H124593   4.435   4.991  14.161 -0.9072 -0.0970 -0.2796
 1034TIP3    H224594   4.499   5.067  14.275 -0.9442  1.4053 -1.2329
 1035TIP3   OH224595   1.105   4.769  13.495  0.2400  0.9311 -0.0411
 1035TIP3    H124596   1.097   4.718  13.415 -0.9500  1.7407 -0.4584
 1035TIP3    H224597   1.183   4.823  13.482 -0.1362  1.2983 -0.7978
 1036TIP3   OH224598   5.139   5.764  15.573 -0.3680  0.7728 -0.4921
 1036TIP3    H124599   5.049   5.760  15.542 -0.6767 -1.5513  0.5330
 1036TIP3    H224600   5.135   5.820  15.650 -0.9573  0.6282 -0.4110
 1037TIP3   OH224601   6.035   5.811   4.889 -0.1527  0.0471 -0.6915
 1037TIP3    H124602   5.991   5.859   4.819  1.0003 -0.6250 -1.9302
 1037TIP3    H224603   6.079   5.879   4.941 -2.5750  0.7448  0.6360
 1038TIP3   OH224604   6.753   4.689   4.664 -0.1452  0.0134  0.1124
 1038TIP3    H124605   6.662   4.662   4.677 -0.6682  1.6452  0.1299
 1038TIP3    H224606   6.746   4.774   4.621  1.3953 -0.0229 -0.2654
 1039TIP3   OH224607   5.392   1.342   6.322 -0.5739 -0.2538 -0.5210
 1039TIP3    H124608   5.416   1.266   6.375 -1.1367 -0.8856 -1.1594
 1039TIP3    H224609   5.299   1.330   6.302 -0.5943  0.4431 -0.8827
 1040TIP3   OH224610   3.842   2.109  12.619  0.4895  0.0226  0.4175
 1040TIP3    H124611   3.763   2.119  12.673 -1.6522 -1.3881 -2.1965
 1040TIP3    H224612   3.855   2.014  12.613 -0.2290  0.0204 -2.5459
 1041TIP3   OH224613   4.560   4.395  12.617  0.2795  0.1455  0.2885
 1041TIP3    H124614   4.632   4.393  12.553 -0.4240  0.8056 -0.5372
 1041TIP3    H224615   4.481   4.393  12.564 -0.3407  2.3713  1.0360
 1042TIP3   OH224616   1.635   6.435  11.726 -0.4598 -0.2421  0.7716
 1042TIP3    H124617   1.597   6.415  11.812 -0.0501 -1.9894  0.5885
 1042TIP3    H224618   1.564   6.415  11.665 -0.1601 -0.8245  0.6051
 1043TIP3   OH224619   3.288   1.051   2.880 -0.1411  0.4012  0.2256
 1043TIP3    H124620   3.200   1.053   2.844 -0.9779  0.5020  2.1521
 1043TIP3    H224621   3.291   0.972   2.933  1.4130 -0.3165 -0.8510
 1044TIP3   OH224622   5.660   3.662  11.685 -0.2241  0.0335  0.1898
 1044TIP3    H124623   5.714   3.584  11.668  0.8528  1.0482 -1.2137
 1044TIP3    H224624   5.606   3.671  11.607 -1.6225 -0.2851  1.0888
 1045TIP3   OH224625   5.499   1.780   0.490  0.1451 -0.0723 -0.0046
 1045TIP3    H124626   5.536   1.868   0.482  0.8078 -0.3061  0.3967
 1045TIP3    H224627   5.414   1.793   0.533 -1.3515  0.7171 -2.9367
 1046TIP3   OH224628   3.412   4.573   4.539 -0.5887 -0.3452 -0.4200
 1046TIP3    H124629   3.482   4.568   4.474 -0.1517 -0.8930  0.0893
 1046TIP3    H224630   3.376   4.662   4.528 -0.3624 -0.3417 -1.2311
 1047TIP3   OH224631   2.286   6.463  13.360 -0.6521  0.3007 -1.0173
 1047TIP3    H124632   2.376   6.483  13.337 -0.5559  1.9901  0.5685
 1047TIP3    H224633   2.243   6.445  13.276  0.4376  2.6584 -2.1923
 1048TIP3   OH224634   1.234   2.462  12.589 -0.0692  0.1533 -0.1195
 1048TIP3    H124635   1.173   2.534  12.604  0.4070  0.5299  0.0141
 1048TIP3    H224636   1.231   2.448  12.494 -0.8770 -0.2893 -0.0383
 1049TIP3   OH224637   4.323   5.664  11.699  0.2032 -0.1428 -0.1092
 1049TIP3    H124638   4.401   5.628  11.740 -0.0824  0.6960  1.2231
 1049TIP3    H224639   4.306   5.606  11.625  0.9448 -1.4851  0.7369
 1050TIP3   OH224640   5.415   0.467   3.168  0.3649 -0.1297  0.2760
 1050TIP3    H124641   5.395   0.374   3.164 -1.2031  0.0045  2.9288
 1050TIP3    H224642   5.493   0.477   3.112  1.3594 -3.2294  0.9166
 1051TIP3   OH224643   1.119   4.928  16.516 -0.0178  0.5017  0.7691
 1051TIP3    H124644   1.163   4.985  16.578  1.5005  0.5979 -0.3409
 1051TIP3    H224645   1.160   4.842  16.528 -2.7350 -0.6626  2.9048
 1052TIP3   OH224646   2.207   3.657   2.940  0.0241 -0.4972  0.0087
 1052TIP3    H124647   2.173   3.599   3.008  0.0885  0.4199  0.8298
 1052TIP3    H224648   2.190   3.610   2.858  0.5058 -1.8959  0.6795
 1053TIP3   OH224649   5.988   1.569   3.282 -0.2935  0.2596 -0.2055
 1053TIP3    H124650   5.945   1.535   3.203 -2.3393  1.0513  0.4923
 1053TIP3    H224651   5.928   1.637   3.314  0.9387  0.5899  1.5220
 1054TIP3   OH224652   1.347   3.002   2.826  0.7275  0.1419  0.7497
 1054TIP3    H124653   1.317   2.924   2.872 -0.5156 -0.9514 -1.7667
 1054TIP3    H224654   1.443   2.997   2.830  0.7196  0.5485  3.8078
 1055TIP3   OH224655   0.657   3.593   5.940  0.5784  0.2286  0.1294
 1055TIP3    H124656   0.735   3.577   5.887  0.3240  1.6816 -0.7282
 1055TIP3    H224657   0.683   3.657   6.005  0.1745  0.5142  0.0161
 1056TIP3   OH224658   3.520   4.425  12.257  0.2572 -0.1886 -0.0315
 1056TIP3    H124659   3.505   4.452  12.166  2.2203 -2.7862 -1.2784
 1056TIP3    H224660   3.504   4.504  12.309  0.4087  1.7812 -2.7703
 1057TIP3   OH224661   0.551   6.803   2.789 -0.2381  0.3901  0.0469
 1057TIP3    H124662   0.622   6.867   2.780  0.8644 -0.7136  0.6448
 1057TIP3    H224663   0.592   6.719   2.768 -1.2936 -0.3153  0.7171
 1058TIP3   OH224664   1.381   5.862  15.179 -0.0469  0.1756 -0.4627
 1058TIP3    H124665   1.400   5.935  15.238  0.8326  0.2744 -0.8408
 1058TIP3    H224666   1.290   5.875  15.153 -0.4408  0.1317  0.8543
 1059TIP3   OH224667   1.960   1.491  13.641  0.3077  0.1486  0.0891
 1059TIP3    H124668   2.001   1.406  13.658  0.7233  0.4082  0.3849
 1059TIP3    H224669   2.030   1.546  13.608  0.1310  0.5021  0.2889
 1060TIP3   OH224670   1.846   1.035   4.596 -0.2131  0.1578  0.0494
 1060TIP3    H124671   1.912   1.093   4.557 -0.2010  0.5415  0.6264
 1060TIP3    H224672   1.853   1.051   4.690  1.1381 -2.2082  0.4296
 1061TIP3   OH224673   0.080   3.916  13.238  0.5449  0.8106  0.3068
 1061TIP3    H124674   0.022   3.939  13.166 -0.2153  2.6363  1.4550
 1061TIP3    H224675   0.119   3.999  13.266  1.9672 -0.0649  1.0384
 1062TIP3   OH224676   5.677   2.323   4.495 -0.2794 -0.4224 -0.1918
 1062TIP3    H124677   5.693   2.340   4.588  0.3578  1.8049 -0.6530
 1062TIP3    H224678   5.750   2.365   4.450 -1.9716  0.9537 -1.8235
 1063TIP3   OH224679   4.569   6.720   2.713 -0.3739  0.3240 -0.6826
 1063TIP3    H124680   4.600   6.806   2.742 -1.5025  0.0709  1.4310
 1063TIP3    H224681   4.546   6.674   2.794  3.5208 -3.3778 -1.2768
 1064TIP3   OH224682   6.623   6.074   0.802  0.2713  0.2135 -0.7934
 1064TIP3    H124683   6.554   6.137   0.824 -0.1830 -0.3877 -0.4745
 1064TIP3    H224684   6.600   5.995   0.851  2.4549  0.7064  1.2089
 1065TIP3   OH224685   6.395   4.508  13.468 -0.2378  0.3456  0.5958
 1065TIP3    H124686   6.454   4.575  13.502  0.1563  0.3374 -0.0474
 1065TIP3    H224687   6.314   4.519  13.518 -0.2311  1.3979  0.4097
 1066TIP3   OH224688   6.201   1.810   1.778 -0.2203  0.4168  0.5225
 1066TIP3    H124689   6.260   1.760   1.835  1.1723  0.2890 -0.9685
 1066TIP3    H224690   6.229   1.901   1.788 -0.5764  0.5096  0.7085
 1067TIP3   OH224691   6.287   0.703  13.862  0.3236 -0.2439  0.7785
 1067TIP3    H124692   6.380   0.717  13.878  0.4995 -2.0772  1.5472
 1067TIP3    H224693   6.260   0.638  13.927 -0.9816 -1.3471 -0.7732
 1068TIP3   OH224694   6.371   4.917  15.852  0.3597 -0.4721  0.3829
 1068TIP3    H124695   6.421   4.887  15.928 -0.3242 -0.6432  0.7707
 1068TIP3    H224696   6.412   4.873  15.777  0.7273 -0.6769  0.7016
 1069TIP3   OH224697   3.495   0.073  12.011 -0.8477  0.6374  0.2648
 1069TIP3    H124698   3.416   0.040  12.054  0.0767 -0.1022  1.4507
 1069TIP3    H224699   3.521   0.004  11.950 -1.7494  1.3823 -1.0184
 1070TIP3   OH224700   0.572   4.486   4.124 -0.4528 -0.5139  0.2067
 1070TIP3    H124701   0.611   4.408   4.161 -0.2869 -1.0951 -1.1421
 1070TIP3    H224702   0.478   4.466   4.119 -0.9938  0.7703  3.1741
 1071TIP3   OH224703   2.574   6.757   0.068 -0.2783  0.3669  0.0805
 1071TIP3    H124704   2.603   6.691   0.004 -2.7929 -0.2134 -0.5479
 1071TIP3    H224705   2.636   6.829   0.057 -0.3449  0.1036 -2.7135
 1072TIP3   OH224706   1.497   3.439  16.556  1.0381  0.2165  0.2222
 1072TIP3    H124707   1.465   3.508  16.614 -1.3154  0.3664 -1.1067
 1072TIP3    H224708   1.555   3.484  16.494 -0.7840  1.1833 -0.8816
 1073TIP3   OH224709   0.410   0.979   3.803 -0.4647  0.4156 -0.4325
 1073TIP3    H124710   0.479   0.914   3.814 -2.3699 -1.6006  0.2682
 1073TIP3    H224711   0.406   1.024   3.887 -2.7986 -2.4937  1.2214
 1074TIP3   OH224712   2.038   5.768  14.916  0.3424 -0.5733 -0.0388
 1074TIP3    H124713   2.130   5.768  14.943  0.7433  0.0422 -1.2917
 1074TIP3    H224714   2.025   5.856  14.879 -0.7109 -0.7068  0.0020
 1075TIP3   OH224715   3.895   2.899  17.054  0.0002  0.0330  0.6149
 1075TIP3    H124716   3.807   2.929  17.034 -0.1986 -1.1404 -0.4289
 1075TIP3    H224717   3.885   2.844  17.132 -0.1512  0.1105  0.6490
 1076TIP3   OH224718   1.899   2.884   2.600 -0.2354 -0.1887 -0.1009
 1076TIP3    H124719   1.841   2.808   2.586 -0.5171 -0.0714  0.3988
 1076TIP3    H224720   1.865   2.950   2.540  0.0555 -0.4802 -0.5918
 1077TIP3   OH224721   0.070   2.147   2.148 -0.0292  0.5942  0.8086
 1077TIP3    H124722   0.056   2.204   2.072  1.4364  1.6865  1.3132
 1077TIP3    H224723   0.148   2.183   2.191  0.5609 -1.4177  1.5243
 1078TIP3   OH224724   6.711   4.319  16.982  0.4248 -0.1809  0.7918
 1078TIP3    H124725   6.695   4.346  17.072 -0.3805  0.4166  0.4835
 1078TIP3    H224726   6.804   4.295  16.980  0.5951  0.3629  1.6356
 1079TIP3   OH224727   2.336   0.344   1.622 -0.3059 -0.5195 -0.1116
 1079TIP3    H124728   2.277   0.417   1.605 -1.6245 -1.5219 -0.0259
 1079TIP3    H224729   2.413   0.363   1.569 -1.0123  0.4611 -0.8365
 1080TIP3   OH224730   4.177   5.931  11.569  0.3664  0.1164  0.5096
 1080TIP3    H124731   4.178   5.897  11.480 -0.9095 -0.5082  0.7040
 1080TIP3    H224732   4.239   5.877  11.617 -0.9509 -1.3902  0.5958
 1081TIP3   OH224733   4.261   0.724   2.100  0.3557 -0.2568  0.2784
 1081TIP3    H124734   4.184   0.686   2.058 -0.3439 -0.6059  1.8101
 1081TIP3    H224735   4.328   0.723   2.032 -0.9900  0.1350 -1.1324
 1082TIP3   OH224736   2.868   1.984  14.057 -0.1582  0.1437  0.8339
 1082TIP3    H124737   2.783   1.952  14.026 -1.1302  1.3259  2.1381
 1082TIP3    H224738   2.878   1.943  14.143  0.0602  0.8550  1.1526
 1083TIP3   OH224739   3.460   3.002  12.596  0.6893 -0.2155  0.2397
 1083TIP3    H124740   3.489   2.995  12.505 -0.3614  1.3722 -0.2586
 1083TIP3    H224741   3.540   3.015  12.647  1.3825 -2.0170 -0.3064
 1084TIP3   OH224742   5.960   2.910   2.006  0.4142 -0.0115 -0.0668
 1084TIP3    H124743   5.904   2.851   1.955  0.6732  0.2777 -0.6913
 1084TIP3    H224744   5.923   2.997   1.991  0.5586  0.0885  0.1529
 1085TIP3   OH224745   1.725   1.348   0.385 -0.3125 -0.2394 -0.2029
 1085TIP3    H124746   1.790   1.348   0.315  0.8559  0.0734  0.8591
 1085TIP3    H224747   1.666   1.276   0.363  0.0031 -0.1048 -1.5289
 1086TIP3   OH224748   1.092   0.349   0.134 -0.1411  0.1239 -0.1505
 1086TIP3    H124749   1.033   0.279   0.160 -0.1272 -1.5733 -3.9860
 1086TIP3    H224750   1.179   0.315   0.152 -0.1840 -0.1270 -0.4118
 1087TIP3   OH224751   3.201   0.473   3.579  0.4070 -0.0774 -0.1190
 1087TIP3    H124752   3.213   0.499   3.670 -0.6949  1.1809 -0.3119
 1087TIP3    H224753   3.183   0.555   3.533  1.1634 -0.6686 -1.5178
 1088TIP3   OH224754   2.951   5.761   0.063 -0.7725 -0.2310 -0.4291
 1088TIP3    H124755   2.973   5.668   0.054 -0.7311 -0.3177  0.4374
 1088TIP3    H224756   2.874   5.761   0.121 -0.8146  0.2737 -0.4854
 1089TIP3   OH224757   6.018   1.863  11.917  0.0634  0.1914 -0.4966
 1089TIP3    H124758   5.988   1.838  12.004 -0.6272  0.0616 -0.7671
 1089TIP3    H224759   5.985   1.794  11.859  2.6213 -1.0949 -0.5536
 1090TIP3   OH224760   4.314   1.751  14.562  0.3264  0.2139  0.1800
 1090TIP3    H124761   4.334   1.841  14.536 -0.3517  0.4226  0.3537
 1090TIP3    H224762   4.221   1.741  14.543  0.2073 -0.1822  0.9411
 1091TIP3   OH224763   1.158   4.940   2.851 -0.1056  0.3798 -0.3046
 1091TIP3    H124764   1.098   4.988   2.795 -1.8564 -1.2404  0.1065
 1091TIP3    H224765   1.137   4.970   2.940 -0.4115 -0.2908 -0.1475
 1092TIP3   OH224766   4.062   5.191   3.913 -0.0810 -0.1289  0.0758
 1092TIP3    H124767   3.978   5.147   3.921  0.1258 -0.5412  0.0028
 1092TIP3    H224768   4.127   5.125   3.939  0.4152 -0.6489 -2.2775
 1093TIP3   OH224769   4.070   4.288  11.938  0.3722  0.3375  0.9145
 1093TIP3    H124770   4.117   4.262  11.859 -1.4939  0.3096 -0.2600
 1093TIP3    H224771   4.118   4.364  11.971  0.7412  0.8592 -0.7279
 1094TIP3   OH224772   1.532   5.345  16.422  0.5208 -0.4783  0.1631
 1094TIP3    H124773   1.539   5.253  16.446  1.0245 -0.2317  1.0191
 1094TIP3    H224774   1.508   5.389  16.504 -0.0484  0.1137 -0.3085
 1095TIP3   OH224775   5.128   4.458  15.345  0.2438  0.0575  0.1134
 1095TIP3    H124776   5.145   4.456  15.439 -0.4653 -0.8129  0.2392
 1095TIP3    H224777   5.064   4.529  15.334 -0.3399 -0.4145  0.4158
 1096TIP3   OH224778   0.703   5.316   4.611 -0.3306 -0.3262  0.2010
 1096TIP3    H124779   0.690   5.343   4.702 -2.4270  0.8312 -0.3918
 1096TIP3    H224780   0.797   5.295   4.606  0.6729  3.0534  1.7467
 1097TIP3   OH224781   2.005   6.782  15.997 -0.6373  0.2568 -0.0145
 1097TIP3    H124782   2.064   6.707  15.997 -0.5660  0.3137 -0.2313
 1097TIP3    H224783   1.979   6.791  16.089 -1.5694 -0.7546 -0.1642
 1098TIP3   OH224784   0.118   4.197   5.434  0.5989 -0.5480 -0.0534
 1098TIP3    H124785   0.191   4.228   5.487 -2.1229  1.3121  3.0052
 1098TIP3    H224786   0.108   4.265   5.366 -0.1143  0.9210  1.4446
 1099TIP3   OH224787   0.782   4.636  15.155 -0.2065 -0.1354 -0.1200
 1099TIP3    H124788   0.821   4.548  15.157 -0.0274 -0.0665 -0.4323
 1099TIP3    H224789   0.752   4.647  15.065  2.1830  1.1513 -0.8424
 1100TIP3   OH224790   0.131   2.691  15.425  0.1121  0.4612  0.4214
 1100TIP3    H124791   0.094   2.761  15.372 -1.0980 -0.3780  0.1212
 1100TIP3    H224792   0.092   2.611  15.390  0.0457 -0.2018  1.9378
 1101TIP3   OH224793   0.161   6.800   5.230 -0.0816 -0.1588 -0.3580
 1101TIP3    H124794   0.211   6.881   5.223 -2.1376  1.2359  0.2520
 1101TIP3    H224795   0.187   6.763   5.315 -0.4679  0.8193  0.1967
 1102TIP3   OH224796   4.345   6.389  14.594  0.5272 -0.2098 -0.4847
 1102TIP3    H124797   4.416   6.336  14.628  1.2583  0.9038 -0.2240
 1102TIP3    H224798   4.326   6.452  14.663  1.3439  1.4269 -1.6684
 1103TIP3   OH224799   3.569   5.743   4.166  0.0236  0.2770 -0.2281
 1103TIP3    H124800   3.543   5.742   4.258  1.5299  0.9909  0.2474
 1103TIP3    H224801   3.542   5.658   4.133 -2.6019  0.8682  0.2278
 1104TIP3   OH224802   5.680   6.100   4.186  0.1457 -0.4192  0.5261
 1104TIP3    H124803   5.637   6.165   4.131 -1.9415 -0.5707  1.8789
 1104TIP3    H224804   5.650   6.016   4.152  1.2835 -0.6306  0.0073
 1105TIP3   OH224805   5.269   0.792  13.920 -0.3011  0.3192  0.9300
 1105TIP3    H124806   5.315   0.745  13.989 -0.1176 -0.9518 -0.0062
 1105TIP3    H224807   5.210   0.851  13.966 -0.7791 -1.0697  2.1945
 1106TIP3   OH224808   5.818   2.975  12.162 -0.3861  0.5061  0.5942
 1106TIP3    H124809   5.770   2.894  12.181  0.0433  0.7694  3.0721
 1106TIP3    H224810   5.909   2.955  12.183  0.2302  0.8534 -1.4616
 1107TIP3   OH224811   3.299   5.347  12.586  0.1273  0.6099  0.0386
 1107TIP3    H124812   3.253   5.403  12.524  1.3424  1.7015  0.0729
 1107TIP3    H224813   3.383   5.392  12.601 -0.0429  0.3145  2.3230
 1108TIP3   OH224814   0.912   5.489   0.291  0.5248 -0.3623  0.2915
 1108TIP3    H124815   0.832   5.437   0.290 -0.2331  0.7650 -0.6024
 1108TIP3    H224816   0.960   5.457   0.367  0.1592 -2.4202 -0.2949
 1109TIP3   OH224817   5.379   2.840  15.956  0.5911  0.0458 -0.2006
 1109TIP3    H124818   5.332   2.823  16.038  1.6327  0.3903  0.4872
 1109TIP3    H224819   5.312   2.871  15.895  0.0989  1.6207  1.0861
 1110TIP3   OH224820   6.764   5.265  14.511 -0.2494 -0.2444  0.0646
 1110TIP3    H124821   6.685   5.226  14.548 -1.6257  2.3012  0.0199
 1110TIP3    H224822   6.762   5.356  14.540  3.3130 -0.3263  1.0146
 1111TIP3   OH224823   5.177   5.662   0.149 -0.3578  0.0841 -0.5222
 1111TIP3    H124824   5.223   5.581   0.170  0.4893  0.8628  0.7526
 1111TIP3    H224825   5.118   5.677   0.223 -1.9828 -0.3694 -1.6701
 1112TIP3   OH224826   2.422   1.869  12.249  0.6043 -0.1546 -0.0750
 1112TIP3    H124827   2.486   1.843  12.182 -1.1639 -3.5843 -0.6364
 1112TIP3    H224828   2.338   1.839  12.215 -0.7314  0.3928  2.5311
 1113TIP3   OH224829   1.502   2.406  17.240  0.0841 -0.2567 -0.2894
 1113TIP3    H124830   1.528   2.455  17.318 -1.0202 -2.3637  1.5021
 1113TIP3    H224831   1.560   2.330  17.239 -1.7175 -1.7055  0.1350
 1114TIP3   OH224832   4.034   4.355   0.493 -0.4076  0.5081 -0.0460
 1114TIP3    H124833   4.007   4.296   0.423 -0.7119  1.3562 -0.6655
 1114TIP3    H224834   4.076   4.299   0.558 -1.1845 -0.4562 -0.3622
 1115TIP3   OH224835   0.723   3.253  13.089 -0.1644 -0.2250 -0.1790
 1115TIP3    H124836   0.788   3.202  13.137 -1.6780 -2.2726 -0.1365
 1115TIP3    H224837   0.660   3.280  13.157 -0.7848 -0.6349 -0.5825
 1116TIP3   OH224838   1.515   4.939  16.838  0.2418  0.0065 -0.4166
 1116TIP3    H124839   1.498   4.892  16.920  0.1231 -0.7601 -0.8689
 1116TIP3    H224840   1.587   4.999  16.859 -0.3146  0.3929  0.4536
 1117TIP3   OH224841   2.736   2.603   1.347  0.0603 -0.3286 -0.4160
 1117TIP3    H124842   2.801   2.589   1.416  0.2232 -0.3874 -0.5819
 1117TIP3    H224843   2.652   2.596   1.392  0.1591  2.2873  0.3089
 1118TIP3   OH224844   4.014   3.397  15.051 -0.6037  0.1930 -0.6447
 1118TIP3    H124845   4.091   3.355  15.090 -0.7317  0.0422 -0.5525
 1118TIP3    H224846   3.963   3.428  15.126  0.1972  1.8133 -0.7337
 1119TIP3   OH224847   6.687   0.550  14.434  0.2740  0.0589 -0.1422
 1119TIP3    H124848   6.725   0.603  14.504 -0.3951  0.0701  0.2206
 1119TIP3    H224849   6.596   0.537  14.460 -0.1637  0.5944 -1.3082
 1120TIP3   OH224850   1.020   6.004  16.124 -0.1370  0.3417 -0.0342
 1120TIP3    H124851   1.006   5.943  16.196 -0.2846  2.2189  1.5983
 1120TIP3    H224852   0.991   5.956  16.046 -3.7538 -0.3954  1.5980
 1121TIP3   OH224853   0.737   4.990  16.161 -0.0291 -0.2420 -0.0252
 1121TIP3    H124854   0.709   5.061  16.103  1.0961  0.8700  0.7368
 1121TIP3    H224855   0.683   4.915  16.135 -0.5360  0.6058 -1.5381
 1122TIP3   OH224856   3.443   3.023   5.746 -0.1501  0.4406 -0.4018
 1122TIP3    H124857   3.528   3.023   5.703 -1.1593 -0.4414 -2.6011
 1122TIP3    H224858   3.456   2.976   5.828  1.1446 -1.2001 -1.5054
 1123TIP3   OH224859   6.321   1.981   6.503  0.0418 -0.3943  0.0226
 1123TIP3    H124860   6.301   2.055   6.445 -0.2222  0.6208  1.3761
 1123TIP3    H224861   6.403   2.006   6.546 -0.2210 -0.7294  0.7298
 1124TIP3   OH224862   1.140   5.028   2.445  0.1820 -0.2982  0.4918
 1124TIP3    H124863   1.124   4.934   2.452  1.3965 -0.4319  2.2584
 1124TIP3    H224864   1.072   5.068   2.499  0.0802 -0.1973  0.2915
 1125TIP3   OH224865   4.238   2.474  15.243  0.0640  0.0600  0.0872
 1125TIP3    H124866   4.146   2.497  15.257 -0.0197 -0.5888  0.6571
 1125TIP3    H224867   4.284   2.519  15.313 -0.2358 -2.3436  1.9804
 1126TIP3   OH224868   1.715   6.615  11.243  0.1116  0.5901 -0.5233
 1126TIP3    H124869   1.674   6.694  11.277 -0.3878  0.4918 -0.8865
 1126TIP3    H224870   1.758   6.576  11.319 -1.1598  0.2724  0.0535
 1127TIP3   OH224871   6.475   2.242  16.986  0.4167  0.1219  0.3764
 1127TIP3    H124872   6.531   2.177  17.028  1.3792  1.3437  1.0873
 1127TIP3    H224873   6.390   2.230  17.027  0.4961 -0.8739  0.2730
 1128TIP3   OH224874   3.591   5.507   4.811 -0.0585 -0.3470  0.2119
 1128TIP3    H124875   3.675   5.478   4.846 -0.3495 -0.3948  0.8864
 1128TIP3    H224876   3.595   5.484   4.718  1.4331  1.3997 -0.2016
 1129TIP3   OH224877   2.872   2.138  14.786 -0.2218 -0.0297  0.1259
 1129TIP3    H124878   2.876   2.119  14.693  0.4581 -0.5505  0.2488
 1129TIP3    H224879   2.940   2.205  14.800  0.1693 -0.4628  0.3501
 1130TIP3   OH224880   4.014   5.020  12.659 -1.0000 -0.0063 -0.4578
 1130TIP3    H124881   3.934   5.003  12.610 -1.7749 -0.7100  0.9937
 1130TIP3    H224882   4.004   5.110  12.691 -1.5399 -0.3477  0.3290
 1131TIP3   OH224883   5.348   2.824   6.533 -0.1646 -0.1589 -0.0296
 1131TIP3    H124884   5.289   2.755   6.562 -0.1398  0.2131  0.9343
 1131TIP3    H224885   5.291   2.894   6.502 -0.2794  0.4479  1.4655
 1132TIP3   OH224886   0.952   1.809  14.677  0.3562 -0.4756 -0.5380
 1132TIP3    H124887   1.021   1.746  14.656 -0.9959 -1.2634 -3.0833
 1132TIP3    H224888   0.907   1.824  14.594 -1.5313  1.2507  0.6879
 1133TIP3   OH224889   2.047   3.382  15.723 -0.1758  0.0344 -0.1205
 1133TIP3    H124890   2.121   3.418  15.675  1.2921 -1.1707  1.1674
 1133TIP3    H224891   1.981   3.364  15.655  1.7591 -1.4708 -1.7218
 1134TIP3   OH224892   3.725   2.814  12.423  0.0115 -0.4335  0.1736
 1134TIP3    H124893   3.658   2.755  12.457  0.5533 -0.3947  1.3747
 1134TIP3    H224894   3.798   2.805  12.484  1.2222 -0.6708 -1.2602
 1135TIP3   OH224895   3.456   6.283   1.867  0.2255 -0.2868  0.0695
 1135TIP3    H124896   3.482   6.303   1.957 -1.6630  0.1248  0.5837
 1135TIP3    H224897   3.440   6.369   1.828 -0.0797 -0.5018 -0.2812
 1136TIP3   OH224898   4.424   3.318  12.792  0.1305  0.1157  0.0530
 1136TIP3    H124899   4.417   3.378  12.865 -0.6273  1.5196 -1.1285
 1136TIP3    H224900   4.518   3.310  12.775  0.4138 -1.2099  1.9010
 1137TIP3   OH224901   0.093   4.260  14.728  0.2038  0.1070 -0.5146
 1137TIP3    H124902   0.117   4.184  14.782 -1.5968  1.1083  1.8786
 1137TIP3    H224903  -0.002   4.254  14.717  0.2807  0.9992 -1.9444
 1138TIP3   OH224904   6.208   4.650  15.715  0.0280 -0.5243 -0.1416
 1138TIP3    H124905   6.191   4.695  15.797 -0.1761  0.1351 -0.5327
 1138TIP3    H224906   6.121   4.632  15.679  0.1111 -1.1432 -0.0352
 1139TIP3   OH224907   2.249   6.731  13.004  0.2053  0.2137 -0.1126
 1139TIP3    H124908   2.202   6.671  13.063  1.6308 -0.6151  0.2069
 1139TIP3    H224909   2.246   6.687  12.919 -1.0470  0.9759 -0.4904
 1140TIP3   OH224910   0.193   4.538  15.531  0.1333 -0.1637  0.2141
 1140TIP3    H124911   0.284   4.565  15.538  0.0322  0.1771  0.2151
 1140TIP3    H224912   0.197   4.450  15.493  0.5841 -1.1842  2.4992
 1141TIP3   OH224913   4.130   3.736   1.897 -0.2412 -0.0006  0.1638
 1141TIP3    H124914   4.046   3.739   1.942  0.0218  0.6666  0.6359
 1141TIP3    H224915   4.181   3.671   1.945 -0.6774 -0.8338 -0.4828
 1142TIP3   OH224916   1.922   5.859   2.478  0.3018  0.6298  0.8753
 1142TIP3    H124917   2.005   5.870   2.524  0.8154  1.2791 -0.1718
 1142TIP3    H224918   1.946   5.858   2.385 -0.9428  1.6858  0.5173
 1143TIP3   OH224919   6.755   2.855  14.258  0.4507  0.0502 -0.0658
 1143TIP3    H124920   6.848   2.833  14.254  0.7089  0.4549  2.4820
 1143TIP3    H224921   6.753   2.948  14.278 -0.5757  0.4146 -1.6073
 1144TIP3   OH224922   3.247   6.397  11.737  0.3659  0.4761 -0.7114
 1144TIP3    H124923   3.326   6.447  11.758  1.1145 -0.4849 -1.2262
 1144TIP3    H224924   3.181   6.464  11.719  0.8131  1.3012  0.5506
 1145TIP3   OH224925   1.565   4.923   5.829 -0.6715  0.2112  0.2945
 1145TIP3    H124926   1.642   4.893   5.876 -0.6072 -0.0667  0.0126
 1145TIP3    H224927   1.494   4.917   5.893 -0.7319 -0.8869  0.1459
 1146TIP3   OH224928   5.799   5.344   0.462 -0.0913 -0.1298 -0.0108
 1146TIP3    H124929   5.734   5.327   0.530 -0.0375 -2.5648 -0.4580
 1146TIP3    H224930   5.884   5.332   0.505  0.0180  0.6730  0.0162
 1147TIP3   OH224931   0.058   4.342   3.040 -1.0495 -0.2128  0.2251
 1147TIP3    H124932   0.081   4.333   3.133  0.5628 -0.0104 -0.1180
 1147TIP3    H224933  -0.000   4.418   3.037 -0.3051  0.4154  0.9638
 1148TIP3   OH224934   2.765   4.429   0.258 -0.4399  0.5505 -0.4583
 1148TIP3    H124935   2.816   4.412   0.338 -0.1535  0.6185 -0.6265
 1148TIP3    H224936   2.830   4.452   0.192 -0.7628  1.6874 -0.4014
 1149TIP3   OH224937   3.008   6.148   3.189  0.5288 -0.0691  0.3908
 1149TIP3    H124938   3.080   6.092   3.217 -0.0077  0.0267  2.0724
 1149TIP3    H224939   3.033   6.236   3.218  1.2870  0.6012 -2.0754
 1150TIP3   OH224940   5.113   3.215  15.031  0.0522  0.2660 -0.2506
 1150TIP3    H124941   5.053   3.222  14.957  2.1331  0.4837 -2.0222
 1150TIP3    H224942   5.099   3.126  15.065 -0.1776 -0.2401 -1.6039
 1151TIP3   OH224943   0.008   5.284  12.289 -0.5454  0.3689 -0.5253
 1151TIP3    H124944   0.007   5.245  12.376 -0.0801  0.1872 -0.5981
 1151TIP3    H224945  -0.079   5.322  12.279 -0.5423  0.5524  0.0913
 1152TIP3   OH224946   1.905   5.565   6.037 -0.0738  0.4941  0.0900
 1152TIP3    H124947   1.912   5.479   5.995 -0.8129  0.5088 -0.0765
 1152TIP3    H224948   1.918   5.627   5.966  0.7377  0.5271  0.2600
 1153TIP3   OH224949   6.047   4.931  15.712  0.2607 -0.0465 -0.4815
 1153TIP3    H124950   6.052   4.900  15.803 -0.0164  2.5185  0.5020
 1153TIP3    H224951   6.014   5.021  15.720  1.4229  0.6770 -3.0537
 1154TIP3   OH224952   4.256   4.998  13.597  0.1591 -0.4530  0.3741
 1154TIP3    H124953   4.292   5.069  13.545  0.5245 -1.4717 -0.8123
 1154TIP3    H224954   4.221   4.936  13.532 -0.7831 -1.0320  1.3972
 1155TIP3   OH224955   2.713   6.296  15.164 -0.3327 -0.2946  0.4223
 1155TIP3    H124956   2.700   6.323  15.256  0.9593  0.2366  0.4692
 1155TIP3    H224957   2.763   6.368  15.125 -0.5985 -0.6625 -0.6238
 1156TIP3   OH224958   2.867   0.981   0.185 -0.2548 -0.2204  0.2563
 1156TIP3    H124959   2.805   0.963   0.115 -1.3932  1.7437  0.6819
 1156TIP3    H224960   2.951   0.994   0.140 -0.3670 -1.6894 -0.4380
 1157TIP3   OH224961   2.815   2.934  15.144  0.0129  0.7357 -0.1426
 1157TIP3    H124962   2.822   3.009  15.203 -2.3724  1.1477 -0.2659
 1157TIP3    H224963   2.779   2.864  15.198  0.3092  0.2922 -0.5078
 1158TIP3   OH224964   3.024   2.003   1.919 -0.2050  0.1793 -0.0822
 1158TIP3    H124965   3.115   2.021   1.894 -0.1532  0.6213  0.4068
 1158TIP3    H224966   3.031   1.967   2.007 -0.3903 -1.3087 -0.6354
 1159TIP3   OH224967   0.805   6.420   4.539  0.3027 -0.2603 -0.7509
 1159TIP3    H124968   0.729   6.436   4.482  0.0086  1.0391 -0.0299
 1159TIP3    H224969   0.875   6.474   4.502 -0.1224  1.2574  0.5467
 1160TIP3   OH224970   4.864   1.021   1.201 -0.5953  0.1624  0.4317
 1160TIP3    H124971   4.803   1.070   1.145  0.2330  0.4035 -0.2760
 1160TIP3    H224972   4.925   0.981   1.140  0.7580  1.0060  1.1859
 1161TIP3   OH224973   6.750   3.961   6.546  0.0170 -0.1739 -0.0369
 1161TIP3    H124974   6.746   3.878   6.593  1.5991 -1.5449 -2.1546
 1161TIP3    H224975   6.820   4.010   6.588  1.2848 -1.2999 -0.7877
 1162TIP3   OH224976   2.374   1.809  14.015  0.3930  0.1078 -0.1173
 1162TIP3    H124977   2.378   1.747  13.942  0.6959  0.1999 -0.1823
 1162TIP3    H224978   2.283   1.837  14.018  0.4274  0.2847 -0.6149
 1163TIP3   OH224979   0.115   0.417  15.269 -0.0338 -0.2607  0.2045
 1163TIP3    H124980   0.193   0.472  15.273  0.7288 -1.3485  0.2983
 1163TIP3    H224981   0.146   0.328  15.281 -1.2980 -0.7098  0.3140
 1164TIP3   OH224982   1.847   3.478   1.749 -0.0491 -0.3618 -0.1856
 1164TIP3    H124983   1.858   3.470   1.654 -0.8813  1.1006 -0.4400
 1164TIP3    H224984   1.790   3.405   1.773  2.5588 -2.5851 -0.2751
 1165TIP3   OH224985   3.939   0.730   5.316 -0.2346  0.6486 -0.5189
 1165TIP3    H124986   3.890   0.651   5.294  0.5188  0.0721 -0.1512
 1165TIP3    H224987   3.899   0.762   5.397 -1.6511  1.6204 -1.5304
 1166TIP3   OH224988   1.711   2.546   3.943 -0.0534  0.3670  0.1998
 1166TIP3    H124989   1.740   2.455   3.936 -0.1692  0.2883  0.7245
 1166TIP3    H224990   1.793   2.596   3.943  0.0744  0.1748  1.2147
 1167TIP3   OH224991   0.534   0.244   4.570 -0.0264  0.0272  0.6479
 1167TIP3    H124992   0.486   0.161   4.571 -1.4067  0.8046  1.4868
 1167TIP3    H224993   0.466   0.311   4.568  1.0644  1.1529  0.4683
 1168TIP3   OH224994   1.670   3.337   1.174  0.3875 -0.2154 -0.0726
 1168TIP3    H124995   1.694   3.398   1.104 -1.8599  0.4391 -0.3801
 1168TIP3    H224996   1.578   3.315   1.155 -0.7349  0.9834  3.3042
 1169TIP3   OH224997   6.677   6.768   3.130  0.4882 -0.4588 -0.1138
 1169TIP3    H124998   6.710   6.720   3.206  1.2060  1.7524  1.0613
 1169TIP3    H224999   6.581   6.761   3.137  0.4128  1.5960  2.4236
 1170TIP3   OH225000   5.671   6.809   0.230 -0.2496 -0.2285 -0.1466
 1170TIP3    H125001   5.646   6.901   0.242  0.9480  0.1308 -0.2709
 1170TIP3    H225002   5.698   6.781   0.317 -0.6009 -0.4722 -0.1125
 1171TIP3   OH225003   4.581   6.793   2.420 -0.0181 -0.1385 -0.1885
 1171TIP3    H125004   4.540   6.727   2.476  0.5312 -0.9922 -0.7599
 1171TIP3    H225005   4.661   6.816   2.466  0.6888 -1.2124 -0.8219
 1172TIP3   OH225006   3.825   4.777   4.225 -0.2281  0.2043 -0.2874
 1172TIP3    H125007   3.745   4.827   4.244  0.6287  1.1028  1.1068
 1172TIP3    H225008   3.821   4.761   4.131 -2.1092  0.1236 -0.2455
 1173TIP3   OH225009   4.547   4.748   4.775 -0.3803  0.1358 -0.3263
 1173TIP3    H125010   4.572   4.839   4.760  0.4934 -0.1531 -0.6727
 1173TIP3    H225011   4.476   4.732   4.712  1.3579 -0.2281 -2.3012
 1174TIP3   OH225012   6.487   2.320  13.110  0.9397 -0.0452 -0.0646
 1174TIP3    H125013   6.559   2.258  13.124 -0.5268 -1.9636 -0.5804
 1174TIP3    H225014   6.516   2.373  13.035  2.5129  0.3954  0.8069
 1175TIP3   OH225015   6.364   1.477  16.908  0.5179  0.3089 -0.0001
 1175TIP3    H125016   6.328   1.409  16.852  0.2535  0.5394 -0.1117
 1175TIP3    H225017   6.320   1.465  16.993 -0.3074  0.9992 -0.3239
 1176TIP3   OH225018   4.653   3.994  11.352 -0.5722  0.1396 -0.5481
 1176TIP3    H125019   4.717   4.066  11.346 -0.5388  0.0405 -1.4143
 1176TIP3    H225020   4.608   3.994  11.268  0.3978 -1.7593 -1.1212
 1177TIP3   OH225021   0.107   6.427  13.814  0.8786 -0.0523 -0.3306
 1177TIP3    H125022   0.106   6.486  13.890  0.7780  0.2802 -0.5865
 1177TIP3    H225023   0.103   6.339  13.852  1.8507  0.0655  0.0975
 1178TIP3   OH225024   2.209   6.166   5.247  0.0302 -0.0982  0.4600
 1178TIP3    H125025   2.270   6.190   5.317 -0.7245 -1.4308  1.6280
 1178TIP3    H225026   2.210   6.241   5.188  0.8112  1.0187  1.8166
 1179TIP3   OH225027   3.148   6.175  14.719 -0.1943  0.3539 -0.3109
 1179TIP3    H125028   3.180   6.235  14.651 -0.3784  1.7934  0.8236
 1179TIP3    H225029   3.151   6.226  14.799  0.2214 -1.3846  0.8315
 1180TIP3   OH225030   2.736   5.576   1.049 -0.4739  0.4873  0.6935
 1180TIP3    H125031   2.718   5.664   1.083 -0.5778  0.6946  0.1001
 1180TIP3    H225032   2.818   5.584   1.002 -1.5452  0.7804 -1.2133
 1181TIP3   OH225033   6.544   3.886  10.653 -0.1821 -0.0396 -0.0734
 1181TIP3    H125034   6.562   3.947  10.582  0.3874  0.1400  0.2160
 1181TIP3    H225035   6.631   3.861  10.685 -0.4090 -0.9350 -0.1364
 1182TIP3   OH225036   3.327   6.048   1.365  0.4160 -0.4297  0.0035
 1182TIP3    H125037   3.305   6.023   1.455 -0.0536 -1.8738 -0.4719
 1182TIP3    H225038   3.350   6.140   1.370  0.5626 -0.5272  1.6326
 1183TIP3   OH225039   2.408   0.901   1.378  0.0188 -0.4319 -0.3236
 1183TIP3    H125040   2.416   0.995   1.396 -1.5450  0.2454 -2.6599
 1183TIP3    H225041   2.468   0.886   1.305 -0.5305 -0.9876 -0.6695
 1184TIP3   OH225042   4.528   0.213  12.597 -0.2059 -0.0496  0.0550
 1184TIP3    H125043   4.617   0.195  12.628  0.3510  1.1549 -0.7353
 1184TIP3    H225044   4.478   0.235  12.675  0.7003  1.1451  0.3276
 1185TIP3   OH225045   1.273   0.378  13.579  0.1953 -0.4199 -0.5495
 1185TIP3    H125046   1.259   0.405  13.488 -0.8098  0.5155 -0.1450
 1185TIP3    H225047   1.227   0.445  13.631  0.1086 -1.3541  0.6140
 1186TIP3   OH225048   0.448   1.793   4.783 -0.4243  0.5817  0.0313
 1186TIP3    H125049   0.427   1.753   4.699 -0.2496  0.5459  0.0036
 1186TIP3    H225050   0.507   1.865   4.760  0.9922 -0.4741  0.2702
 1187TIP3   OH225051   0.530   5.217  13.347  0.3443  0.4862  0.0504
 1187TIP3    H125052   0.610   5.196  13.394  0.0282 -1.0404 -0.0483
 1187TIP3    H225053   0.487   5.282  13.402  0.3204 -0.7425  1.5631
 1188TIP3   OH225054   4.784   4.852   0.432 -0.1113  0.4594  0.1050
 1188TIP3    H125055   4.756   4.881   0.518  0.4342 -0.2840  0.5424
 1188TIP3    H225056   4.879   4.841   0.439 -0.0243  0.6374 -0.6669
 1189TIP3   OH225057   3.256   4.895  12.087 -0.1598  0.4829 -0.0565
 1189TIP3    H125058   3.268   4.971  12.145 -1.7228  0.9693 -0.3112
 1189TIP3    H225059   3.164   4.871  12.099 -0.9759  1.4543 -3.3183
 1190TIP3   OH225060   4.538   3.696  11.120 -0.2524 -0.1628  0.1108
 1190TIP3    H125061   4.520   3.606  11.146 -0.9147  0.4810  1.9865
 1190TIP3    H225062   4.516   3.699  11.027 -3.3244 -1.1728  0.7002
 1191TIP3   OH225063   2.401   6.636   5.719  0.0732  0.6763 -0.1356
 1191TIP3    H125064   2.461   6.701   5.753  0.6466  0.5546 -0.8752
 1191TIP3    H225065   2.388   6.574   5.791  1.8050  0.0398 -0.3365
 1192TIP3   OH225066   6.490   0.522   2.650  0.4805 -0.0337  0.1049
 1192TIP3    H125067   6.520   0.431   2.661  1.8068 -0.1114 -3.0715
 1192TIP3    H225068   6.564   0.575   2.677  1.0662 -0.0548 -1.3518
 1193TIP3   OH225069   4.908   3.821  15.978 -0.1111  0.1704  0.8863
 1193TIP3    H125070   4.871   3.769  15.907  1.5194  1.8395 -1.3178
 1193TIP3    H225071   4.850   3.896  15.986  1.4335  1.6639 -1.0560
 1194TIP3   OH225072   0.069   5.487  16.216 -0.2117  0.3698  0.3327
 1194TIP3    H125073   0.005   5.428  16.177 -1.3790  0.6432  1.7733
 1194TIP3    H225074   0.047   5.573  16.180 -1.2265  0.6056  1.4599
 1195TIP3   OH225075   0.830   5.261  11.411  0.2040 -0.2794  0.7716
 1195TIP3    H125076   0.877   5.275  11.493 -0.0653  0.9168  0.7432
 1195TIP3    H225077   0.893   5.284  11.343  0.3532 -1.0481  0.6407
 1196TIP3   OH225078   5.589   1.376  13.040  0.9541 -0.1939  0.0214
 1196TIP3    H125079   5.624   1.436  13.106  1.6457  1.3170 -1.6568
 1196TIP3    H225080   5.495   1.373  13.057  1.3063 -1.2837  2.1746
 1197TIP3   OH225081   1.250   0.996   0.577 -0.0857 -0.1652  0.0795
 1197TIP3    H125082   1.182   1.005   0.642 -0.4316  2.2796 -0.5169
 1197TIP3    H225083   1.314   1.063   0.599 -0.3280  0.9115 -2.1638
 1198TIP3   OH225084   2.791   2.235  11.155  0.1534 -0.0329 -0.8778
 1198TIP3    H125085   2.722   2.268  11.097  0.9779  1.9163 -0.8489
 1198TIP3    H225086   2.864   2.216  11.096 -0.0864 -1.2364 -0.8093
 1199TIP3   OH225087   5.133   3.519   0.269 -0.2536  0.4492  0.1669
 1199TIP3    H125088   5.223   3.538   0.242 -0.9604  0.4359 -2.5746
 1199TIP3    H225089   5.125   3.424   0.261 -0.8023  0.5575 -0.8605
 1200TIP3   OH225090   4.515   2.357   0.595 -0.1712 -0.2398  0.1805
 1200TIP3    H125091   4.575   2.418   0.551  0.1711 -0.3473  0.4971
 1200TIP3    H225092   4.481   2.302   0.525 -1.3634  1.0454 -0.2954
 1201TIP3   OH225093   0.109   4.764   5.870 -0.0968 -0.5373 -0.1092
 1201TIP3    H125094   0.107   4.798   5.960 -1.4221  1.0577 -0.7036
 1201TIP3    H225095   0.018   4.764   5.842  0.4107  0.3218 -1.9228
 1202TIP3   OH225096   4.818   3.496  16.541  0.1489 -0.5298 -0.4996
 1202TIP3    H125097   4.875   3.534  16.474 -0.4225 -1.6807 -1.6780
 1202TIP3    H225098   4.857   3.412  16.562 -1.1354 -1.3924 -1.4145
 1203TIP3   OH225099   2.989   0.222   3.548  0.5015 -0.4508  0.0054
 1203TIP3    H125100   3.018   0.313   3.541  0.0792 -0.3218 -0.1182
 1203TIP3    H225101   2.916   0.225   3.610  0.6092 -0.7358  0.1452
 1204TIP3   OH225102   2.145   5.229   1.430  0.6643 -0.2084  0.3692
 1204TIP3    H125103   2.117   5.287   1.359  5.2856  1.2602 -0.5863
 1204TIP3    H225104   2.152   5.143   1.390 -1.1745 -0.3950  0.3802
 1205TIP3   OH225105   3.075   2.311  15.683 -0.3999  0.2042 -0.0030
 1205TIP3    H125106   3.153   2.356  15.714 -1.4547  1.0487  1.5839
 1205TIP3    H225107   3.085   2.306  15.588  1.8473 -0.2844  0.2232
 1206TIP3   OH225108   0.911   3.262   5.144 -0.1545 -0.1715 -0.0506
 1206TIP3    H125109   0.826   3.236   5.179 -0.4687 -0.7564 -1.2115
 1206TIP3    H225110   0.905   3.358   5.138 -1.2523 -0.2903 -1.3654
 1207TIP3   OH225111   0.732   5.062   4.255  0.0708 -0.0469  0.0857
 1207TIP3    H125112   0.792   5.002   4.301 -0.1793 -0.0099  0.4598
 1207TIP3    H225113   0.665   5.005   4.218 -0.0128 -0.0225  0.2021
 1208TIP3   OH225114   3.019   4.723  12.894 -0.0884  0.3311 -0.1989
 1208TIP3    H125115   3.046   4.638  12.926  2.4988  1.4548  0.8558
 1208TIP3    H225116   3.032   4.718  12.799  0.5883 -0.2613 -0.0800
 1209TIP3   OH225117   5.002   5.616   5.441 -0.0322  0.4165 -0.4681
 1209TIP3    H125118   4.985   5.555   5.513 -1.8796 -0.4298 -1.5313
 1209TIP3    H225119   5.060   5.682   5.478 -1.0712  0.1206  1.8495
 1210TIP3   OH225120   3.944   0.428  16.328 -0.7634 -0.4706  0.2302
 1210TIP3    H125121   3.895   0.348  16.310 -0.5360 -0.6328  0.3272
 1210TIP3    H225122   4.026   0.397  16.367 -0.7446 -0.1806  0.4163
 1211TIP3   OH225123   2.268   1.125  14.956  0.2084  0.8635 -0.1728
 1211TIP3    H125124   2.347   1.130  14.902  0.4603  0.0388  0.1106
 1211TIP3    H225125   2.264   1.210  15.000  1.2188  0.7387  0.1855
 1212TIP3   OH225126   2.942   0.865   0.798  0.3998 -0.0504 -0.0583
 1212TIP3    H125127   3.015   0.815   0.763  0.8554  0.6746 -0.1676
 1212TIP3    H225128   2.981   0.921   0.864  0.0692  0.8558 -0.6118
 1213TIP3   OH225129   1.736   6.160   3.516 -0.0068 -0.0850  0.4468
 1213TIP3    H125130   1.651   6.143   3.474  0.3159  0.5279 -0.4844
 1213TIP3    H225131   1.731   6.252   3.541  0.8132  0.2706 -0.6545
 1214TIP3   OH225132   3.542   5.157  14.092  0.2167  0.5825 -0.0320
 1214TIP3    H125133   3.514   5.144  14.002  1.2574 -2.2558 -0.0683
 1214TIP3    H225134   3.635   5.181  14.086  0.4439 -0.1770  0.2558
 1215TIP3   OH225135   4.253   2.597  11.829  0.7329 -0.2971  0.6065
 1215TIP3    H125136   4.324   2.532  11.834  1.0347  0.0160  0.4141
 1215TIP3    H225137   4.199   2.579  11.907  1.3188 -0.1891  1.0460
 1216TIP3   OH225138   2.077   0.050  15.206  0.3662 -0.4252  0.0047
 1216TIP3    H125139   2.172   0.039  15.203  0.6274  1.4408 -0.1631
 1216TIP3    H225140   2.053   0.030  15.296  1.3350  1.6249  0.7765
 1217TIP3   OH225141   0.547   5.706   0.862  0.3928  0.0235 -0.2522
 1217TIP3    H125142   0.616   5.656   0.907  0.3044  0.1297  0.0061
 1217TIP3    H225143   0.557   5.795   0.897 -0.6168 -0.2051  0.6523
 1218TIP3   OH225144   5.478   2.680   2.486 -0.6398 -0.2887  0.0575
 1218TIP3    H125145   5.528   2.677   2.568  0.5333  1.4374 -0.5423
 1218TIP3    H225146   5.429   2.762   2.491  0.5449  0.5688 -1.5309
 1219TIP3   OH225147   1.586   1.730  12.201 -0.0147 -0.0108 -0.3950
 1219TIP3    H125148   1.553   1.688  12.121 -0.0658 -1.3354  0.3058
 1219TIP3    H225149   1.523   1.801  12.217 -0.5679 -0.3528 -0.9815
 1220TIP3   OH225150   6.411   3.478  11.900  0.1352  0.6436  0.3013
 1220TIP3    H125151   6.424   3.476  11.806  1.5312 -1.5488  0.4649
 1220TIP3    H225152   6.467   3.550  11.931  0.1516  0.9677 -0.4668
 1221TIP3   OH225153   5.464   6.808  10.797 -0.1048  0.0739  0.3198
 1221TIP3    H125154   5.507   6.736  10.842 -0.4399  0.0821  0.6685
 1221TIP3    H225155   5.498   6.806  10.708 -0.3184 -0.6832  0.2516
 1222TIP3   OH225156   3.460   6.353   4.195  0.4003 -0.2498 -0.7052
 1222TIP3    H125157   3.375   6.374   4.157  0.9240  0.6004 -1.4698
 1222TIP3    H225158   3.483   6.431   4.247  0.8799 -0.3093 -0.8196
 1223TIP3   OH225159   2.735   2.085   4.561 -0.0383  0.2707  0.8629
 1223TIP3    H125160   2.732   2.087   4.465  0.4181 -0.1456  0.8342
 1223TIP3    H225161   2.643   2.083   4.588 -0.3136 -3.7122  0.3189
 1224TIP3   OH225162   0.540   4.175   4.846  0.0237 -0.3873 -0.2860
 1224TIP3    H125163   0.469   4.235   4.870  0.0285 -0.7689  0.7025
 1224TIP3    H225164   0.576   4.146   4.929  0.9462 -0.6780 -0.7768
 1225TIP3   OH225165   4.249   3.936   3.621  0.6760 -0.4135  0.4593
 1225TIP3    H125166   4.290   3.860   3.664  3.4544  1.2973  1.0891
 1225TIP3    H225167   4.185   3.897   3.562  1.6707 -3.2553  1.0461
 1226TIP3   OH225168   3.977   3.401  16.107 -0.1431 -0.7476 -0.7348
 1226TIP3    H125169   3.882   3.416  16.104 -0.4418 -2.5519 -1.6622
 1226TIP3    H225170   4.007   3.424  16.020  0.8809  2.9152  0.4180
 1227TIP3   OH225171   0.015   2.346  12.484  0.3287  0.4106 -0.3128
 1227TIP3    H125172  -0.066   2.329  12.436  0.5349 -0.1427 -0.4677
 1227TIP3    H225173   0.069   2.397  12.423  0.1739  0.6142 -0.2799
 1228TIP3   OH225174   2.736   5.708  15.030  0.2135  0.8390  0.5237
 1228TIP3    H125175   2.825   5.740  15.013  0.4487 -0.1396 -0.1753
 1228TIP3    H225176   2.719   5.645  14.959 -0.1970 -0.6713  1.9193
 1229TIP3   OH225177   0.460   3.064  16.791 -0.4486  0.0946  0.4900
 1229TIP3    H125178   0.386   3.118  16.766 -0.8109 -0.2425  0.8120
 1229TIP3    H225179   0.507   3.115  16.857  0.1763  0.7341 -0.4326
 1230TIP3   OH225180   2.794   6.637  12.777 -0.5534 -0.6287 -0.2053
 1230TIP3    H125181   2.730   6.606  12.714  0.3816 -3.9462  0.3046
 1230TIP3    H225182   2.854   6.691  12.725 -1.4612 -0.8460 -1.5270
 1231TIP3   OH225183   4.036   3.847   3.498  0.1927 -0.5471 -0.0310
 1231TIP3    H125184   4.039   3.765   3.448 -0.1389  0.1580 -1.2437
 1231TIP3    H225185   3.944   3.862   3.515 -0.0755  1.1354 -2.5442
 1232TIP3   OH225186   0.498   6.695   2.452 -0.3880  0.6880  0.1101
 1232TIP3    H125187   0.482   6.633   2.381 -0.9350  1.2809 -0.2871
 1232TIP3    H225188   0.575   6.744   2.425 -0.5141  0.8206 -0.0043
 1233TIP3   OH225189   5.229   5.470   4.870  0.4512 -0.1770 -0.4017
 1233TIP3    H125190   5.215   5.559   4.902  3.0471 -0.7581  2.8488
 1233TIP3    H225191   5.321   5.468   4.843 -0.0249 -1.4936 -2.1559
 1234TIP3   OH225192   4.152   2.967   6.229  0.0429 -0.0665  0.2258
 1234TIP3    H125193   4.243   2.950   6.206  0.3941 -0.9736  2.0274
 1234TIP3    H225194   4.155   2.998   6.320 -1.2966  2.1307 -0.4003
 1235TIP3   OH225195   6.805   4.956  11.817  0.4863  0.3492 -0.2939
 1235TIP3    H125196   6.831   4.907  11.738  2.1984  1.9774 -0.7879
 1235TIP3    H225197   6.886   4.969  11.865  0.0294  2.4330 -0.0293
 1236TIP3   OH225198   4.885   5.886   6.191  0.1092 -0.2512  0.2626
 1236TIP3    H125199   4.972   5.889   6.231  0.2882 -1.4090  0.0012
 1236TIP3    H225200   4.886   5.955   6.125  0.4559  0.4515  0.9985
 1237TIP3   OH225201   3.226   4.944  14.064 -0.5091  0.2564  0.2517
 1237TIP3    H125202   3.164   4.930  14.135  0.0878 -0.5773  0.6227
 1237TIP3    H225203   3.181   4.912  13.986 -0.6283 -0.1292  0.4795
 1238TIP3   OH225204   1.941   4.712   4.484  0.1560 -0.3092  0.1431
 1238TIP3    H125205   2.010   4.652   4.457  0.8102  0.2066  0.6172
 1238TIP3    H225206   1.861   4.677   4.446  0.6058 -1.1990  0.0081
 1239TIP3   OH225207   1.616   3.540   4.923  0.0678  0.0397 -0.4436
 1239TIP3    H125208   1.607   3.459   4.972 -1.6335 -0.0790 -0.8959
 1239TIP3    H225209   1.527   3.562   4.895  0.5493  1.8119 -0.7378
 1240TIP3   OH225210   1.635   5.392   2.869 -0.2469 -0.4781 -0.5875
 1240TIP3    H125211   1.704   5.455   2.847  0.8704 -1.1724  0.7706
 1240TIP3    H225212   1.555   5.445   2.873  0.7160  0.9668  0.8756
 1241TIP3   OH225213   4.696   4.065   6.066 -0.3545 -0.5081 -0.3282
 1241TIP3    H125214   4.619   4.103   6.109  0.5359  1.6742 -0.5743
 1241TIP3    H225215   4.754   4.040   6.139 -0.5435 -0.5247 -0.1822
 1242TIP3   OH225216   1.269   4.718   6.145 -0.1662  0.0975 -0.8744
 1242TIP3    H125217   1.238   4.735   6.056  0.1369  0.8521 -0.8440
 1242TIP3    H225218   1.275   4.623   6.150  0.8189  0.0785 -2.0095
 1243TIP3   OH225219   2.444   6.379  14.526 -0.0494 -0.2083 -0.0026
 1243TIP3    H125220   2.438   6.475  14.531  0.6156 -0.2225  1.3779
 1243TIP3    H225221   2.449   6.350  14.617  1.5977 -1.4273 -0.4329
 1244TIP3   OH225222   6.314   2.347   3.801  0.0582 -0.4428 -0.1144
 1244TIP3    H125223   6.325   2.260   3.839 -0.1424 -0.8405 -0.9439
 1244TIP3    H225224   6.225   2.348   3.766  0.1100  0.0476 -0.2500
 1245TIP3   OH225225   0.536   2.519  11.959 -0.2996  0.4027  0.3993
 1245TIP3    H125226   0.472   2.463  12.003  0.3508  1.8912  3.4735
 1245TIP3    H225227   0.507   2.520  11.868 -1.7570 -2.8735  0.6492
 1246TIP3   OH225228   6.131   3.473   2.273 -0.5845 -0.2279 -0.0092
 1246TIP3    H125229   6.088   3.531   2.209  0.4780 -1.1007 -1.5859
 1246TIP3    H225230   6.214   3.515   2.291 -0.4304 -0.5220 -0.0340
 1247TIP3   OH225231   6.732   3.928   2.401 -0.3280 -0.0594 -0.0440
 1247TIP3    H125232   6.666   3.860   2.384  0.3854 -0.8530  0.2706
 1247TIP3    H225233   6.689   3.989   2.460 -0.4035 -1.2228  1.1536
 1248TIP3   OH225234   2.869   3.279   1.020  0.1522  0.2825  0.2368
 1248TIP3    H125235   2.791   3.317   1.059 -1.3756 -0.5725 -1.8104
 1248TIP3    H225236   2.861   3.185   1.037  1.2865  0.2962  0.9121
 1249TIP3   OH225237   3.169   1.165   2.373  0.2738 -0.2793 -0.1824
 1249TIP3    H125238   3.228   1.187   2.301  0.2136  1.3172  0.2230
 1249TIP3    H225239   3.225   1.119   2.436  1.1467  1.2283  0.1990
 1250TIP3   OH225240   6.549   3.041  15.033 -0.7700 -0.2270 -0.2436
 1250TIP3    H125241   6.545   2.999  14.947 -2.2729 -2.1321  0.6625
 1250TIP3    H225242   6.471   3.009  15.078 -0.6179  1.6175  1.4556
 1251TIP3   OH225243   3.511   2.920  17.265 -0.7691  0.3829  0.1955
 1251TIP3    H125244   3.556   2.912  17.349  0.3992  0.5290 -0.3999
 1251TIP3    H225245   3.420   2.936  17.289 -0.3410  1.1227  1.4420
 1252TIP3   OH225246   1.715   2.434   2.438  0.4964  0.1493  0.2659
 1252TIP3    H125247   1.707   2.393   2.352 -1.1394  1.0886 -0.0936
 1252TIP3    H225248   1.686   2.367   2.500  2.3345 -0.7660  0.1997
 1253TIP3   OH225249   4.494   6.320   3.151 -0.5412  0.0495  0.4239
 1253TIP3    H125250   4.413   6.282   3.186 -1.4298  0.8974 -0.6579
 1253TIP3    H225251   4.558   6.249   3.157 -1.6444 -0.9887  0.3150
 1254TIP3   OH225252   3.737   1.714  16.577 -0.2001  0.3293  0.0139
 1254TIP3    H125253   3.775   1.637  16.621  0.4141  0.5267 -0.1645
 1254TIP3    H225254   3.770   1.708  16.487  1.0564  1.5903  0.3615
 1255TIP3   OH225255   4.375   4.435  15.905 -0.4299  0.2135 -0.3463
 1255TIP3    H125256   4.378   4.430  15.810 -0.3631 -1.3057 -0.2883
 1255TIP3    H225257   4.461   4.467  15.931  0.0143 -0.6400 -0.7431
 1256TIP3   OH225258   1.634   5.856  17.050 -0.2238 -0.2392  0.0255
 1256TIP3    H125259   1.628   5.927  17.114 -0.5028 -0.9289  0.7779
 1256TIP3    H225260   1.728   5.849  17.031 -0.1479  0.0071  0.3065
 1257TIP3   OH225261   2.055   1.492  15.014  0.1118 -0.2767 -0.5697
 1257TIP3    H125262   1.982   1.536  14.970 -1.7690 -1.4107  1.2379
 1257TIP3    H225263   2.021   1.406  15.037  2.2665 -1.0913 -0.2061
 1258TIP3   OH225264   3.163   2.425   4.137 -0.0538  0.1435  0.1142
 1258TIP3    H125265   3.092   2.489   4.145 -1.1686 -1.1344  0.7893
 1258TIP3    H225266   3.234   2.463   4.189 -1.0163  0.4335  1.2693
 1259TIP3   OH225267   0.178   1.561   4.600 -0.2913  0.0856  0.3043
 1259TIP3    H125268   0.187   1.469   4.578 -1.1723 -0.1312  0.7866
 1259TIP3    H225269   0.112   1.563   4.670  1.5402  0.8352  2.1114
 1260TIP3   OH225270   6.261   2.348  10.954  0.0101 -0.7706  0.1863
 1260TIP3    H125271   6.216   2.401  10.888 -1.0808 -0.3688  1.2139
 1260TIP3    H225272   6.239   2.390  11.037  0.0456 -2.2041  0.9418
 1261TIP3   OH225273   2.130   3.193  11.125 -0.0170  0.1696  0.1450
 1261TIP3    H125274   2.075   3.244  11.066 -1.5599 -1.5311  0.0391
 1261TIP3    H225275   2.069   3.139  11.175  1.4966 -1.2172  0.5929
 1262TIP3   OH225276   3.883   1.614  15.752  0.2092  0.1590 -0.3185
 1262TIP3    H125277   3.891   1.688  15.692  0.0629 -1.0567 -1.8960
 1262TIP3    H225278   3.847   1.652  15.832 -0.7860  1.6375 -1.4131
 1263TIP3   OH225279   1.783   3.555   4.265 -0.7106  0.4309  0.5287
 1263TIP3    H125280   1.708   3.501   4.241 -0.7509 -0.2937  2.1508
 1263TIP3    H225281   1.746   3.643   4.277 -1.0266  0.3841 -0.0555
 1264TIP3   OH225282   1.772   0.324   5.630  0.8030  0.0585 -0.2300
 1264TIP3    H125283   1.858   0.287   5.611  0.2093 -1.4282 -0.1363
 1264TIP3    H225284   1.719   0.249   5.656  0.1945  1.2827  2.3843
 1265TIP3   OH225285   0.638   0.196   0.433  0.1596  0.0535  0.6053
 1265TIP3    H125286   0.582   0.118   0.429 -0.1197  0.2847 -0.3183
 1265TIP3    H225287   0.720   0.169   0.392  0.4679 -0.0801  1.3129
 1266TIP3   OH225288   1.282   1.778  13.537 -0.3207  0.3232 -0.0433
 1266TIP3    H125289   1.273   1.873  13.541 -1.4329  0.2572 -0.6438
 1266TIP3    H225290   1.226   1.746  13.608 -0.3984  0.0958 -0.2067
 1267TIP3   OH225291   1.507   5.522   3.798  0.6353  0.1892 -0.2805
 1267TIP3    H125292   1.532   5.562   3.714  0.5970  0.1187 -0.3252
 1267TIP3    H225293   1.516   5.593   3.861 -0.7346  0.6570 -0.5617
 1268TIP3   OH225294   2.127   3.043  16.823 -0.0271 -0.3379 -0.1847
 1268TIP3    H125295   2.053   3.083  16.776 -0.0560  0.6088  0.6355
 1268TIP3    H225296   2.135   2.956  16.784 -1.9031 -0.6573  0.0399
 1269TIP3   OH225297   1.084   6.408  14.761  0.1245  0.4750  0.5652
 1269TIP3    H125298   1.012   6.376  14.707 -0.1115  0.9337  0.6014
 1269TIP3    H225299   1.155   6.423  14.699 -0.9169  3.4349 -0.0977
 1270TIP3   OH225300   5.019   1.051   4.106  0.1731  0.0885 -0.2986
 1270TIP3    H125301   5.020   1.000   4.025 -2.3655  1.0282 -1.0061
 1270TIP3    H225302   5.065   1.131   4.085 -1.3721  0.7843 -1.2128
 1271TIP3   OH225303   4.210   4.862  15.236 -0.6000 -0.8232  0.0097
 1271TIP3    H125304   4.276   4.917  15.194  0.8160 -1.0082  1.8667
 1271TIP3    H225305   4.260   4.795  15.283 -2.0615 -0.8423  1.6838
 1272TIP3   OH225306   4.203   5.234   1.596 -0.7512  0.1633  0.2142
 1272TIP3    H125307   4.258   5.186   1.534 -0.5009  0.2482  0.3717
 1272TIP3    H225308   4.219   5.191   1.680 -1.8629 -0.6215  0.0579
 1273TIP3   OH225309   3.717   1.760   4.388  0.0317  0.1691 -0.5807
 1273TIP3    H125310   3.624   1.772   4.408  0.2012  0.5265  0.0357
 1273TIP3    H225311   3.726   1.791   4.298 -0.4834 -0.0721 -0.7196
 1274TIP3   OH225312   6.665   0.790  14.245  0.0877 -0.2615  0.4220
 1274TIP3    H125313   6.686   0.701  14.273  0.0242 -0.5224 -0.3277
 1274TIP3    H225314   6.587   0.813  14.294  0.1348 -0.5995  0.6595
 1275TIP3   OH225315   2.832   1.966   2.745 -0.0696  0.1462  0.3125
 1275TIP3    H125316   2.853   1.881   2.705  0.9638 -0.1944  1.4963
 1275TIP3    H225317   2.820   2.025   2.672  0.0117 -0.8423 -0.5225
 1276TIP3   OH225318   4.869   0.188  13.361 -0.1195 -0.8453  0.4277
 1276TIP3    H125319   4.824   0.107  13.385 -0.1354 -1.0393 -0.2202
 1276TIP3    H225320   4.897   0.173  13.270 -1.8040  0.6004 -0.3798
 1277TIP3   OH225321   3.935   4.033   5.593 -0.1235  0.1178 -0.1169
 1277TIP3    H125322   3.976   4.015   5.508 -1.4390  0.3052 -0.8230
 1277TIP3    H225323   3.979   3.975   5.654  1.0702  0.2014 -0.8678
 1278TIP3   OH225324   3.811   3.493   0.255 -0.0122  0.2834 -0.1551
 1278TIP3    H125325   3.767   3.541   0.325  1.5378 -0.8249  1.6455
 1278TIP3    H225326   3.853   3.561   0.203  0.1125  1.0472  0.9071
 1279TIP3   OH225327   5.380   6.033  11.439 -0.5188  0.1689  0.2626
 1279TIP3    H125328   5.289   6.055  11.423 -0.2863  0.6828 -0.3785
 1279TIP3    H225329   5.395   5.953  11.389 -0.2504  0.8419 -0.7427
 1280TIP3   OH225330   6.345   4.427   5.444 -0.3811 -0.5260 -0.6570
 1280TIP3    H125331   6.255   4.447   5.421 -0.4070 -1.2160 -1.2144
 1280TIP3    H225332   6.387   4.512   5.459 -1.1425 -0.2111 -0.3062
 1281TIP3   OH225333   4.331   0.687   4.974 -0.1384  0.1109  0.0550
 1281TIP3    H125334   4.373   0.734   4.902 -1.0945 -0.3856 -0.8539
 1281TIP3    H225335   4.259   0.744   5.001 -1.7381 -1.0544 -1.5128
 1282TIP3   OH225336   4.187   3.580  11.523 -0.3901  0.2235 -0.1502
 1282TIP3    H125337   4.100   3.562  11.487 -0.6751 -0.3003  0.7493
 1282TIP3    H225338   4.244   3.590  11.447 -0.7444 -1.9481 -0.7569
 1283TIP3   OH225339   3.489   1.333  14.747  0.2366 -0.2502  0.3355
 1283TIP3    H125340   3.474   1.422  14.715 -0.6267 -1.1607 -2.0179
 1283TIP3    H225341   3.486   1.278  14.669 -0.5500 -2.5185  1.8431
 1284TIP3   OH225342   6.573   4.733  12.232 -0.7411 -0.5842 -0.6002
 1284TIP3    H125343   6.659   4.706  12.199 -0.2860  1.5817 -1.3708
 1284TIP3    H225344   6.515   4.724  12.156 -1.3743 -2.5040  0.0416
 1285TIP3   OH225345   1.140   0.525  16.602  0.3423  0.0152 -0.3240
 1285TIP3    H125346   1.212   0.464  16.586  0.0045 -0.5203  0.1234
 1285TIP3    H225347   1.062   0.468  16.607 -0.0826  0.5632 -0.6242
 1286TIP3   OH225348   6.267   4.107  13.450 -0.2190 -0.1621 -0.2115
 1286TIP3    H125349   6.309   4.169  13.390 -0.6730  1.7547  1.3708
 1286TIP3    H225350   6.191   4.154  13.484 -0.7993 -1.7381  0.7902
 1287TIP3   OH225351   3.696   5.828  12.098 -0.3800  0.2213 -0.2507
 1287TIP3    H125352   3.776   5.783  12.073 -1.0286 -0.5203 -1.0329
 1287TIP3    H225353   3.668   5.875  12.019 -1.8771 -1.2939 -0.6738
 1288TIP3   OH225354   3.302   1.877   0.167  0.3142 -0.2370 -0.0055
 1288TIP3    H125355   3.325   1.822   0.241 -0.3545 -0.6928 -0.1214
 1288TIP3    H225356   3.245   1.822   0.113 -0.4963  0.6079 -0.0459
 1289TIP3   OH225357   5.585   6.307  14.384 -0.8446  0.5516  0.3919
 1289TIP3    H125358   5.573   6.400  14.403 -0.3535  1.0990 -1.6680
 1289TIP3    H225359   5.581   6.264  14.469  0.2668  2.6022  1.5598
 1290TIP3   OH225360   4.742   2.170   3.996 -0.5889  0.0897  0.0682
 1290TIP3    H125361   4.773   2.128   3.916  0.6676 -1.9573  1.5240
 1290TIP3    H225362   4.648   2.150   3.999 -0.9048  1.2156 -1.4324
 1291TIP3   OH225363   6.281   5.649   0.921  0.0707 -0.0174  0.4600
 1291TIP3    H125364   6.265   5.741   0.900 -0.0539 -0.2001 -0.2891
 1291TIP3    H225365   6.368   5.631   0.885 -1.2281 -1.0652 -2.5478
 1292TIP3   OH225366   0.468   1.174  11.504  0.4242  0.3449 -0.1421
 1292TIP3    H125367   0.476   1.217  11.590 -0.1839  0.3324 -0.0759
 1292TIP3    H225368   0.447   1.244  11.444  0.0518  0.2364 -0.1407
 1293TIP3   OH225369   4.693   4.960   4.235  0.5430 -0.6166 -0.6340
 1293TIP3    H125370   4.762   4.970   4.301 -0.8550  0.5449  0.7057
 1293TIP3    H225371   4.612   4.951   4.285 -0.6576  1.0123 -2.1641
 1294TIP3   OH225372   4.361   0.585   0.429  0.4268  0.8570 -0.2938
 1294TIP3    H125373   4.326   0.497   0.443  0.5964  0.9410  0.7844
 1294TIP3    H225374   4.337   0.633   0.508  0.2318  1.8215 -0.9226
 1295TIP3   OH225375   4.391   0.060  16.851  0.0618 -0.1012 -0.0229
 1295TIP3    H125376   4.329   0.085  16.919  0.0738 -1.0200  0.3410
 1295TIP3    H225377   4.476   0.055  16.896  0.3861  0.9600 -0.4764
 1296TIP3   OH225378   5.914   2.796   2.916  0.4435  0.3333 -0.1007
 1296TIP3    H125379   5.963   2.796   2.834 -0.8164  0.9933 -0.8911
 1296TIP3    H225380   5.888   2.887   2.929 -1.3138 -0.0989 -0.2184
 1297TIP3   OH225381   4.065   4.162  15.437 -0.6795  0.5159  0.1006
 1297TIP3    H125382   4.118   4.161  15.517  2.0372 -1.3904 -1.5361
 1297TIP3    H225383   4.038   4.071  15.425 -0.8888  0.7303 -1.2308
 1298TIP3   OH225384   1.617   1.606  10.174 -0.5979  0.1858  0.0172
 1298TIP3    H125385   1.649   1.604  10.084 -3.1993  0.0921 -0.9727
 1298TIP3    H225386   1.625   1.516  10.205 -3.1901 -0.6688 -1.5160
 1299TIP3   OH225387   0.320   2.597   6.632 -0.5541 -0.1590  0.5842
 1299TIP3    H125388   0.261   2.522   6.627  0.0372 -0.5614 -1.0041
 1299TIP3    H225389   0.405   2.563   6.603  0.2314  0.6467  1.8577
 1300TIP3   OH225390   3.277   4.769   4.372 -0.3143  0.2437  0.6030
 1300TIP3    H125391   3.201   4.735   4.419  0.4869 -0.5051  1.3843
 1300TIP3    H225392   3.275   4.723   4.288 -0.9377  0.5262  0.4532
 1301TIP3   OH225393   3.262   6.308  13.676  0.4017  0.1309 -0.0539
 1301TIP3    H125394   3.228   6.219  13.687 -3.4612  1.3720 -0.3795
 1301TIP3    H225395   3.267   6.320  13.581  1.3190  0.1523 -0.0083
 1302TIP3   OH225396   1.450   2.041  17.232 -0.7162 -0.4745  0.3418
 1302TIP3    H125397   1.463   2.104  17.304  1.4458 -0.8303  0.3196
 1302TIP3    H225398   1.402   1.968  17.273 -1.9247  0.4930  0.7239
 1303TIP3   OH225399   0.148   3.147  17.055  0.0547  0.0586 -0.3503
 1303TIP3    H125400   0.131   3.222  17.112  1.3817  0.8192 -0.9028
 1303TIP3    H225401   0.142   3.183  16.966 -0.0444 -0.6606 -0.6410
 1304TIP3   OH225402   2.674   4.740   5.973  0.5752 -0.2908  0.2970
 1304TIP3    H125403   2.646   4.665   6.024  0.2464 -0.3324  0.0552
 1304TIP3    H225404   2.670   4.814   6.034  0.2520 -0.3522  0.3512
 1305TIP3   OH225405   5.546   1.981  10.892  0.3980  0.1970 -0.1646
 1305TIP3    H125406   5.603   1.987  10.816  1.4179 -1.8190  0.3511
 1305TIP3    H225407   5.484   2.053  10.882  1.5567  1.0141 -1.9883
 1306TIP3   OH225408   0.675   2.010  16.844  0.3065 -0.1390  0.0931
 1306TIP3    H125409   0.620   2.028  16.921 -0.4037  0.3331 -0.5079
 1306TIP3    H225410   0.675   2.093  16.795 -0.9639 -0.9973 -1.4597
 1307TIP3   OH225411   6.697   6.278  11.901 -0.4612  0.5334  0.5984
 1307TIP3    H125412   6.713   6.233  11.984 -1.7417 -1.4058 -0.1512
 1307TIP3    H225413   6.654   6.360  11.926 -0.6846  0.0551  1.8536
 1308TIP3   OH225414   4.995   2.084  14.523 -0.1681 -0.4541 -0.4072
 1308TIP3    H125415   4.915   2.085  14.576  0.0269 -1.9261 -0.0602
 1308TIP3    H225416   5.044   2.009  14.554  1.2051  0.2167 -0.8709
 1309TIP3   OH225417   4.976   0.337   0.935 -0.2655 -0.0687  0.4664
 1309TIP3    H125418   5.065   0.371   0.923  0.1505 -1.5684 -1.1595
 1309TIP3    H225419   4.923   0.385   0.871 -0.0061 -1.2070 -0.6448
 1310TIP3   OH225420   5.087   3.016  11.651 -0.2088 -0.0176  0.2026
 1310TIP3    H125421   5.127   2.939  11.611  2.2014  1.1161  0.2466
 1310TIP3    H225422   5.020   2.981  11.709  0.9367 -2.0945  0.3545
 1311TIP3   OH225423   0.147   5.840  17.222  0.1529 -0.6852 -1.1720
 1311TIP3    H125424   0.223   5.789  17.195  1.3321  2.0135 -3.5427
 1311TIP3    H225425   0.110   5.872  17.139 -3.1632 -1.2698 -0.0548
 1312TIP3   OH225426   4.008   0.333   2.620  0.1243 -0.1413 -0.4311
 1312TIP3    H125427   4.056   0.365   2.544  3.6456 -3.7571 -0.1289
 1312TIP3    H225428   3.949   0.266   2.585  1.3489 -1.4173 -0.1647
 1313TIP3   OH225429   6.235   6.027  14.345  0.1290  0.4359  0.0778
 1313TIP3    H125430   6.202   6.111  14.378  1.3504  0.5095  1.2132
 1313TIP3    H225431   6.324   6.021  14.382  0.4398 -0.8818 -0.8321
 1314TIP3   OH225432   6.492   1.027  13.627  0.0874 -0.7103 -0.1006
 1314TIP3    H125433   6.479   1.027  13.532  1.0288 -0.4061 -0.2451
 1314TIP3    H225434   6.515   0.937  13.648 -0.4742 -0.8592 -0.0993
 1315TIP3   OH225435   3.085   0.087  13.490  0.9658  0.0124  0.3836
 1315TIP3    H125436   3.155   0.031  13.456 -0.1823 -1.1711 -0.1324
 1315TIP3    H225437   3.041   0.121  13.412  1.3632  1.2854  0.7006
 1316TIP3   OH225438   5.807   2.342   2.522 -0.1258 -0.0320 -0.3376
 1316TIP3    H125439   5.811   2.269   2.584 -1.3685 -0.6850 -0.9813
 1316TIP3    H225440   5.846   2.415   2.569  0.2212 -0.8561  0.7040
 1317TIP3   OH225441   1.258   0.402   3.754  0.1273  0.3731 -0.1497
 1317TIP3    H125442   1.262   0.306   3.749  0.1903  0.3873 -0.3994
 1317TIP3    H225443   1.199   0.427   3.683  0.8498  0.5745 -0.6977
 1318TIP3   OH225444   4.236   6.140   4.945 -0.3521 -0.0188 -0.5927
 1318TIP3    H125445   4.210   6.133   5.037  0.3981  1.0245 -0.2837
 1318TIP3    H225446   4.332   6.141   4.947 -0.3279  0.8864 -1.2897
 1319TIP3   OH225447   0.050   2.330   0.231 -0.5069  0.5625  0.1720
 1319TIP3    H125448   0.041   2.252   0.285 -1.1520  0.8953  0.5615
 1319TIP3    H225449   0.067   2.297   0.143 -0.5655 -0.0049  0.3690
 1320TIP3   OH225450   5.135   2.855   0.998  0.2971 -0.2283 -0.0058
 1320TIP3    H125451   5.193   2.800   0.945  1.3128  0.8307 -0.0556
 1320TIP3    H225452   5.191   2.886   1.069 -0.2833  0.6109  0.0979
 1321TIP3   OH225453   2.956   3.971  14.826  0.0786 -0.3334  0.1399
 1321TIP3    H125454   2.943   3.903  14.760  1.3586 -2.1361  1.6349
 1321TIP3    H225455   2.973   4.050  14.775  0.3383 -1.4960 -1.6849
 1322TIP3   OH225456   1.905   6.674   0.159 -0.0954 -0.4609 -0.2857
 1322TIP3    H125457   1.937   6.751   0.204 -1.4053 -0.2360  0.3028
 1322TIP3    H225458   1.935   6.600   0.213  0.3024 -0.3176 -0.3087
 1323TIP3   OH225459   5.565   4.188  15.513 -0.1066 -0.1238  0.5777
 1323TIP3    H125460   5.496   4.215  15.452  0.1746  1.5607  0.9374
 1323TIP3    H225461   5.634   4.254  15.502  1.0777 -1.2682  0.8668
 1324TIP3   OH225462   4.454   1.298   2.106 -0.2005  0.7600 -0.0884
 1324TIP3    H125463   4.453   1.213   2.062 -1.3411 -0.2476  1.7675
 1324TIP3    H225464   4.531   1.295   2.162 -0.5541  0.7083  0.4014
 1325TIP3   OH225465   6.272   0.748  10.773 -0.0247 -0.7342  0.1470
 1325TIP3    H125466   6.313   0.668  10.742  1.8432  0.4770 -0.7196
 1325TIP3    H225467   6.322   0.818  10.732 -0.0499  0.9292  2.7363
 1326TIP3   OH225468   4.026   6.061  16.444 -0.0316  0.1968  0.0784
 1326TIP3    H125469   3.963   6.126  16.474 -1.8941 -1.6941  0.4698
 1326TIP3    H225470   4.083   6.109  16.383 -2.8294  1.6390 -1.5941
 1327TIP3   OH225471   0.328   3.678   6.276 -0.0951  0.1118 -0.2680
 1327TIP3    H125472   0.309   3.726   6.356 -2.7759  0.1016 -0.8202
 1327TIP3    H225473   0.424   3.674   6.273  0.1691  2.7928  1.3173
 1328TIP3   OH225474   3.236   4.843  16.187  0.4503  0.0016  0.1162
 1328TIP3    H125475   3.315   4.873  16.141  1.3547 -0.3813  1.3701
 1328TIP3    H225476   3.257   4.754  16.215 -0.3341 -0.0082  0.6920
 1329TIP3   OH225477   3.151   3.011  15.141  0.6177  0.7016 -0.2306
 1329TIP3    H125478   3.235   3.043  15.107  0.3801 -0.1775 -1.7389
 1329TIP3    H225479   3.101   2.988  15.063 -0.0341 -1.2883  0.7023
 1330TIP3   OH225480   1.484   2.237  13.394  0.4248  0.4079  0.1605
 1330TIP3    H125481   1.564   2.219  13.444  0.6419 -2.3691 -1.0330
 1330TIP3    H225482   1.504   2.207  13.306 -2.4812 -2.0942  0.2156
 1331TIP3   OH225483   3.010   4.271   4.873 -0.3343  0.4463 -0.6532
 1331TIP3    H125484   2.928   4.299   4.912  0.5893 -0.4519  2.1398
 1331TIP3    H225485   3.066   4.249   4.947  2.2354  0.4285 -2.4728
 1332TIP3   OH225486   4.870   4.227  11.665 -0.1105 -0.1307 -0.6924
 1332TIP3    H125487   4.872   4.232  11.569  0.2606  1.8748 -0.6259
 1332TIP3    H225488   4.777   4.222  11.687 -0.3168  1.3364 -1.1300
 1333TIP3   OH225489   3.702   6.727  17.019 -0.2081 -0.4941 -0.5289
 1333TIP3    H125490   3.703   6.745  16.925  1.2212  1.1757 -0.2409
 1333TIP3    H225491   3.648   6.796  17.056  0.9168  0.1055  0.0531
 1334TIP3   OH225492   1.854   2.727   6.786  0.6467 -0.4024  0.0393
 1334TIP3    H125493   1.784   2.712   6.849 -1.0531  0.2330 -1.6137
 1334TIP3    H225494   1.877   2.639   6.755 -2.2336 -0.5505 -2.2101
 1335TIP3   OH225495   4.854   3.661  12.276 -0.7313  0.5456  0.0421
 1335TIP3    H125496   4.785   3.638  12.213 -0.8877  0.2161  0.3340
 1335TIP3    H225497   4.832   3.751  12.303 -1.4579  0.1885  0.6702
 1336TIP3   OH225498   5.516   3.471   2.173 -0.3119  0.5449 -0.4801
 1336TIP3    H125499   5.483   3.412   2.104  1.1248 -1.1478  0.1985
 1336TIP3    H225500   5.578   3.418   2.222 -0.8206  1.8989  1.7736
 1337TIP3   OH225501   3.074   3.183   2.808  0.2198  0.0308  0.1577
 1337TIP3    H125502   3.008   3.139   2.862  0.3077  2.4120  2.4181
 1337TIP3    H225503   3.157   3.145   2.836  0.1225  0.0429  0.4727
 1338TIP3   OH225504   3.998   4.984   5.410  0.5830 -0.0425  0.5594
 1338TIP3    H125505   3.941   4.917   5.371 -1.1812  0.7544  1.6355
 1338TIP3    H225506   4.015   4.952   5.499 -0.7088  1.1174  1.2681
 1339TIP3   OH225507   2.978   0.669  12.638  0.6048  0.5683  0.7362
 1339TIP3    H125508   3.053   0.728  12.632 -0.4994  1.9867  0.4638
 1339TIP3    H225509   2.996   0.601  12.573  1.0112  1.6554 -0.3326
 1340TIP3   OH225510   3.760   4.438   0.571  0.4133 -0.1065  0.5583
 1340TIP3    H125511   3.709   4.382   0.629 -0.3469  0.9382  0.9378
 1340TIP3    H225512   3.842   4.391   0.557 -0.8782 -2.1903 -0.6174
 1341TIP3   OH225513   4.742   4.549   2.197 -0.1227  0.2419 -0.0560
 1341TIP3    H125514   4.784   4.478   2.148 -0.4401  0.5870 -0.8417
 1341TIP3    H225515   4.651   4.520   2.206 -0.2451  0.5216 -0.3488
 1342TIP3   OH225516   5.502   3.641   3.211 -0.6881 -0.2722  0.1216
 1342TIP3    H125517   5.571   3.614   3.151 -0.2600 -0.9962  0.9096
 1342TIP3    H225518   5.421   3.616   3.167 -0.3956 -0.5089 -0.2953
 1343TIP3   OH225519   6.629   2.782   5.707  0.7657  0.2282  0.0022
 1343TIP3    H125520   6.714   2.768   5.748  0.3642  2.3346  1.7319
 1343TIP3    H225521   6.641   2.861   5.653 -0.4259  1.5424  1.5573
 1344TIP3   OH225522   2.340   0.803  17.095 -0.2713 -0.1963  0.2381
 1344TIP3    H125523   2.362   0.778  17.185 -1.1795  1.4116  0.9607
 1344TIP3    H225524   2.417   0.778  17.044 -0.1039 -2.0066  1.2713
 1345TIP3   OH225525   6.070   3.474   1.437 -0.4926 -0.6715 -0.1746
 1345TIP3    H125526   6.048   3.511   1.523  1.8020  1.4717 -0.3895
 1345TIP3    H225527   6.047   3.543   1.375  0.6041 -0.9831 -0.9692
 1346TIP3   OH225528   3.030   1.368   5.009  0.2206  0.2142  0.2473
 1346TIP3    H125529   2.986   1.436   4.959  0.0599  0.6678  0.9815
 1346TIP3    H225530   3.054   1.302   4.945 -0.4555  0.5277 -0.3388
 1347TIP3   OH225531   6.158   5.908  10.700  0.3259  0.1591 -0.8250
 1347TIP3    H125532   6.109   5.833  10.666 -0.8798 -0.4290  1.9427
 1347TIP3    H225533   6.178   5.884  10.791 -0.9837  3.5470  0.4977
 1348TIP3   OH225534   5.208   5.303   4.091  0.0591  0.7003 -0.2696
 1348TIP3    H125535   5.221   5.258   4.174 -3.4210  0.3139  0.2530
 1348TIP3    H225536   5.221   5.236   4.025  1.5890  0.6930  0.0122
 1349TIP3   OH225537   1.246   0.609  11.775  1.0616  0.2193 -0.2302
 1349TIP3    H125538   1.203   0.683  11.733 -0.1915 -0.1251  0.3903
 1349TIP3    H225539   1.250   0.632  11.867  2.1233  0.1849 -0.2557
 1350TIP3   OH225540   2.871   6.205  16.493 -0.8103 -0.4770 -0.3094
 1350TIP3    H125541   2.887   6.164  16.408  1.3622 -0.9861  0.2967
 1350TIP3    H225542   2.921   6.153  16.555 -1.6327  0.4283  1.1648
 1351TIP3   OH225543   4.190   4.659   3.596 -0.1357  0.1446  0.3882
 1351TIP3    H125544   4.202   4.608   3.676  0.7188  1.0294  0.8455
 1351TIP3    H225545   4.260   4.631   3.538 -0.0435  0.3475  0.4014
 1352TIP3   OH225546   4.367   2.080  11.914 -0.5357 -0.1502 -0.3051
 1352TIP3    H125547   4.306   2.090  11.987  0.3342  0.2125  0.3993
 1352TIP3    H225548   4.394   2.170  11.894 -1.5160 -0.1558 -1.7457
 1353TIP3   OH225549   4.747   6.455  14.843  1.0942  0.0547 -0.4450
 1353TIP3    H125550   4.731   6.362  14.830  1.6106 -0.1392  0.2872
 1353TIP3    H225551   4.697   6.478  14.921  0.6922  0.4691 -0.8204
 1354TIP3   OH225552   3.613   1.043   6.316  0.0998  0.0638  0.3467
 1354TIP3    H125553   3.528   1.022   6.355  0.5280 -0.0302  1.2841
 1354TIP3    H225554   3.593   1.097   6.240 -0.8060 -0.1369  0.4317
 1355TIP3   OH225555   0.254   6.542   3.060 -0.1353  0.0553  0.1090
 1355TIP3    H125556   0.167   6.539   3.102  0.1833 -2.5113  0.7518
 1355TIP3    H225557   0.311   6.497   3.122  1.2547 -0.0325 -1.1954
 1356TIP3   OH225558   4.715   2.026   5.320 -0.2754  0.1019 -0.7020
 1356TIP3    H125559   4.622   2.045   5.313 -0.2097  0.5833 -0.3229
 1356TIP3    H225560   4.728   1.948   5.266 -1.4055 -1.6142  1.3005
 1357TIP3   OH225561   0.403   4.263  16.719 -0.4078 -0.0463 -0.3067
 1357TIP3    H125562   0.474   4.287  16.779 -2.0089  1.5489  1.0199
 1357TIP3    H225563   0.448   4.216  16.648  1.7147 -0.8844  1.4627
 1358TIP3   OH225564   6.502   5.627  11.750  0.1573  0.5417 -0.1779
 1358TIP3    H125565   6.522   5.687  11.822  0.3007  0.1081  0.1545
 1358TIP3    H225566   6.488   5.683  11.674  4.3130  0.8685 -0.8924
 1359TIP3   OH225567   0.331   1.641  15.954  0.1208 -0.1508  0.0173
 1359TIP3    H125568   0.244   1.663  15.985  0.2276 -0.8492  0.8431
 1359TIP3    H225569   0.389   1.664  16.026  0.2893 -2.4780  0.6973
 1360TIP3   OH225570   3.170   4.124   1.653  0.0210  0.0707  0.3155
 1360TIP3    H125571   3.223   4.052   1.618 -0.5891  0.5152 -1.5956
 1360TIP3    H225572   3.099   4.081   1.701  2.3283 -0.5621  3.5744
 1361TIP3   OH225573   3.444   5.117  12.566 -0.2059 -0.2463 -0.6974
 1361TIP3    H125574   3.376   5.050  12.572 -0.1169 -0.2809 -0.0706
 1361TIP3    H225575   3.397   5.200  12.577  0.1745 -0.3540  2.7918
 1362TIP3   OH225576   5.952   6.319  13.991  0.1678  0.4898 -0.4703
 1362TIP3    H125577   6.010   6.318  14.067 -1.2039 -0.7837  0.6163
 1362TIP3    H225578   6.008   6.347  13.918  2.3221 -1.3656  0.3621
 1363TIP3   OH225579   5.799   4.279  14.643  0.6475 -0.2136  0.4590
 1363TIP3    H125580   5.747   4.223  14.584  0.7938  1.1133 -1.0041
 1363TIP3    H225581   5.741   4.351  14.665  1.4191  0.6337 -0.1795
 1364TIP3   OH225582   2.587   2.003  14.243 -0.0087  0.1814  0.0314
 1364TIP3    H125583   2.563   1.976  14.154  1.9943  0.2472 -0.5928
 1364TIP3    H225584   2.522   1.961  14.299 -1.3191  0.1329 -1.4584
 1365TIP3   OH225585   1.154   5.953  16.391  0.0902  0.1269  0.1159
 1365TIP3    H125586   1.198   6.035  16.414  2.3262 -0.8893 -0.2809
 1365TIP3    H225587   1.204   5.919  16.317  0.0596 -2.2329  1.0933
 1366TIP3   OH225588   6.359   1.748  16.836  0.1109  0.0993 -0.0238
 1366TIP3    H125589   6.401   1.662  16.830  1.1022  0.2265  3.4497
 1366TIP3    H225590   6.325   1.752  16.925 -0.7451  2.9823 -0.3963
 1367TIP3   OH225591   3.971   4.708   1.012  0.7796 -0.3004  0.3459
 1367TIP3    H125592   3.973   4.622   1.055  2.0568  0.1630  1.2820
 1367TIP3    H225593   3.949   4.689   0.921  3.4038 -1.9147 -0.0554
 1368TIP3   OH225594   1.601   6.315   1.151  0.4666  0.5919 -0.7135
 1368TIP3    H125595   1.647   6.235   1.125  2.7113  1.0611  1.3714
 1368TIP3    H225596   1.654   6.386   1.115  1.2192  1.1415  1.3131
 1369TIP3   OH225597   1.723   4.670   1.236 -0.5594 -0.0365 -0.0342
 1369TIP3    H125598   1.737   4.684   1.330 -0.1757 -1.0375  0.0775
 1369TIP3    H225599   1.788   4.726   1.193 -0.2513 -0.1164  0.3250
 1370TIP3   OH225600   4.855   1.772   4.293  0.2140 -0.1918 -0.1838
 1370TIP3    H125601   4.788   1.777   4.225 -0.8409  1.4840  0.8988
 1370TIP3    H225602   4.935   1.803   4.251 -0.5489  1.3651 -0.5748
 1371TIP3   OH225603   2.888   2.271   2.874  0.1893  0.3138  0.3064
 1371TIP3    H125604   2.907   2.197   2.816 -1.8509 -0.1592  0.1774
 1371TIP3    H225605   2.803   2.249   2.913 -0.6948  2.7920 -0.0860
 1372TIP3   OH225606   1.147   4.934  11.062 -0.3686 -0.0073 -0.3340
 1372TIP3    H125607   1.139   4.903  10.972  0.8472  0.3638 -0.5897
 1372TIP3    H225608   1.146   5.030  11.054  1.2532  0.0518 -0.1380
 1373TIP3   OH225609   3.067   5.164  12.424 -0.7710  0.8036 -0.3378
 1373TIP3    H125610   2.988   5.200  12.465 -1.7158 -2.6720  1.2424
 1373TIP3    H225611   3.044   5.074  12.402  2.9378 -0.6259  0.8424
 1374TIP3   OH225612   2.761   0.611   2.110 -0.1682 -0.6725  0.2370
 1374TIP3    H125613   2.800   0.689   2.149 -1.4380 -1.0014  2.2940
 1374TIP3    H225614   2.669   0.633   2.097  0.1137 -0.6661 -2.5167
 1375TIP3   OH225615   3.469   5.394   3.774  0.4061  0.2253  0.0874
 1375TIP3    H125616   3.464   5.299   3.782  0.6578  0.0012 -1.8463
 1375TIP3    H225617   3.561   5.411   3.752 -0.2434  0.5567 -2.7015
 1376TIP3   OH225618   0.886   1.456   5.457 -0.4058 -0.2290 -0.1710
 1376TIP3    H125619   0.831   1.378   5.467 -0.5472  0.0873  2.1646
 1376TIP3    H225620   0.827   1.525   5.430 -0.7020 -0.4434 -0.0753
 1377TIP3   OH225621   3.359   5.681   5.901  0.2557 -0.0611 -0.3780
 1377TIP3    H125622   3.450   5.662   5.924  0.0715  0.6022  1.0044
 1377TIP3    H225623   3.308   5.626   5.961 -0.2481  1.1747  0.3596
 1378TIP3   OH225624   3.021   0.800  17.150  0.5074 -0.6916  0.2551
 1378TIP3    H125625   3.076   0.844  17.085  0.1796  0.4757  0.7387
 1378TIP3    H225626   3.012   0.711  17.117  3.1012 -1.1030  0.4122
 1379TIP3   OH225627   0.531   3.361   2.594 -0.9813  0.2407 -0.0616
 1379TIP3    H125628   0.499   3.337   2.681  0.8973  0.4294  0.7337
 1379TIP3    H225629   0.551   3.277   2.552  0.6541  0.1825  0.7488
 1380TIP3   OH225630   2.821   3.104  11.258 -0.4857 -0.5643  0.0711
 1380TIP3    H125631   2.762   3.050  11.310 -0.8675 -0.4719 -0.2596
 1380TIP3    H225632   2.877   3.041  11.213 -1.0139 -0.6963 -0.4120
 1381TIP3   OH225633   1.733   2.938  15.552  0.1303 -0.4556 -0.0316
 1381TIP3    H125634   1.668   2.869  15.539  1.7003 -2.1692  0.7392
 1381TIP3    H225635   1.751   2.970  15.464 -2.0765  0.4368 -0.2296
 1382TIP3   OH225636   6.699   4.672   2.020  0.5115  0.1281  0.2452
 1382TIP3    H125637   6.702   4.719   1.937 -0.8043 -0.7127 -0.3034
 1382TIP3    H225638   6.606   4.663   2.040  0.4466 -4.3296 -0.9247
 1383TIP3   OH225639   5.791   3.327   1.681  0.4103  0.2052  0.4019
 1383TIP3    H125640   5.738   3.373   1.745  0.3750 -0.0248  0.5394
 1383TIP3    H225641   5.875   3.313   1.725  0.6863  0.8219  0.0838
 1384TIP3   OH225642   3.274   5.325  14.888 -0.4655  0.1154  0.1865
 1384TIP3    H125643   3.264   5.249  14.831  1.0242 -0.8455  1.1647
 1384TIP3    H225644   3.202   5.383  14.862 -0.5673 -0.8190 -1.7989
 1385TIP3   OH225645   2.593   4.306   4.407 -0.0587  0.1401  0.3331
 1385TIP3    H125646   2.672   4.264   4.374 -0.0699  0.2146  0.2141
 1385TIP3    H225647   2.524   4.281   4.345 -0.9657 -3.0338  2.3320
 1386TIP3   OH225648   0.055   1.190  11.692  0.4713  0.1902 -0.1802
 1386TIP3    H125649   0.078   1.244  11.767 -1.0795 -1.0913  1.3067
 1386TIP3    H225650   0.133   1.138  11.675  0.6889  0.1381  0.9011
 1387TIP3   OH225651   0.729   0.117  16.544 -0.7734 -0.4348  0.4688
 1387TIP3    H125652   0.784   0.039  16.536  0.7082  0.4390  1.7215
 1387TIP3    H225653   0.767   0.180  16.483  1.0218  0.9020  2.8228
 1388TIP3   OH225654   2.698   1.944   1.964 -0.3295  0.6252 -0.3685
 1388TIP3    H125655   2.747   1.902   2.035  0.4415  0.6919 -0.8501
 1388TIP3    H225656   2.680   1.874   1.902 -1.3614  0.4851  0.0759
 1389TIP3   OH225657   2.440   3.346  10.710  0.0302 -0.0487  0.5744
 1389TIP3    H125658   2.426   3.276  10.774  3.2748 -1.2661  0.1408
 1389TIP3    H225659   2.448   3.426  10.763  1.4406 -0.8479  1.6490
 1390TIP3   OH225660   2.142   4.600  11.784 -0.8246 -0.2592  0.1764
 1390TIP3    H125661   2.216   4.578  11.727 -2.0218  0.4025 -1.7234
 1390TIP3    H225662   2.121   4.518  11.829 -0.2529 -0.9867 -0.8368
 1391TIP3   OH225663   2.851   0.404   0.117 -0.1502  0.1810  0.3609
 1391TIP3    H125664   2.938   0.364   0.121  0.6047  1.5988 -0.8430
 1391TIP3    H225665   2.860   0.474   0.051 -2.2590  0.2187  0.0566
 1392TIP3   OH225666   4.731   5.707   2.533  0.3181 -0.4609 -0.0659
 1392TIP3    H125667   4.741   5.700   2.438  3.8258 -1.6943  0.2802
 1392TIP3    H225668   4.705   5.620   2.561 -1.1041 -0.0031  0.1551
 1393TIP3   OH225669   3.115   0.986   4.507  0.2471  0.4836  0.0563
 1393TIP3    H125670   3.121   0.890   4.501 -0.8170  0.4593 -1.2070
 1393TIP3    H225671   3.201   1.014   4.536  0.9788 -0.7887 -0.8113
 1394TIP3   OH225672   5.093   3.183  13.614  0.5338 -0.1129  0.6925
 1394TIP3    H125673   5.104   3.253  13.550  1.8864 -0.1436  0.8620
 1394TIP3    H225674   5.082   3.104  13.562  2.4650 -0.2664  0.4454
 1395TIP3   OH225675   3.607   4.828  16.414 -0.2685 -0.0712 -0.3614
 1395TIP3    H125676   3.566   4.754  16.369  1.2530 -1.4943  0.4651
 1395TIP3    H225677   3.683   4.850  16.361 -0.6220  0.8329 -0.5173
 1396TIP3   OH225678   6.295   6.476   4.359 -0.4520 -0.3268 -0.0373
 1396TIP3    H125679   6.329   6.515   4.278 -0.5408  0.4945  0.3149
 1396TIP3    H225680   6.346   6.396   4.370  0.5726  0.2865 -0.1429
 1397TIP3   OH225681   0.106   6.075   2.112  0.5581 -1.0492  0.5318
 1397TIP3    H125682   0.143   5.989   2.132  2.9758 -0.3928 -0.7174
 1397TIP3    H225683   0.052   6.060   2.035 -0.8087 -1.8044  1.6051
 1398TIP3   OH225684   2.526   0.718   4.437 -0.0766 -0.2590 -0.0713
 1398TIP3    H125685   2.561   0.715   4.526 -1.7191 -0.4755  0.5888
 1398TIP3    H225686   2.437   0.684   4.444 -0.9916  1.6346 -1.4390
 1399TIP3   OH225687   2.880   1.648   3.380 -0.3638  0.0601 -0.4557
 1399TIP3    H125688   2.909   1.685   3.464 -0.5657 -0.2632 -0.2401
 1399TIP3    H225689   2.854   1.724   3.328  1.2031  0.4153 -0.8019
 1400TIP3   OH225690   2.197   0.662   2.363  0.2149  0.1454  0.6169
 1400TIP3    H125691   2.251   0.734   2.329 -0.3719  0.1947 -0.2301
 1400TIP3    H225692   2.212   0.590   2.302 -0.5402  0.1080  0.4658
 1401TIP3   OH225693   3.136   6.124  13.057 -0.2103  0.1181  0.1200
 1401TIP3    H125694   3.173   6.164  13.135 -2.4138 -0.3381  1.4604
 1401TIP3    H225695   3.141   6.030  13.073 -0.0724 -0.0062 -0.5997
 1402TIP3   OH225696   3.388   2.355   0.300  0.2183  0.0586  0.3764
 1402TIP3    H125697   3.446   2.407   0.243  1.6776 -1.2153  0.6456
 1402TIP3    H225698   3.442   2.283   0.330 -0.8861  0.0088  2.4227
 1403TIP3   OH225699   5.982   0.678  16.996 -0.2916 -0.3563  0.3768
 1403TIP3    H125700   5.911   0.709  16.940 -0.9798 -1.5979  0.5250
 1403TIP3    H225701   6.058   0.730  16.970 -1.6481  2.4885  1.6073
 1404TIP3   OH225702   4.824   1.760   0.632  0.2640  0.6102  0.1603
 1404TIP3    H125703   4.755   1.761   0.565  1.4905 -0.4135 -1.1726
 1404TIP3    H225704   4.791   1.701   0.700  0.4766 -1.2099 -1.2453
 1405TIP3   OH225705   6.710   0.894  14.543  0.0182 -0.0957  0.0293
 1405TIP3    H125706   6.623   0.885  14.504  0.0185 -0.6452  0.1458
 1405TIP3    H225707   6.719   0.818  14.600  0.2931  0.3276  0.5724
 1406TIP3   OH225708   0.332   6.418  16.180  0.3083  0.5478 -0.7010
 1406TIP3    H125709   0.386   6.463  16.244 -0.7057  0.9746 -0.1293
 1406TIP3    H225710   0.250   6.467  16.177 -0.3035 -0.4469 -1.0796
 1407TIP3   OH225711   6.477   1.876  15.786 -0.5067  0.1182  0.2080
 1407TIP3    H125712   6.394   1.893  15.740 -0.1733 -0.1671 -0.5225
 1407TIP3    H225713   6.498   1.785  15.764  0.3229  0.3849 -0.1545
 1408TIP3   OH225714   5.379   0.016  14.288  0.2580 -0.4992 -0.2122
 1408TIP3    H125715   5.407   0.070  14.362  1.2482 -0.0899 -0.8573
 1408TIP3    H225716   5.284   0.015  14.293  0.2919 -0.0560  0.7637
 1409TIP3   OH225717   4.370   4.112  15.383  0.2527 -0.4441 -0.3556
 1409TIP3    H125718   4.283   4.121  15.345  0.6979 -0.0774 -1.3330
 1409TIP3    H225719   4.356   4.065  15.465 -0.9173  0.0247 -0.2631
 1410TIP3   OH225720   4.938   6.502   0.202  0.1258  0.5194 -0.2888
 1410TIP3    H125721   4.924   6.597   0.206 -1.5407  0.2537  2.5846
 1410TIP3    H225722   4.874   6.471   0.138  0.5800  1.2892 -1.1369
 1411TIP3   OH225723   1.919   6.521  11.406 -0.5201  0.1376  0.3921
 1411TIP3    H125724   1.934   6.611  11.379  1.8947 -0.7489 -1.5851
 1411TIP3    H225725   1.958   6.516  11.494  0.5432  0.7370 -0.0213
 1412TIP3   OH225726   2.082   5.900   0.302  0.3863  0.1736  0.3262
 1412TIP3    H125727   2.137   5.822   0.299  2.0614  1.3369 -0.9326
 1412TIP3    H225728   2.013   5.883   0.237  1.4974  0.2151 -0.9179
 1413TIP3   OH225729   6.210   2.681   5.664 -0.2497  0.3961  0.1547
 1413TIP3    H125730   6.149   2.683   5.590 -2.1062  1.8544  1.6339
 1413TIP3    H225731   6.157   2.650   5.738  1.3986 -0.4312  1.0499
 1414TIP3   OH225732   6.276   4.573  12.055  0.1290  0.6623 -0.3564
 1414TIP3    H125733   6.315   4.634  11.993 -0.9789  1.5425 -0.2109
 1414TIP3    H225734   6.189   4.555  12.020  0.3213 -0.6092 -0.2336
 1415TIP3   OH225735   6.102   2.950  16.281 -0.0083 -0.1128  0.2026
 1415TIP3    H125736   6.165   2.890  16.241 -1.1561 -2.8434  2.1796
 1415TIP3    H225737   6.155   3.003  16.340  0.7908 -0.4687 -0.1675
 1416TIP3   OH225738   2.192   0.008  12.660 -0.0423 -0.8457  0.3759
 1416TIP3    H125739   2.113  -0.046  12.667 -0.0235 -0.8971  0.2007
 1416TIP3    H225740   2.194   0.058  12.741 -1.0715  0.2683 -0.2354
 1417TIP3   OH225741   3.008   4.644  16.986  0.5067 -0.2813  0.2546
 1417TIP3    H125742   3.027   4.730  17.025  1.6608  0.2018 -1.2382
 1417TIP3    H225743   2.914   4.645  16.972  0.3496  0.3019  1.2145
 1418TIP3   OH225744   0.891   5.454   4.898  0.1570 -0.2126  0.0734
 1418TIP3    H125745   0.805   5.489   4.874  1.0703  2.3012  0.1919
 1418TIP3    H225746   0.930   5.427   4.815  0.2532  1.0906 -0.3212
 1419TIP3   OH225747   3.268   5.067   6.078 -0.4048  0.2678 -0.2785
 1419TIP3    H125748   3.265   4.984   6.126 -0.6347  0.0266 -0.6990
 1419TIP3    H225749   3.348   5.062   6.026 -0.2382  0.4603 -0.0419
 1420TIP3   OH225750   3.740   3.957   1.582 -0.2451  0.4327 -0.3070
 1420TIP3    H125751   3.744   3.993   1.671 -0.0082  0.1747 -0.2101
 1420TIP3    H225752   3.809   4.004   1.535  0.5349 -0.3754  0.0036
 1421TIP3   OH225753   6.019   3.829   1.874  0.2539 -0.7366 -0.6003
 1421TIP3    H125754   5.966   3.799   1.948 -0.0809  0.8602 -0.1461
 1421TIP3    H225755   6.108   3.799   1.894 -0.4870 -4.1447 -1.7488
 1422TIP3   OH225756   6.250   2.692  16.820  0.2899  0.2107 -0.7551
 1422TIP3    H125757   6.318   2.625  16.811 -0.3377 -0.8337  1.5453
 1422TIP3    H225758   6.269   2.734  16.904 -1.3815  0.4710 -0.4727
 1423TIP3   OH225759   3.657   3.565   5.716  0.0972 -0.3241 -0.6911
 1423TIP3    H125760   3.672   3.652   5.754  0.6997 -0.7813  0.1344
 1423TIP3    H225761   3.679   3.576   5.623 -0.4233  0.5501 -0.7249
 1424TIP3   OH225762   2.921   6.509   1.097 -0.3664 -0.0690  0.5000
 1424TIP3    H125763   2.838   6.499   1.144 -1.3454  2.6602 -0.4492
 1424TIP3    H225764   2.956   6.420   1.091 -2.4516 -1.1033  2.2733
 1425TIP3   OH225765   2.952   0.271  12.675 -0.6412 -0.1249 -0.4402
 1425TIP3    H125766   2.948   0.359  12.713 -0.9546 -0.4106  0.1985
 1425TIP3    H225767   3.000   0.219  12.739  1.0100 -0.0569 -1.5667
 1426TIP3   OH225768   0.327   4.179  11.678 -0.0142 -0.0135  0.0875
 1426TIP3    H125769   0.311   4.273  11.672 -0.4643 -0.0729  0.3439
 1426TIP3    H225770   0.276   4.150  11.753  1.1975 -0.2346  0.8564
 1427TIP3   OH225771   3.565   1.809  15.665 -0.2022 -0.3426 -0.4077
 1427TIP3    H125772   3.637   1.785  15.606  1.0265 -2.4288  1.7622
 1427TIP3    H225773   3.541   1.727  15.708 -2.3807  0.7307  0.5888
 1428TIP3   OH225774   4.925   6.746  15.433 -0.5164  0.0918 -0.2861
 1428TIP3    H125775   4.997   6.807  15.449 -0.5104  0.2040 -0.7469
 1428TIP3    H225776   4.966   6.659  15.435 -0.5257  0.0934  0.3662
 1429TIP3   OH225777   5.763   1.829  13.028 -0.2259 -0.0424 -0.2946
 1429TIP3    H125778   5.736   1.761  12.967 -1.0453  1.1007 -1.2743
 1429TIP3    H225779   5.856   1.842  13.010  0.1276 -1.4005  0.4411
 1430TIP3   OH225780   4.133   3.110  16.139 -0.3156  0.6039 -0.2028
 1430TIP3    H125781   4.131   3.015  16.129  0.0813  0.6519 -0.7712
 1430TIP3    H225782   4.224   3.130  16.163 -0.1949  0.9147 -0.8986
 1431TIP3   OH225783   1.636   1.141  15.229  0.7085 -0.3309 -0.3235
 1431TIP3    H125784   1.683   1.098  15.157  1.5962 -0.2621  0.2067
 1431TIP3    H225785   1.639   1.234  15.206  3.2934  0.0085  1.0559
 1432TIP3   OH225786   1.306   3.995   6.101  0.3511 -0.6191  0.0029
 1432TIP3    H125787   1.324   3.948   6.020  1.1171 -0.3687  0.0226
 1432TIP3    H225788   1.392   4.024   6.132 -0.0480  0.3100  0.2825
 1433TIP3   OH225789   6.385   0.941  14.748 -0.1042 -0.6546 -0.5216
 1433TIP3    H125790   6.320   1.003  14.714  0.6309  0.2963 -0.2158
 1433TIP3    H225791   6.460   0.995  14.770  0.2804 -1.5709  0.4531
 1434TIP3   OH225792   0.155   1.704   3.410 -0.1658 -0.0833 -0.4439
 1434TIP3    H125793   0.145   1.782   3.356  0.5734  0.3201 -0.0130
 1434TIP3    H225794   0.078   1.705   3.468 -1.1240 -0.6797 -1.6381
 1435TIP3   OH225795   1.211   0.213   3.388 -0.1448 -0.3113  0.1157
 1435TIP3    H125796   1.199   0.281   3.454 -0.3001  0.4080 -0.6533
 1435TIP3    H225797   1.305   0.202   3.382 -0.0462  0.8269 -0.7453
 1436TIP3   OH225798   0.409   5.694  16.426 -1.1333  0.1803  0.5098
 1436TIP3    H125799   0.392   5.607  16.390  1.2824  0.1113 -0.7237
 1436TIP3    H225800   0.464   5.678  16.504  0.7992  0.5677 -0.6959
 1437TIP3   OH225801   2.210   0.693  12.978 -0.0061  0.0231  0.0585
 1437TIP3    H125802   2.247   0.748  12.908 -2.8054  3.3179  0.9278
 1437TIP3    H225803   2.168   0.620  12.932  0.0756  0.9423 -1.5366
 1438TIP3   OH225804   2.348   0.301  16.575 -0.3024  0.3187  0.3156
 1438TIP3    H125805   2.410   0.335  16.511  1.0612  1.6282  2.2216
 1438TIP3    H225806   2.297   0.377  16.602 -0.9208 -0.2251  0.7243
 1439TIP3   OH225807   1.128   1.712  11.295 -1.0449 -0.0715 -0.4970
 1439TIP3    H125808   1.185   1.645  11.256 -0.4355  0.3789 -0.3920
 1439TIP3    H225809   1.155   1.716  11.387 -0.6699  0.7418 -0.6428
 1440TIP3   OH225810   6.433   1.799   2.411  0.3841  0.2695 -1.1459
 1440TIP3    H125811   6.465   1.751   2.487 -0.1263 -0.5294 -1.4344
 1440TIP3    H225812   6.344   1.767   2.397 -0.9864  3.0803  0.1826
 1441TIP3   OH225813   4.431   5.971   6.367  0.0239  0.1230 -0.0326
 1441TIP3    H125814   4.360   5.908   6.364  0.9166 -0.9098 -0.3048
 1441TIP3    H225815   4.404   6.035   6.433 -1.9229  0.7484 -1.3536
 1442TIP3   OH225816   2.883   5.761  12.989  0.1222 -0.3470 -0.6005
 1442TIP3    H125817   2.844   5.684  13.029 -0.5138  1.2606  2.0782
 1442TIP3    H225818   2.809   5.816  12.964  0.5058  1.5037  2.0041
 1443TIP3   OH225819   2.822   2.100  15.424 -0.0678 -0.0739 -0.2902
 1443TIP3    H125820   2.763   2.049  15.368 -1.1065  1.5235 -0.7129
 1443TIP3    H225821   2.904   2.103  15.375 -0.6189  0.3552 -1.2139
 1444TIP3   OH225822   3.643   2.072  16.210  0.1323 -0.5769  0.1040
 1444TIP3    H125823   3.615   1.985  16.237  0.4546 -1.4198 -2.0150
 1444TIP3    H225824   3.610   2.131  16.277 -1.3842 -2.1759  0.8277
 1445TIP3   OH225825   4.787   1.181  14.801  0.3937  0.6669  0.1950
 1445TIP3    H125826   4.864   1.237  14.795  0.2082  1.0749  1.3011
 1445TIP3    H225827   4.720   1.227  14.750  0.9293  0.1992 -0.9502
 1446TIP3   OH225828   0.966   4.085   2.768 -0.5475  0.0697 -0.1688
 1446TIP3    H125829   0.883   4.093   2.720 -0.1058  2.6907 -0.6491
 1446TIP3    H225830   0.970   3.993   2.792 -1.8053 -0.9637 -3.3266
 1447TIP3   OH225831   5.071   1.012  12.834  0.0674 -0.0540 -0.1519
 1447TIP3    H125832   4.998   1.058  12.876  0.8220  0.6803  0.3784
 1447TIP3    H225833   5.146   1.070  12.847  0.7531 -0.8206 -0.6585
 1448TIP3   OH225834   2.374   2.627  11.393  0.0750  0.0707  0.0992
 1448TIP3    H125835   2.374   2.709  11.343 -0.0113 -1.0552 -1.8267
 1448TIP3    H225836   2.465   2.612  11.415  0.0282  0.9661  1.0262
 1449TIP3   OH225837   5.501   4.287  14.786  0.5559  0.2417  0.1907
 1449TIP3    H125838   5.447   4.216  14.820  1.5618 -0.4818  0.3251
 1449TIP3    H225839   5.451   4.323  14.713 -0.4644  0.1311  0.8196
 1450TIP3   OH225840   2.740   4.957  15.952 -0.2701  0.1959  0.5844
 1450TIP3    H125841   2.812   4.981  16.011  0.2134 -1.4400  0.6954
 1450TIP3    H225842   2.704   4.876  15.988 -0.6849 -0.2452 -0.7484
 1451TIP3   OH225843   3.249   3.306  13.513  0.4146 -0.5225  0.1743
 1451TIP3    H125844   3.300   3.374  13.467 -0.8841 -1.2917 -2.6484
 1451TIP3    H225845   3.167   3.350  13.536  0.5460 -0.4968  0.6039
 1452TIP3   OH225846   5.971   2.797  17.152  0.2609  0.6948 -0.4952
 1452TIP3    H125847   5.918   2.800  17.072 -1.3940  0.2732  0.5367
 1452TIP3    H225848   5.960   2.884  17.191 -2.4931 -0.3950  1.4093
 1453TIP3   OH225849   5.580   0.541   4.771  0.0831  0.3045  0.2302
 1453TIP3    H125850   5.669   0.507   4.765 -0.4712 -1.0173 -0.9277
 1453TIP3    H225851   5.575   0.578   4.860  1.7381  0.3487  0.3402
 1454TIP3   OH225852   5.873   3.943   4.985 -0.3015  0.1288 -0.2930
 1454TIP3    H125853   5.820   3.892   5.046 -0.0075 -2.5509 -2.1231
 1454TIP3    H225854   5.962   3.939   5.021 -0.5641  0.8605  0.4654
 1455TIP3   OH225855   3.936   3.129   6.185 -0.0280 -0.0913  0.3602
 1455TIP3    H125856   3.958   3.217   6.215 -0.9699  0.3795 -0.2965
 1455TIP3    H225857   4.011   3.076   6.211 -0.0446  0.6205  1.9902
 1456TIP3   OH225858   2.745   4.394   4.910  0.1811 -0.2810 -0.0490
 1456TIP3    H125859   2.737   4.485   4.939 -0.2683 -0.3334 -0.0012
 1456TIP3    H225860   2.708   4.393   4.821  1.6826 -0.0913 -0.7133
 1457TIP3   OH225861   6.259   2.912  14.037  0.4857  0.8154  0.1846
 1457TIP3    H125862   6.230   2.831  14.079  1.6045 -0.5981 -1.5856
 1457TIP3    H225863   6.353   2.902  14.028  0.4833  1.7224 -1.2318
 1458TIP3   OH225864   5.367   1.812  15.422  0.7756 -0.2371 -0.2185
 1458TIP3    H125865   5.297   1.875  15.439  0.2349 -0.8925 -0.0106
 1458TIP3    H225866   5.395   1.782  15.508  1.8962  0.6358 -0.2543
 1459TIP3   OH225867   1.318   5.396   5.003  1.1929 -0.0459 -1.0093
 1459TIP3    H125868   1.372   5.335   5.053  0.3127  0.4502  0.6126
 1459TIP3    H225869   1.366   5.479   5.009  0.9916  0.0573 -0.8198
 1460TIP3   OH225870   2.048   5.573  14.337  0.3168  0.0329  0.0142
 1460TIP3    H125871   2.110   5.631  14.292 -0.3474  0.5755 -0.2199
 1460TIP3    H225872   1.966   5.585  14.289 -0.0081 -0.5642  0.4154
 1461TIP3   OH225873   4.647   3.549  15.854 -0.3306  0.1948  0.5034
 1461TIP3    H125874   4.660   3.502  15.936  1.3696 -1.8598 -0.8572
 1461TIP3    H225875   4.596   3.489  15.800  0.1258  0.7433 -0.5632
 1462TIP3   OH225876   3.609   3.446   5.045  0.1383  0.1498 -0.4144
 1462TIP3    H125877   3.537   3.496   5.083 -3.0326 -2.1941 -2.8245
 1462TIP3    H225878   3.603   3.360   5.086  0.4011 -0.6138 -1.9094
 1463TIP3   OH225879   0.693   4.074   3.306 -0.1109 -0.2157  0.5325
 1463TIP3    H125880   0.681   4.169   3.299 -0.1484 -0.3462 -2.2326
 1463TIP3    H225881   0.724   4.048   3.219  0.9889 -2.6081  1.5654
 1464TIP3   OH225882   1.437   4.072  15.219  0.4258 -0.1546 -0.5575
 1464TIP3    H125883   1.495   3.996  15.213 -0.4957 -0.8319 -1.0569
 1464TIP3    H225884   1.406   4.086  15.130 -2.5755 -1.7198  0.1035
 1465TIP3   OH225885   2.569   4.247   3.680  0.3164 -0.0827 -0.7929
 1465TIP3    H125886   2.476   4.271   3.683  0.4471  0.3342  1.0194
 1465TIP3    H225887   2.579   4.203   3.596 -1.4856  0.0095 -1.1076
 1466TIP3   OH225888   1.567   0.286   4.177  0.2060 -0.0092  0.5595
 1466TIP3    H125889   1.620   0.208   4.159  0.9228 -0.0211  2.5262
 1466TIP3    H225890   1.627   0.346   4.222 -1.3363  0.0676  2.6515
 1467TIP3   OH225891   3.738   2.488  12.445  0.1535  0.2171 -0.0710
 1467TIP3    H125892   3.802   2.492  12.374  1.2755 -0.5842  0.8767
 1467TIP3    H225893   3.790   2.491  12.525 -1.0668  0.6285  0.7324
 1468TIP3   OH225894   2.797   2.124   5.580  0.2277 -0.0671  0.2935
 1468TIP3    H125895   2.852   2.185   5.628  0.8946 -0.6735  0.3196
 1468TIP3    H225896   2.852   2.046   5.568 -0.9212 -1.0527  1.1389
 1469TIP3   OH225897   1.518   4.058  13.705  0.0293 -0.2522 -0.4144
 1469TIP3    H125898   1.523   3.983  13.646  1.0317 -1.1317  0.7325
 1469TIP3    H225899   1.504   4.133  13.648 -2.5548 -1.4492 -1.4958
 1470TIP3   OH225900   1.142   0.272   1.172  0.5366 -0.0902  0.3492
 1470TIP3    H125901   1.183   0.187   1.186  1.6164  0.3241 -0.2144
 1470TIP3    H225902   1.160   0.321   1.252  2.0329  0.4256 -0.2711
 1471TIP3   OH225903   0.925   1.284  15.030  0.1561  0.4837 -0.1561
 1471TIP3    H125904   0.972   1.224  14.972 -1.7050  0.3139 -1.5891
 1471TIP3    H225905   0.962   1.370  15.010  1.2561  0.1371  0.2673
 1472TIP3   OH225906   5.585   1.666  11.795 -0.2264 -0.6980  0.3158
 1472TIP3    H125907   5.589   1.670  11.890 -0.9199  0.2926  0.3218
 1472TIP3    H225908   5.514   1.605  11.776  0.8388 -2.0209  0.3923
 1473TIP3   OH225909   1.949   0.215  13.047  0.1224 -0.0057 -0.3986
 1473TIP3    H125910   1.909   0.281  12.991  0.0417 -0.5298 -0.9794
 1473TIP3    H225911   1.928   0.242  13.136 -0.0134  0.6767 -0.6310
 1474TIP3   OH225912   1.754   5.849   3.015 -0.3430 -0.1252  0.0558
 1474TIP3    H125913   1.811   5.893   3.079  0.4341  0.0366 -0.7250
 1474TIP3    H225914   1.811   5.835   2.939 -1.3920  0.1660 -0.8008
 1475TIP3   OH225915   6.179   4.005  15.361 -0.6554  0.2793 -0.2167
 1475TIP3    H125916   6.145   3.989  15.449 -2.1916  0.9238 -0.6629
 1475TIP3    H225917   6.168   4.099  15.348  1.0949  0.4827 -0.5041
 1476TIP3   OH225918   2.066   4.955  17.215 -0.3678 -0.1050 -0.0617
 1476TIP3    H125919   2.159   4.953  17.240 -0.5966 -1.3285  0.8235
 1476TIP3    H225920   2.043   5.048  17.213  1.2024  0.3009 -1.6397
 1477TIP3   OH225921   5.567   1.906   0.873 -0.0679 -0.2157 -0.0950
 1477TIP3    H125922   5.550   1.999   0.885  1.3405  0.0125  0.3031
 1477TIP3    H225923   5.657   1.902   0.841  0.1430 -1.4737  0.5932
 1478TIP3   OH225924   4.320   2.054   0.383  0.5139 -0.0183  0.1426
 1478TIP3    H125925   4.318   2.144   0.351 -0.2186 -0.0074  0.2132
 1478TIP3    H225926   4.388   2.055   0.451  0.5259  0.4762  0.1300
 1479TIP3   OH225927   6.324   4.686  11.646  0.2978  0.8991 -0.5778
 1479TIP3    H125928   6.346   4.726  11.562 -0.4257 -0.9685 -1.7317
 1479TIP3    H225929   6.272   4.609  11.623 -0.4807  0.6780  1.6320
 1480TIP3   OH225930   2.788   4.015   6.511  0.1884 -0.3988 -0.4412
 1480TIP3    H125931   2.704   4.046   6.476 -0.5350  1.2259  2.3993
 1480TIP3    H225932   2.767   3.933   6.555 -0.1773  0.4751  1.0778
 1481TIP3   OH225933   5.241   0.959  16.352 -0.1544 -0.0311  0.1058
 1481TIP3    H125934   5.226   0.948  16.258 -0.2746 -0.2393  0.1497
 1481TIP3    H225935   5.202   0.881  16.391 -0.0127  0.0073  0.3207
 1482TIP3   OH225936   5.098   1.357  13.947 -0.4505  0.2536  0.6723
 1482TIP3    H125937   5.114   1.434  13.893 -0.4216 -0.4506 -0.3487
 1482TIP3    H225938   5.015   1.376  13.992 -0.9052  0.5039 -0.2557
 1483TIP3   OH225939   0.982   2.828   0.798  0.9585  0.6658  0.0527
 1483TIP3    H125940   0.952   2.797   0.883 -2.0106  1.9125 -0.4291
 1483TIP3    H225941   1.021   2.751   0.756  1.3686 -0.2550  2.0295
 1484TIP3   OH225942   1.429   0.968   5.655 -0.0257  0.3585  0.0297
 1484TIP3    H125943   1.390   1.030   5.593 -0.2718  0.0017 -0.1798
 1484TIP3    H225944   1.407   1.002   5.741  1.2177  1.4314 -0.0565
 1485TIP3   OH225945   2.428   4.995   0.898 -0.1117  0.0514  0.0568
 1485TIP3    H125946   2.423   4.959   0.986 -1.3557  0.3050  0.1045
 1485TIP3    H225947   2.496   5.062   0.903 -0.8816  0.7925  1.1027
 1486TIP3   OH225948   5.660   2.390  16.441 -0.0091  0.5843 -0.2273
 1486TIP3    H125949   5.569   2.369  16.424  0.4819 -2.3372  0.2043
 1486TIP3    H225950   5.682   2.458  16.378 -2.0266  0.1641 -1.4577
 1487TIP3   OH225951   6.050   1.654   1.027 -0.3229  0.1511 -0.2137
 1487TIP3    H125952   6.001   1.736   1.029  1.5128  1.3199  2.0330
 1487TIP3    H225953   5.986   1.587   1.049 -1.9690  0.8286 -2.5423
 1488TIP3   OH225954   1.123   4.126   2.282  0.0918 -0.1252  0.6656
 1488TIP3    H125955   1.051   4.156   2.227 -0.2823 -1.1279  0.5729
 1488TIP3    H225956   1.164   4.055   2.232  2.6920  1.9399 -0.3690
 1489TIP3   OH225957   2.318   4.585   4.967  0.7622 -0.0193 -1.0288
 1489TIP3    H125958   2.223   4.574   4.962  0.8435 -0.3747 -2.3645
 1489TIP3    H225959   2.351   4.531   4.895  1.9451  0.4075 -0.8187
 1490TIP3   OH225960   0.515   0.028  12.649  0.3524 -0.1403  0.1362
 1490TIP3    H125961   0.509   0.020  12.744  0.3501 -0.9454  0.0766
 1490TIP3    H225962   0.609   0.026  12.630  0.3249 -2.0110 -0.0128
 1491TIP3   OH225963   3.702   4.724  13.063  0.0347 -0.2587 -0.5053
 1491TIP3    H125964   3.619   4.700  13.022  0.3885 -0.9111 -0.8448
 1491TIP3    H225965   3.682   4.804  13.112 -0.9549 -0.7793 -0.0381
 1492TIP3   OH225966   6.184   1.885   4.379  0.3010 -0.4382 -0.3377
 1492TIP3    H125967   6.153   1.898   4.468  0.1019  0.4566 -0.5320
 1492TIP3    H225968   6.104   1.865   4.329  0.4247 -1.0434 -0.3052
 1493TIP3   OH225969   6.455   5.529   5.583  0.1270 -0.6033 -0.1981
 1493TIP3    H125970   6.431   5.619   5.560  1.1897 -0.6031 -1.3945
 1493TIP3    H225971   6.523   5.540   5.650  0.2418 -0.5190 -0.3284
 1494TIP3   OH225972   2.379   1.289  16.059  0.1269  0.6052  1.0880
 1494TIP3    H125973   2.322   1.226  16.015  0.1803 -0.5855  2.6317
 1494TIP3    H225974   2.437   1.322  15.989  0.3034 -1.3013  0.2743
 1495TIP3   OH225975   6.024   6.354   4.762 -0.3456 -0.4144 -0.1823
 1495TIP3    H125976   6.001   6.358   4.669 -1.5461 -2.3680 -0.0218
 1495TIP3    H225977   6.120   6.350   4.763 -0.3396 -0.9056 -1.3594
 1496TIP3   OH225978   2.647   3.703   2.732 -0.2739 -0.4234 -0.5601
 1496TIP3    H125979   2.631   3.763   2.805 -1.5368 -0.3975 -0.8292
 1496TIP3    H225980   2.664   3.761   2.657 -0.3464 -0.4222 -0.5758
 1497TIP3   OH225981   5.369   0.242  15.340 -0.2354 -0.3797  0.0058
 1497TIP3    H125982   5.307   0.315  15.347 -0.2632 -0.4532  0.6376
 1497TIP3    H225983   5.359   0.194  15.423  1.2595  0.0849  0.4997
 1498TIP3   OH225984   0.817   6.249  16.686  0.1644  0.1797  0.2581
 1498TIP3    H125985   0.903   6.226  16.652  1.0739  2.4914  0.7993
 1498TIP3    H225986   0.756   6.224  16.616  1.2661 -1.2599 -0.2365
 1499TIP3   OH225987   4.115   4.820  11.250  0.4655  0.5404  0.1550
 1499TIP3    H125988   4.042   4.780  11.297  1.0394 -0.9597 -0.1847
 1499TIP3    H225989   4.121   4.771  11.168  1.9688  0.5065  0.2600
 1500TIP3   OH225990   1.980   0.926   4.220 -0.2894  0.2231 -0.2855
 1500TIP3    H125991   2.006   0.872   4.145  1.6837  1.8958 -0.8996
 1500TIP3    H225992   1.915   0.986   4.184  0.7558  1.1147 -0.7257
 1501TIP3   OH225993   6.313   2.597  11.970 -0.0594  0.2905  0.1254
 1501TIP3    H125994   6.254   2.657  11.924 -0.8056  1.3909  2.4011
 1501TIP3    H225995   6.278   2.591  12.059  1.5207 -1.4825  0.7054
 1502TIP3   OH225996   0.615   2.689   3.866 -0.4372 -0.0085  0.4492
 1502TIP3    H125997   0.543   2.666   3.925 -0.4305 -0.2869  0.3523
 1502TIP3    H225998   0.637   2.607   3.822  0.6439 -0.1678  1.2355
 1503TIP3   OH225999   5.026   5.558  12.509 -0.0507 -0.0315 -0.2242
 1503TIP3    H126000   5.112   5.518  12.494 -0.4825 -0.7196 -1.0043
 1503TIP3    H226001   5.019   5.624  12.440 -0.2813 -0.2034 -0.3642
 1504TIP3   OH226002   4.835   5.350  16.528 -0.5221  0.0166  0.1370
 1504TIP3    H126003   4.892   5.320  16.599 -1.2623  0.3428  0.8925
 1504TIP3    H226004   4.885   5.418  16.484 -0.2821  0.2338  0.7281
 1505TIP3   OH226005   2.483   1.211  14.793 -0.4999  0.1337 -0.0318
 1505TIP3    H126006   2.494   1.213  14.698  1.2326  0.5719  0.1419
 1505TIP3    H226007   2.435   1.290  14.814 -0.6901  0.1472 -0.5224
 1506TIP3   OH226008   5.177   1.581  14.469  0.0010  0.2266  0.2197
 1506TIP3    H126009   5.149   1.526  14.396  1.9480  0.1488 -0.5390
 1506TIP3    H226010   5.116   1.654  14.470 -0.3198 -0.0081 -1.2241
 1507TIP3   OH226011   6.755   3.102   4.164 -0.0272  0.1327 -0.0263
 1507TIP3    H126012   6.680   3.051   4.134 -0.3042  1.5216 -1.9091
 1507TIP3    H226013   6.739   3.116   4.257 -0.2368 -2.6148  0.4173
 1508TIP3   OH226014   0.068   3.937  13.867 -0.3431  0.0415 -0.1985
 1508TIP3    H126015   0.039   3.883  13.940 -0.2071 -1.0965 -0.9599
 1508TIP3    H226016   0.036   4.025  13.887 -3.1101 -0.8746 -0.3231
 1509TIP3   OH226017   6.596   2.534  16.453 -0.2112  0.0667 -0.2322
 1509TIP3    H126018   6.543   2.460  16.424  0.3383 -0.8195  0.9172
 1509TIP3    H226019   6.678   2.494  16.482  0.0200  1.1157  0.6121
 1510TIP3   OH226020   5.323   4.375  13.340 -0.3941  0.6839 -0.9722
 1510TIP3    H126021   5.233   4.373  13.307 -0.9990 -1.1690  0.5830
 1510TIP3    H226022   5.314   4.354  13.433  1.4321  3.0891 -0.1462
 1511TIP3   OH226023   5.461   2.168   5.558 -0.5546  0.0468  0.5823
 1511TIP3    H126024   5.424   2.196   5.474 -1.1888  2.2289  1.5299
 1511TIP3    H226025   5.409   2.215   5.623  1.0756 -0.2359  2.1335
 1512TIP3   OH226026   2.188   2.125   3.817 -0.0307 -0.5622 -0.6133
 1512TIP3    H126027   2.180   2.129   3.912  1.8183  1.6678 -0.4621
 1512TIP3    H226028   2.110   2.170   3.784  1.0904  2.0771  0.0589
 1513TIP3   OH226029   1.935   1.778  13.406 -0.3613  0.3476  0.9697
 1513TIP3    H126030   2.002   1.711  13.421 -1.9335 -1.3851  0.6266
 1513TIP3    H226031   1.859   1.729  13.375 -0.7373  2.5722 -2.0760
 1514TIP3   OH226032   5.169   4.856  12.278  0.2119  0.1587  0.0994
 1514TIP3    H126033   5.222   4.871  12.356  0.3907  0.9434 -0.1635
 1514TIP3    H226034   5.093   4.912  12.289  0.3770  0.4940 -0.4176
 1515TIP3   OH226035   5.518   3.092   5.647  0.0553 -0.6967  0.3322
 1515TIP3    H126036   5.440   3.144   5.668 -1.4791 -3.1959  1.2577
 1515TIP3    H226037   5.548   3.059   5.732  1.8090 -0.2426 -0.0872
 1516TIP3   OH226038   3.815   6.806  16.402  0.2501  0.5405  0.8370
 1516TIP3    H126039   3.780   6.726  16.363  1.0001  1.1426 -1.2151
 1516TIP3    H226040   3.861   6.777  16.480 -0.4067 -0.8889  0.7159
 1517TIP3   OH226041   0.379   6.790   4.072 -0.2698 -0.3426  0.0003
 1517TIP3    H126042   0.405   6.707   4.111  2.7504  0.5808  0.2194
 1517TIP3    H226043   0.383   6.853   4.145  1.3494  0.6598 -0.9045
 1518TIP3   OH226044   6.089   5.471  13.736 -0.0994  0.2282  0.0345
 1518TIP3    H126045   6.169   5.520  13.750 -0.9859  1.5997  0.4745
 1518TIP3    H226046   6.043   5.519  13.666  0.0521 -1.3025 -1.1783
 1519TIP3   OH226047   4.316   2.726  16.825 -0.3902 -0.6393  0.0690
 1519TIP3    H126048   4.233   2.774  16.825  0.9749  1.9586 -1.5302
 1519TIP3    H226049   4.366   2.766  16.897  1.1115  1.1837 -1.8578
 1520TIP3   OH226050   2.216   2.258   0.913  0.3810  0.2055 -0.2195
 1520TIP3    H126051   2.157   2.191   0.948  1.0710 -0.0926  0.4151
 1520TIP3    H226052   2.297   2.211   0.895  0.2020  0.4528 -1.8163
 1521TIP3   OH226053   2.144   5.453   6.301  0.0750  0.4410  0.3184
 1521TIP3    H126054   2.073   5.436   6.363 -0.9999 -0.4722 -1.0818
 1521TIP3    H226055   2.139   5.380   6.239  1.6674  0.8576 -0.3441
 1522TIP3   OH226056   2.659   6.032   6.758 -0.6491  0.3322  0.1905
 1522TIP3    H126057   2.589   5.977   6.723  0.3790 -0.6331 -0.4094
 1522TIP3    H226058   2.637   6.120   6.729 -0.4139 -0.2820 -1.9954
 1523TIP3   OH226059   6.794   0.173  16.044  0.3701 -0.1602 -0.4083
 1523TIP3    H126060   6.764   0.263  16.032  0.5991 -0.1996 -1.3889
 1523TIP3    H226061   6.833   0.172  16.131 -2.2148 -0.0490  0.8716
 1524TIP3   OH226062   3.808   2.704  11.769  0.1209  0.0349  0.2086
 1524TIP3    H126063   3.872   2.736  11.833  0.1254  2.4872 -0.8889
 1524TIP3    H226064   3.725   2.703  11.817  0.5685 -0.9001  0.9960
 1525TIP3   OH226065   3.393   2.707   5.231 -0.3105 -0.0266 -0.2101
 1525TIP3    H126066   3.368   2.727   5.141 -1.2443  0.1707  0.0767
 1525TIP3    H226067   3.362   2.618   5.245 -1.2278  0.3587  0.2735
 1526TIP3   OH226068   5.104   0.085  14.006  0.6187  0.2416 -0.1869
 1526TIP3    H126069   5.091   0.152  14.073  0.8683  0.7031 -0.5929
 1526TIP3    H226070   5.196   0.059  14.015  1.0993  1.4521 -1.3818
 1527TIP3   OH226071   1.737   1.696   0.414 -0.6093  0.3288  0.0422
 1527TIP3    H126072   1.782   1.685   0.330 -1.8286 -0.7532 -0.5030
 1527TIP3    H226073   1.684   1.775   0.401 -1.6526 -0.4602 -0.6267
 1528TIP3   OH226074   0.018   5.332  11.459  0.4410 -0.0735  0.5493
 1528TIP3    H126075  -0.026   5.291  11.533  3.2228 -0.9754  1.8453
 1528TIP3    H226076  -0.048   5.337  11.391 -1.7141 -0.9382  2.4583
 1529TIP3   OH226077   4.594   4.184   4.836  0.4739 -0.2582  0.0807
 1529TIP3    H126078   4.622   4.226   4.754 -2.5408  0.6266 -0.6434
 1529TIP3    H226079   4.636   4.235   4.905  0.7470  0.8904 -0.8967
 1530TIP3   OH226080   2.580   0.470  15.539  0.5012 -0.2368 -0.2849
 1530TIP3    H126081   2.509   0.428  15.589  0.3773  1.9391  1.5588
 1530TIP3    H226082   2.536   0.539  15.489  1.3124  2.1308  2.0127
 1531TIP3   OH226083   1.561   5.694   4.675  0.1095 -0.1908 -0.7770
 1531TIP3    H126084   1.601   5.620   4.721  2.5224  0.7902 -1.1458
 1531TIP3    H226085   1.578   5.677   4.583  0.9265  0.9318 -0.8500
 1532TIP3   OH226086   2.275   4.695   0.168 -0.4736 -0.3024 -0.5359
 1532TIP3    H126087   2.315   4.752   0.233 -1.3912 -0.2621  0.0127
 1532TIP3    H226088   2.321   4.612   0.177 -0.5346 -0.2723  0.1098
 1533TIP3   OH226089   4.803   1.278   3.133  0.0440 -0.0631 -0.0960
 1533TIP3    H126090   4.719   1.236   3.117 -0.7570  1.3988  0.1258
 1533TIP3    H226091   4.844   1.283   3.046 -1.0475  1.1296 -0.5803
 1534TIP3   OH226092   5.239   3.841   2.718 -0.0403 -0.1145  0.6211
 1534TIP3    H126093   5.326   3.860   2.754 -0.0805  1.5719 -0.0703
 1534TIP3    H226094   5.254   3.834   2.623 -0.9913  2.8368  0.1627
 1535TIP3   OH226095   0.324   4.008   0.375 -0.2084  0.5875 -0.1990
 1535TIP3    H126096   0.396   3.950   0.349 -1.5599 -0.9601 -0.6933
 1535TIP3    H226097   0.306   4.061   0.297 -0.7970 -0.3384 -0.7110
 1536TIP3   OH226098   0.391   5.992  11.078  0.3336  0.0525 -0.0374
 1536TIP3    H126099   0.438   5.996  10.995  0.5801 -0.4414  0.0707
 1536TIP3    H226100   0.299   5.997  11.055  0.4234  0.5238 -0.2940
 1537TIP3   OH226101   4.506   4.985  14.727 -0.4504  0.6742  0.0352
 1537TIP3    H126102   4.444   4.985  14.654  0.2964  0.4603 -0.6091
 1537TIP3    H226103   4.485   5.065  14.776 -0.6751  1.0473 -0.6555
 1538TIP3   OH226104   4.581   5.218  13.228 -0.1099  0.3853  0.5312
 1538TIP3    H126105   4.495   5.258  13.213 -0.0688 -0.2156 -1.7460
 1538TIP3    H226106   4.640   5.292  13.238 -0.5845  0.8471 -0.0062
 1539TIP3   OH226107   5.179   6.194   6.082  0.1940  0.2444  0.6364
 1539TIP3    H126108   5.222   6.161   6.161  2.0250  1.1544  0.0716
 1539TIP3    H226109   5.226   6.152   6.010 -0.3370  0.7241 -0.0084
 1540TIP3   OH226110   0.242   3.018   4.693 -0.5221  1.1169 -0.5331
 1540TIP3    H126111   0.181   2.994   4.624 -0.1668  0.4370 -0.6129
 1540TIP3    H226112   0.303   3.078   4.651 -0.0286  0.3471 -0.9433
 1541TIP3   OH226113   1.309   6.565  11.626  0.4816 -0.3235  0.3669
 1541TIP3    H126114   1.278   6.628  11.691  1.0155  0.2866  0.0503
 1541TIP3    H226115   1.298   6.480  11.667 -0.1610 -0.0121  0.8476
 1542TIP3   OH226116   4.925   0.190  11.622  0.0575  0.0568 -0.0628
 1542TIP3    H126117   4.862   0.238  11.676 -0.6872  0.7739 -1.5052
 1542TIP3    H226118   4.872   0.128  11.572  0.9065 -1.6748  1.0828
 1543TIP3   OH226119   5.259   4.949  16.585 -0.2789  0.1943 -0.0457
 1543TIP3    H126120   5.299   5.025  16.626 -0.9068  0.8518 -0.6330
 1543TIP3    H226121   5.322   4.920  16.519 -0.4272  0.7421 -0.4249
 1544TIP3   OH226122   1.158   5.129   6.065  0.4029  0.1656  0.6213
 1544TIP3    H126123   1.197   5.208   6.027 -0.1603 -0.3962 -1.2661
 1544TIP3    H226124   1.086   5.161   6.118  0.6269  0.9648  0.4541
 1545TIP3   OH226125   0.825   2.297   3.314  0.1305 -0.2386  0.2497
 1545TIP3    H126126   0.900   2.263   3.363  0.7619 -0.1227 -0.6081
 1545TIP3    H226127   0.808   2.230   3.247 -2.0472 -1.4103  1.8597
 1546TIP3   OH226128   6.818   4.947   0.916  0.3203 -0.2908 -0.4847
 1546TIP3    H126129   6.794   4.855   0.908 -1.0042 -0.0533  0.5188
 1546TIP3    H226130   6.763   4.981   0.986  1.8291  0.9262  0.1784
 1547TIP3   OH226131   3.022   2.377   2.427 -0.1117  0.2236 -0.1076
 1547TIP3    H126132   3.080   2.422   2.488 -1.3848  1.2415  0.4031
 1547TIP3    H226133   3.022   2.431   2.348  1.2632 -0.9093 -0.9402
 1548TIP3   OH226134   2.586   2.207  14.038  0.3820  0.4360 -0.2436
 1548TIP3    H126135   2.635   2.146  14.092 -1.3793 -1.1748 -0.3620
 1548TIP3    H226136   2.498   2.208  14.075 -0.7005 -0.1634 -2.5736
 1549TIP3   OH226137   4.655   5.054  12.565  0.2754  0.4561  0.4080
 1549TIP3    H126138   4.749   5.038  12.579  0.0823  0.1212  1.3468
 1549TIP3    H226139   4.648   5.070  12.471  1.1777 -0.1830  0.2172
 1550TIP3   OH226140   0.647   1.831   4.195  0.2491  0.2916  0.5380
 1550TIP3    H126141   0.554   1.851   4.206 -0.0985  0.1703 -1.7029
 1550TIP3    H226142   0.691   1.915   4.211 -0.4567  0.8737 -0.4625
 1551TIP3   OH226143   6.622   1.896  16.331  0.5117  0.4045  0.0844
 1551TIP3    H126144   6.646   1.961  16.397 -0.0800 -0.8156  1.5426
 1551TIP3    H226145   6.526   1.895  16.333  0.4666  0.6836 -1.1548
 1552TIP3   OH226146   1.332   5.193   1.286 -0.2073  0.3943  0.5261
 1552TIP3    H126147   1.412   5.144   1.267 -0.0548 -0.0944  2.2622
 1552TIP3    H226148   1.363   5.277   1.321 -0.4758  0.9992 -0.6300
 1553TIP3   OH226149   3.664   6.292  11.065 -0.9538 -0.0554  0.4032
 1553TIP3    H126150   3.738   6.252  11.018  1.2619  3.0704  0.8926
 1553TIP3    H226151   3.609   6.328  10.996 -0.8651 -0.5355  0.0771
 1554TIP3   OH226152   1.531   3.722   2.639  0.4459 -0.1165 -0.8807
 1554TIP3    H126153   1.590   3.782   2.592  0.3029  0.3362 -0.4850
 1554TIP3    H226154   1.590   3.659   2.681  0.5444 -1.0661 -2.3717
 1555TIP3   OH226155   0.213   4.700   2.912 -0.2371  0.2059 -0.7301
 1555TIP3    H126156   0.187   4.789   2.888 -0.4650 -0.1719 -1.9241
 1555TIP3    H226157   0.295   4.711   2.960  1.0415  0.8928 -2.9730
 1556TIP3   OH226158   6.663   1.238  12.924  0.0488  0.3971  0.4487
 1556TIP3    H126159   6.662   1.227  12.829  0.0188  1.2322  0.3414
 1556TIP3    H226160   6.592   1.183  12.956  0.7346 -0.7191  0.0877
 1557TIP3   OH226161   4.342   2.515  15.557 -0.0938 -0.6946  0.1118
 1557TIP3    H126162   4.255   2.483  15.581 -0.6498  0.2769 -0.5573
 1557TIP3    H226163   4.364   2.576  15.627  0.0034 -0.8468  0.2157
 1558TIP3   OH226164   2.566   6.437  13.494 -0.4176 -0.2208 -0.4623
 1558TIP3    H126165   2.614   6.408  13.416 -0.3527  1.2478 -0.9893
 1558TIP3    H226166   2.630   6.487  13.544 -0.9665  0.4115 -0.3867
 1559TIP3   OH226167   1.577   4.930   2.259 -0.1494  0.6890 -0.0343
 1559TIP3    H126168   1.560   4.858   2.320 -3.6902  1.7452  0.4823
 1559TIP3    H226169   1.561   5.009   2.311 -0.7697  1.6930 -1.6752
 1560TIP3   OH226170   3.660   3.462   1.279 -0.3064 -0.1472 -0.0010
 1560TIP3    H126171   3.591   3.426   1.336  0.4399 -1.7132 -0.0296
 1560TIP3    H226172   3.657   3.556   1.295 -1.0363 -0.3968  1.6062
 1561TIP3   OH226173   4.311   1.729   4.609 -0.2921  0.0880  0.0987
 1561TIP3    H126174   4.317   1.804   4.549  1.2392  0.3608  0.5364
 1561TIP3    H226175   4.402   1.704   4.624 -0.5757  0.3326  2.6690
 1562TIP3   OH226176   3.285   1.392   4.823 -0.0386  0.3569 -0.3197
 1562TIP3    H126177   3.263   1.335   4.897 -0.0333 -0.6100 -1.0299
 1562TIP3    H226178   3.378   1.409   4.831  0.4682 -1.6389 -1.3185
 1563TIP3   OH226179   6.084   5.838   3.176  0.1086  0.3224  0.0900
 1563TIP3    H126180   6.136   5.895   3.119 -0.8872 -0.4615 -1.6756
 1563TIP3    H226181   6.072   5.758   3.125 -1.5958 -0.0706  1.0269
 1564TIP3   OH226182   5.082   2.379  13.860  0.6242 -0.1221 -0.2706
 1564TIP3    H126183   5.017   2.328  13.812  0.4402  0.6800 -0.8939
 1564TIP3    H226184   5.050   2.469  13.856  1.0532  0.0821  0.6256
 1565TIP3   OH226185   3.461   4.236   5.368 -0.4388 -0.0009  0.1043
 1565TIP3    H126186   3.382   4.285   5.346 -1.0611 -0.7245  0.6963
 1565TIP3    H226187   3.458   4.159   5.311  0.8806  0.9382 -1.3126
 1566TIP3   OH226188   1.946   2.892  12.876  0.4513  0.4786  0.0950
 1566TIP3    H126189   1.953   2.979  12.839 -1.9682  1.2726  1.2885
 1566TIP3    H226190   1.892   2.843  12.814  0.2521  0.4106  0.3167
 1567TIP3   OH226191   5.262   5.185   2.461  0.4378  0.0051  0.6604
 1567TIP3    H126192   5.171   5.175   2.489 -0.0372 -0.3557 -0.9337
 1567TIP3    H226193   5.281   5.278   2.473  0.2205 -0.1026  1.9868
 1568TIP3   OH226194   4.845   0.746   2.337 -0.3516  0.2826  0.1936
 1568TIP3    H126195   4.847   0.743   2.241 -1.5505 -2.4344  0.1525
 1568TIP3    H226196   4.922   0.696   2.364 -0.3949  0.4585  0.6507
 1569TIP3   OH226197   1.643   2.890   0.193 -0.7324  0.3211 -0.3637
 1569TIP3    H126198   1.564   2.925   0.151  0.6349  2.3370 -1.4508
 1569TIP3    H226199   1.712   2.901   0.127  0.7547  0.0536  1.0771
 1570TIP3   OH226200   1.963   3.681   4.564 -0.0873 -0.0654 -0.3964
 1570TIP3    H126201   1.993   3.721   4.482  0.8955 -0.1569 -0.0997
 1570TIP3    H226202   2.035   3.696   4.625 -0.4788 -0.6868  0.2307
 1571TIP3   OH226203   2.303   5.739   0.905  0.4009 -0.0399 -0.5146
 1571TIP3    H126204   2.358   5.665   0.930 -1.2546 -0.6568  1.5851
 1571TIP3    H226205   2.343   5.815   0.947  0.7670 -0.1274 -0.7018
 1572TIP3   OH226206   4.508   1.948   4.738  0.2982  0.2142 -0.0500
 1572TIP3    H126207   4.516   1.900   4.820 -0.8360 -2.8197 -1.5521
 1572TIP3    H226208   4.593   1.938   4.695  1.0065  2.0928  0.8158
 1573TIP3   OH226209   0.416   3.258  11.828  0.1079 -0.4246 -0.2640
 1573TIP3    H126210   0.394   3.170  11.860 -0.2106 -0.2218  0.0930
 1573TIP3    H226211   0.331   3.300  11.815  0.2359 -0.4990 -1.3876
 1574TIP3   OH226212   2.493   2.133   1.712  0.6559  0.1118  0.0021
 1574TIP3    H126213   2.536   2.212   1.745  0.4768  0.9338 -1.6637
 1574TIP3    H226214   2.402   2.159   1.700  0.4924 -0.5031 -0.1118
 1575TIP3   OH226215   5.331   5.349  13.322 -0.2217 -0.0320  0.1975
 1575TIP3    H126216   5.325   5.379  13.413  1.9095  1.2517 -0.0296
 1575TIP3    H226217   5.391   5.275  13.325 -0.1973 -0.0310 -0.1766
 1576TIP3   OH226218   6.308   2.392   4.158 -0.5795  0.4179 -0.5676
 1576TIP3    H126219   6.361   2.413   4.235 -1.5585 -0.3478  0.3608
 1576TIP3    H226220   6.352   2.318   4.118 -0.3127  0.5261 -0.4788
 1577TIP3   OH226221   6.687   2.876   1.294 -0.2506  0.3368  0.0454
 1577TIP3    H126222   6.761   2.880   1.355  0.3989 -0.1461 -0.6850
 1577TIP3    H226223   6.721   2.825   1.220 -1.6980 -0.9556  0.2363
 1578TIP3   OH226224   5.545   6.197  14.648  0.4692 -0.1835  0.3708
 1578TIP3    H126225   5.510   6.258  14.714  0.2134 -0.5317  0.5592
 1578TIP3    H226226   5.477   6.130  14.639 -0.6761  1.1469 -2.0547
 1579TIP3   OH226227   0.462   3.911  17.087 -1.0863  0.3593  0.1131
 1579TIP3    H126228   0.421   3.913  17.000 -0.9840  0.2719  0.0635
 1579TIP3    H226229   0.388   3.917  17.148 -1.0438  2.7990  0.0198
 1580TIP3   OH226230   5.262   4.637  14.194  0.0846 -0.1710  0.0439
 1580TIP3    H126231   5.337   4.582  14.218 -0.5945 -0.4354  1.6929
 1580TIP3    H226232   5.218   4.588  14.125  1.9833  0.5018 -1.7606
 1581TIP3   OH226233   5.191   6.190  11.111  0.3900 -0.2026 -0.4384
 1581TIP3    H126234   5.169   6.105  11.149  0.0005  0.3292  0.5893
 1581TIP3    H226235   5.154   6.188  11.023 -1.8442 -0.1966  0.4314
 1582TIP3   OH226236   2.374   0.281   5.209  0.0211  0.3758  0.2691
 1582TIP3    H126237   2.344   0.257   5.121 -0.8621 -0.1644  0.6969
 1582TIP3    H226238   2.469   0.280   5.203 -0.0294  1.1615 -0.8930
 1583TIP3   OH226239   5.042   4.085   5.188 -0.7706  0.3085  0.6832
 1583TIP3    H126240   5.020   3.993   5.173  0.3832  0.1224  0.0502
 1583TIP3    H226241   5.137   4.090   5.175 -0.4507  1.1609  2.9518
 1584TIP3   OH226242   2.194   6.810   3.376  0.9182 -0.0226 -0.7498
 1584TIP3    H126243   2.134   6.800   3.450  0.7699  0.6610 -0.7778
 1584TIP3    H226244   2.275   6.769   3.406  0.8760  0.2928 -0.1953
 1585TIP3   OH226245   4.604   4.329   0.103  0.0926 -0.3740  0.5171
 1585TIP3    H126246   4.658   4.253   0.124  0.6018 -0.3770 -0.7210
 1585TIP3    H226247   4.551   4.301   0.028  0.9193  0.7549 -0.5273
 1586TIP3   OH226248   1.492   2.910   0.454  0.5468 -0.7380 -0.2111
 1586TIP3    H126249   1.473   2.929   0.546  0.5634  0.2498 -0.4089
 1586TIP3    H226250   1.583   2.878   0.455  1.3914  1.4663 -0.1230
 1587TIP3   OH226251   1.210   4.933  12.460  0.1919  0.2691 -0.0428
 1587TIP3    H126252   1.238   4.977  12.380  0.6816 -0.5432 -0.3347
 1587TIP3    H226253   1.150   4.865  12.429  0.3633 -0.0294  0.2836
 1588TIP3   OH226254   2.221   5.390   2.559 -0.1536  0.1120 -0.3628
 1588TIP3    H126255   2.157   5.408   2.628 -0.4283 -0.4371 -0.4687
 1588TIP3    H226256   2.285   5.460   2.567  0.1867 -0.3224  0.8917
 1589TIP3   OH226257   0.812   1.335   3.471 -0.4927  0.3598 -0.5202
 1589TIP3    H126258   0.786   1.362   3.558  0.0007  1.3654 -0.6652
 1589TIP3    H226259   0.805   1.240   3.472 -0.7432  0.3782  0.5267
 1590TIP3   OH226260   5.169   2.718  10.663 -0.7492 -0.4264 -0.0390
 1590TIP3    H126261   5.176   2.691  10.572 -1.2665 -0.6840 -0.0031
 1590TIP3    H226262   5.258   2.707  10.698 -0.9060 -1.9733 -0.0548
 1591TIP3   OH226263   6.687   3.585  11.543  0.2220 -0.2404 -0.3268
 1591TIP3    H126264   6.669   3.676  11.518  0.3939  0.0347  0.5176
 1591TIP3    H226265   6.601   3.547  11.560  0.0840 -0.5100 -1.5752
 1592TIP3   OH226266   5.722   6.020   5.035 -0.5783 -0.2046 -0.4232
 1592TIP3    H126267   5.794   6.039   4.974 -0.8905  1.0418 -0.4367
 1592TIP3    H226268   5.671   5.951   4.992  0.2127 -0.6133 -0.7307
 1593TIP3   OH226269   5.668   0.991   5.253 -0.0533  0.4355  0.0065
 1593TIP3    H126270   5.620   0.953   5.179  2.3986 -2.4906 -0.2806
 1593TIP3    H226271   5.758   1.000   5.221  1.2247 -1.4475  2.6707
 1594TIP3   OH226272   4.288   1.027   3.347  0.1563 -0.4266 -0.0233
 1594TIP3    H126273   4.288   1.098   3.283  3.0577  0.3444  0.6929
 1594TIP3    H226274   4.212   1.045   3.403 -0.5274  0.7228 -1.2708
 1595TIP3   OH226275   6.693   6.574  16.369 -0.3217  0.1320  0.6725
 1595TIP3    H126276   6.760   6.583  16.302  0.5710 -0.9654  1.3708
 1595TIP3    H226277   6.610   6.588  16.323  0.3259  0.3759 -0.4443
 1596TIP3   OH226278   1.702   3.557  16.388 -0.0357 -0.0832 -0.3039
 1596TIP3    H126279   1.796   3.545  16.400  0.3558  0.5371 -2.4126
 1596TIP3    H226280   1.692   3.652  16.376 -1.0276 -0.0765  0.4524
 1597TIP3   OH226281   6.615   3.642   4.033  0.8567  0.4753  0.2684
 1597TIP3    H126282   6.627   3.572   3.969  0.2196  0.7766 -0.1954
 1597TIP3    H226283   6.604   3.721   3.980 -1.6195  0.4616  0.6259
 1598TIP3   OH226284   3.766   1.704  10.419 -0.0284  0.0387 -0.1029
 1598TIP3    H126285   3.806   1.628  10.461 -2.7841 -0.3779  2.1288
 1598TIP3    H226286   3.732   1.670  10.336  0.0242 -0.8070  0.2073
 1599TIP3   OH226287   3.067   5.417   4.919 -0.0675  0.1760  0.7242
 1599TIP3    H126288   3.088   5.464   4.999 -0.2414  0.1120  0.8089
 1599TIP3    H226289   3.038   5.330   4.949  0.0545  0.0851  0.5817
 1600TIP3   OH226290   3.426   4.310  13.110 -1.0304  0.3055  0.1871
 1600TIP3    H126291   3.393   4.221  13.113 -0.9139  0.2864  1.0376
 1600TIP3    H226292   3.362   4.358  13.056 -0.2958 -0.6047 -1.5708
 1601TIP3   OH226293   1.880   0.624   1.510 -0.1841 -0.2328  0.7137
 1601TIP3    H126294   1.853   0.698   1.456  0.2640  0.1723  1.0369
 1601TIP3    H226295   1.859   0.547   1.458 -0.2247  0.1363  0.1795
 1602TIP3   OH226296   2.099   4.819  11.591  0.0168  0.2688 -0.1846
 1602TIP3    H126297   2.029   4.801  11.528 -1.0531 -1.6172  1.4208
 1602TIP3    H226298   2.053   4.846  11.671  1.2803  1.3489  0.2237
 1603TIP3   OH226299   4.685   1.585   2.201  0.0514  0.3734  0.5924
 1603TIP3    H126300   4.699   1.499   2.241 -3.8369 -0.1538  1.2308
 1603TIP3    H226301   4.756   1.639   2.236 -0.0505 -1.4263  4.0704
 1604TIP3   OH226302   5.003   1.850  13.553  0.3095 -0.2921 -0.3525
 1604TIP3    H126303   5.012   1.830  13.460  1.2835 -1.9336  0.0587
 1604TIP3    H226304   4.910   1.836  13.572  0.2028 -0.4292 -0.9684
 1605TIP3   OH226305   3.327   1.719   4.847  0.0684  0.2932 -0.6672
 1605TIP3    H126306   3.252   1.706   4.790 -2.1216 -1.0640  2.2764
 1605TIP3    H226307   3.376   1.637   4.842  0.0341  0.2789 -0.7748
 1606TIP3   OH226308   4.942   0.274   1.840 -0.2396  0.0015  0.2863
 1606TIP3    H126309   4.889   0.289   1.919 -0.3249  0.7688  0.0856
 1606TIP3    H226310   4.889   0.213   1.788 -0.3666 -0.1900  0.6331
 1607TIP3   OH226311   3.429   3.505  11.738  0.0033 -0.0017 -0.0215
 1607TIP3    H126312   3.383   3.587  11.717  1.1161  0.9713  1.1487
 1607TIP3    H226313   3.433   3.503  11.834  0.4844 -1.1494 -0.0441
 1608TIP3   OH226314   4.311   6.742   0.576 -0.4674  0.3212 -0.5264
 1608TIP3    H126315   4.366   6.709   0.505 -2.6362 -0.8549 -1.7799
 1608TIP3    H226316   4.370   6.749   0.651  1.0425 -2.6552 -1.2600
 1609TIP3   OH226317   1.546   3.285  14.850  0.6387  0.2249  0.5345
 1609TIP3    H126318   1.452   3.269  14.841  0.8374 -0.1916 -1.0006
 1609TIP3    H226319   1.579   3.288  14.760  2.5103 -2.2874  1.0063
 1610TIP3   OH226320   6.771   3.655   4.246 -0.1521  0.0021 -0.4375
 1610TIP3    H126321   6.714   3.651   4.169 -0.8075  0.9510 -0.0203
 1610TIP3    H226322   6.795   3.748   4.252 -1.0989  0.1595  1.2195
 1611TIP3   OH226323   2.514   2.655  12.034 -0.8168 -0.1860 -0.1061
 1611TIP3    H126324   2.572   2.580  12.051 -1.6812 -0.7881  0.3164
 1611TIP3    H226325   2.440   2.641  12.093 -0.6869  1.3854  0.4751
 1612TIP3   OH226326   6.583   5.411  12.119 -0.2477 -0.0518 -0.0844
 1612TIP3    H126327   6.557   5.333  12.167 -0.0073 -0.2898 -0.3384
 1612TIP3    H226328   6.587   5.383  12.028  0.7037  0.0268 -0.0765
 1613TIP3   OH226329   2.233   5.588  16.895 -0.4077 -0.0560  0.7761
 1613TIP3    H126330   2.275   5.603  16.810 -0.4346  0.8110  0.9141
 1613TIP3    H226331   2.156   5.644  16.894 -0.3644  0.0192  1.4086
 1614TIP3   OH226332   1.621   4.996   4.627  0.8153 -0.4186 -0.4667
 1614TIP3    H126333   1.677   5.020   4.554 -0.2216 -0.6776 -1.3688
 1614TIP3    H226334   1.602   4.903   4.615 -0.2368 -0.2170 -0.4983
 1615TIP3   OH226335   2.406   4.220   4.198 -0.1694  0.1181 -0.0178
 1615TIP3    H126336   2.342   4.244   4.132 -1.0662  2.5261  1.6039
 1615TIP3    H226337   2.374   4.137   4.234  0.1195 -1.0071 -2.2252
 1616TIP3   OH226338   3.084   5.606   5.139  0.4320  0.0713 -0.3835
 1616TIP3    H126339   3.044   5.654   5.066  1.6717  0.2419 -0.9748
 1616TIP3    H226340   3.132   5.673   5.188 -0.1183 -0.1033  0.4150
 1617TIP3   OH226341   1.102   4.700   4.364 -0.3030  0.0367  0.1462
 1617TIP3    H126342   1.028   4.642   4.343 -1.0722  0.8099  0.6363
 1617TIP3    H226343   1.178   4.656   4.327 -0.8849 -1.2111  0.3832
 1618TIP3   OH226344   2.854   4.052   4.658  0.1947  0.4179 -0.2569
 1618TIP3    H126345   2.928   4.113   4.664  0.5306 -0.0177  0.0543
 1618TIP3    H226346   2.823   4.044   4.749  0.3283 -0.0911 -0.2541
 1619TIP3   OH226347   2.403   0.449  14.583  0.1031  0.2357  0.4423
 1619TIP3    H126348   2.482   0.471  14.632  0.5905 -2.5675  1.1068
 1619TIP3    H226349   2.430   0.448  14.492  0.7487 -0.2180  0.6303
 1620TIP3   OH226350   2.130   3.784  10.780  0.3206  0.3167  0.2755
 1620TIP3    H126351   2.223   3.761  10.774  0.9504  2.5927  0.2477
 1620TIP3    H226352   2.121   3.862  10.725 -1.2498  1.1167  1.5653
 1621TIP3   OH226353   3.046   4.584  15.207 -0.1042 -0.8439 -0.0567
 1621TIP3    H126354   2.977   4.606  15.269  0.8717 -1.3312  1.2617
 1621TIP3    H226355   3.108   4.657  15.213  0.6576 -1.5264  0.5645
 1622TIP3   OH226356   4.733   4.130   3.498  0.3130 -0.1818 -0.0125
 1622TIP3    H126357   4.644   4.099   3.516 -0.7320  2.2474 -0.4989
 1622TIP3    H226358   4.754   4.187   3.572  0.3181  1.4038 -1.1848
 1623TIP3   OH226359   1.468   4.998   1.060 -0.1707  0.2011 -0.5275
 1623TIP3    H126360   1.539   5.062   1.058 -0.4075  0.5411  0.6520
 1623TIP3    H226361   1.511   4.914   1.075 -0.0352  0.5238  1.1424
 1624TIP3   OH226362   6.374   1.566   4.424 -0.0931 -0.2045 -0.3751
 1624TIP3    H126363   6.281   1.568   4.398  0.0343 -1.4651 -1.0344
 1624TIP3    H226364   6.373   1.585   4.517 -1.3099 -2.7053  0.2126
 1625TIP3   OH226365   4.213   3.707   0.720 -0.0248 -0.3614  0.5863
 1625TIP3    H126366   4.150   3.731   0.788 -0.0835 -0.4983  0.5789
 1625TIP3    H226367   4.265   3.636   0.759 -0.9933 -1.4373 -0.0339
 1626TIP3   OH226368   4.533   3.349  10.516  0.2080 -0.2752  0.4761
 1626TIP3    H126369   4.516   3.443  10.528  0.6530 -0.2500  0.9505
 1626TIP3    H226370   4.450   3.313  10.487  0.4679  0.5573 -1.4097
 1627TIP3   OH226371   4.296   0.957   1.291 -0.0443 -0.0146  0.7325
 1627TIP3    H126372   4.372   0.957   1.349  0.3263 -1.5398  0.3027
 1627TIP3    H226373   4.229   1.004   1.339  0.4139 -0.8046  2.2064
 1628TIP3   OH226374   0.342   5.427  16.669 -0.3412 -0.2450 -0.3606
 1628TIP3    H126375   0.278   5.460  16.607  0.1282 -0.7121 -1.1082
 1628TIP3    H226376   0.397   5.368  16.618 -0.3796 -1.1932  0.6535
 1629TIP3   OH226377   3.078   2.235   5.741 -0.3953  0.5511 -0.1684
 1629TIP3    H126378   3.103   2.202   5.827 -1.5152  1.3316  0.4970
 1629TIP3    H226379   3.138   2.193   5.680  1.2142  0.8888  1.1090
 1630TIP3   OH226380   1.887   1.499   0.973 -0.6337  0.2479 -0.0786
 1630TIP3    H126381   1.965   1.544   0.940 -1.1215  1.7014  0.6606
 1630TIP3    H226382   1.917   1.454   1.052 -0.4874  0.5797  0.0541
 1631TIP3   OH226383   0.169   0.790  15.294 -0.5231  0.0457  0.1691
 1631TIP3    H126384   0.145   0.720  15.355 -1.4472 -2.6151 -2.9262
 1631TIP3    H226385   0.089   0.841  15.284 -0.5291  0.1567  0.7683
 1632TIP3   OH226386   1.776   1.770  15.701  0.0442  0.3120  0.7600
 1632TIP3    H126387   1.864   1.808  15.707  0.2719 -0.1023  0.0585
 1632TIP3    H226388   1.736   1.813  15.625  0.0037 -0.2392  0.4674
 1633TIP3   OH226389   4.216   1.113  17.213  0.5468  0.4810  0.3569
 1633TIP3    H126390   4.172   1.194  17.187  1.0997  0.5869 -0.2923
 1633TIP3    H226391   4.194   1.051  17.143  0.5165  0.2064  0.6081
 1634TIP3   OH226392   3.597   5.472  14.972 -0.7610 -0.0347 -0.0172
 1634TIP3    H126393   3.627   5.528  14.901 -0.1157 -1.1446 -0.6414
 1634TIP3    H226394   3.575   5.389  14.930 -1.6643 -0.2779  0.8946
 1635TIP3   OH226395   5.310   5.062  12.789 -0.0634  0.0931  0.1310
 1635TIP3    H126396   5.230   5.082  12.741  0.4690 -0.4938 -1.0533
 1635TIP3    H226397   5.293   4.978  12.830 -0.5576  0.6445  1.0744
 1636TIP3   OH226398   0.409   3.389   4.372  0.1293  0.0565 -0.0761
 1636TIP3    H126399   0.371   3.301   4.374 -1.2374  0.6192  1.2380
 1636TIP3    H226400   0.342   3.443   4.330 -0.0069  0.8390  1.0855
 1637TIP3   OH226401   4.021   5.410  13.609  0.1063 -0.4499 -0.3189
 1637TIP3    H126402   4.027   5.437  13.517 -1.5658  1.6532  0.1173
 1637TIP3    H226403   3.929   5.422  13.631  0.2739 -1.9219  1.3827
 1638TIP3   OH226404   2.246   3.674  12.658  0.0823  0.3308 -0.1555
 1638TIP3    H126405   2.217   3.685  12.748  0.3719  0.9241 -0.1272
 1638TIP3    H226406   2.177   3.624  12.616 -0.4534  0.7687  0.1940
 1639TIP3   OH226407   0.781   1.214   1.237 -0.0737  0.3528 -0.1006
 1639TIP3    H126408   0.858   1.175   1.280 -1.2496 -2.0089  0.0476
 1639TIP3    H226409   0.782   1.177   1.149 -0.4697  1.1702 -0.4565
 1640TIP3   OH226410   5.060   2.711   5.244 -0.1176  0.3354  0.1289
 1640TIP3    H126411   5.110   2.636   5.276  0.4369  0.3272 -0.7195
 1640TIP3    H226412   5.126   2.770   5.207 -0.5051  1.4381  1.1375
 1641TIP3   OH226413   4.629   4.471  11.747 -0.0212 -0.3520  0.5438
 1641TIP3    H126414   4.547   4.520  11.738  0.1849 -0.0034  0.5383
 1641TIP3    H226415   4.657   4.454  11.657  0.1687 -0.0280  0.5363
 1642TIP3   OH226416   2.877   3.061  14.279  0.1015 -0.4349  0.1080
 1642TIP3    H126417   2.797   3.049  14.330  0.6806  2.0826  1.7884
 1642TIP3    H226418   2.855   3.028  14.191 -1.4239 -3.4914  1.4946
 1643TIP3   OH226419   0.958   3.652   3.172  0.6249  0.0728  0.4561
 1643TIP3    H126420   0.882   3.610   3.132 -0.4927  1.5066  0.9691
 1643TIP3    H226421   0.981   3.723   3.112  0.6593  0.5262  0.9971
 1644TIP3   OH226422   1.829   6.574   3.534  0.4906  0.4225 -0.5348
 1644TIP3    H126423   1.888   6.649   3.524 -0.3153  1.0228 -0.9028
 1644TIP3    H226424   1.855   6.513   3.466  1.2476  0.2981 -0.1425
 1645TIP3   OH226425   5.533   3.994   6.550 -0.3274  0.3065 -0.0888
 1645TIP3    H126426   5.613   4.047   6.552 -0.8721  1.3134 -1.9983
 1645TIP3    H226427   5.542   3.933   6.623  1.1856  1.8211  1.0594
 1646TIP3   OH226428   4.660   5.124   1.681 -0.1189 -0.0291  0.1711
 1646TIP3    H126429   4.611   5.171   1.614  1.4088 -0.3248 -1.2210
 1646TIP3    H226430   4.672   5.036   1.644  0.6076 -0.2415  0.8982
 1647TIP3   OH226431   0.301   2.713   1.334 -0.2560 -0.0500  0.3293
 1647TIP3    H126432   0.258   2.629   1.353 -1.0905  0.5490  1.1923
 1647TIP3    H226433   0.237   2.779   1.360  0.6104  0.8658  0.2010
 1648TIP3   OH226434   1.571   6.378   3.985 -0.1396  0.2276 -0.1357
 1648TIP3    H126435   1.651   6.333   4.013 -1.2298 -1.6368  0.1521
 1648TIP3    H226436   1.500   6.320   4.014 -1.5975  1.7965 -0.4426
 1649TIP3   OH226437   1.352   6.486   2.649 -0.4638 -0.1525  0.4584
 1649TIP3    H126438   1.289   6.432   2.697 -1.0975  2.0554  2.2723
 1649TIP3    H226439   1.302   6.561   2.619  0.9057  0.7690  0.3582
 1650TIP3   OH226440   4.243   4.428  13.783 -0.0636  0.0524  0.0071
 1650TIP3    H126441   4.198   4.513  13.776 -0.7108 -0.4186 -3.7906
 1650TIP3    H226442   4.173   4.365  13.796  0.2070 -0.0969  0.7526
 1651TIP3   OH226443   4.299   4.588   6.291  0.1744 -0.2657  0.2799
 1651TIP3    H126444   4.371   4.525   6.295 -1.6240 -2.8168 -2.6733
 1651TIP3    H226445   4.220   4.535   6.303 -1.3853  1.7157 -0.5689
 1652TIP3   OH226446   4.493   2.410  16.480 -0.0916  0.1588 -0.0883
 1652TIP3    H126447   4.440   2.331  16.470 -1.4072  1.1443 -1.1182
 1652TIP3    H226448   4.432   2.477  16.510  0.3702  1.5020 -1.9591
 1653TIP3   OH226449   0.001   4.895   4.497 -0.4560 -0.5482  0.6411
 1653TIP3    H126450   0.014   4.976   4.547 -1.2278  0.1123 -0.1758
 1653TIP3    H226451  -0.083   4.908   4.453 -0.7652 -1.9682  0.7882
 1654TIP3   OH226452   5.240   5.024  11.803  0.0733 -0.4044  0.2883
 1654TIP3    H126453   5.307   5.003  11.868  0.8739  1.0288 -0.0144
 1654TIP3    H226454   5.187   4.945  11.797  0.1147 -0.6694  2.4890
 1655TIP3   OH226455   5.376   5.144  14.514  0.6475  0.0363  0.0457
 1655TIP3    H126456   5.365   5.051  14.537 -1.3672 -0.1256 -1.3407
 1655TIP3    H226457   5.289   5.173  14.488  1.4335  2.0845 -0.4829
 1656TIP3   OH226458   0.108   5.558  15.895  0.5197 -0.2419  0.1967
 1656TIP3    H126459   0.133   5.640  15.852 -1.0268  1.6306  2.5935
 1656TIP3    H226460   0.052   5.514  15.832  0.2787  1.2135 -0.6598
 1657TIP3   OH226461   5.427   0.518  12.998 -0.0365  0.0323 -0.2839
 1657TIP3    H126462   5.341   0.505  13.038 -0.9034  1.2377 -1.6487
 1657TIP3    H226463   5.422   0.605  12.957  1.4266 -0.3561 -1.3810
 1658TIP3   OH226464   5.689   3.490  13.291 -0.4374 -0.6834  0.2068
 1658TIP3    H126465   5.736   3.475  13.373 -0.7657 -2.0489  0.1676
 1658TIP3    H226466   5.598   3.467  13.310 -0.5441 -0.8888 -0.5007
 1659TIP3   OH226467   3.838   5.201   1.024  0.3251  0.3657  0.0454
 1659TIP3    H126468   3.848   5.209   0.929  1.4772  1.0238  0.2049
 1659TIP3    H226469   3.795   5.117   1.037 -2.5416  1.5171 -1.2032
 1660TIP3   OH226470   2.302   5.393   4.993 -0.2102 -0.1981 -0.8324
 1660TIP3    H126471   2.264   5.332   4.930 -1.2142  0.6040 -1.0353
 1660TIP3    H226472   2.260   5.372   5.076  1.2482 -1.3767 -0.3494
 1661TIP3   OH226473   3.735   0.853   4.435  0.0064 -0.1808 -0.1261
 1661TIP3    H126474   3.716   0.759   4.432  0.0687 -0.2957  1.7957
 1661TIP3    H226475   3.660   0.891   4.482  0.3596  0.6074 -0.1769
 1662TIP3   OH226476   5.368   3.897  12.246 -0.2427 -0.1718 -0.8452
 1662TIP3    H126477   5.290   3.885  12.192 -0.4047  0.4068 -0.7490
 1662TIP3    H226478   5.412   3.973  12.209 -0.6513  0.5814  0.1695
 1663TIP3   OH226479   1.024   6.162  11.627 -0.2631 -0.5551 -0.1834
 1663TIP3    H126480   1.016   6.161  11.722  1.0587 -0.2613 -0.0425
 1663TIP3    H226481   0.936   6.180  11.595 -0.3007  1.8437  1.0759
 1664TIP3   OH226482   2.400   6.045  14.841  0.2351 -0.4893  0.3133
 1664TIP3    H126483   2.426   6.073  14.929 -0.0810  1.4173 -0.1369
 1664TIP3    H226484   2.388   5.951  14.847 -1.6370 -0.1932  2.8337
 1665TIP3   OH226485   4.557   1.890   3.903  0.2634 -0.4496  0.1749
 1665TIP3    H126486   4.584   1.838   3.828 -1.0089 -2.9046  1.2813
 1665TIP3    H226487   4.462   1.899   3.893  0.0688 -0.8369  1.4762
 1666TIP3   OH226488   6.014   6.121  15.450 -0.2755  0.5576  0.3648
 1666TIP3    H126489   6.058   6.037  15.463 -1.0645  0.0292 -0.2732
 1666TIP3    H226490   5.927   6.109  15.489 -1.0978  0.3977 -1.3891
 1667TIP3   OH226491   6.524   2.203   0.691 -0.1331 -0.1210 -0.2576
 1667TIP3    H126492   6.468   2.126   0.691 -0.4112  0.0826 -0.9129
 1667TIP3    H226493   6.557   2.209   0.601  1.0359 -0.3080  0.1340
 1668TIP3   OH226494   2.778   2.697   0.123 -0.0560 -0.0135  0.1325
 1668TIP3    H126495   2.699   2.664   0.166 -0.1248 -0.8105 -0.5698
 1668TIP3    H226496   2.836   2.720   0.195 -0.6283 -0.1641  0.6582
 1669TIP3   OH226497   4.699   0.729  13.962  0.5450 -0.4087  0.0921
 1669TIP3    H126498   4.739   0.798  14.013  1.6218 -0.7371 -0.2704
 1669TIP3    H226499   4.615   0.765  13.933  1.3382  0.9673 -0.5823
 1670TIP3   OH226500   4.285   2.603   0.044 -0.5220 -0.0450  0.0933
 1670TIP3    H126501   4.316   2.523   0.086  0.2446  0.2567  0.1058
 1670TIP3    H226502   4.350   2.622  -0.024 -1.5057 -0.2849 -0.9596
 1671TIP3   OH226503   1.325   2.173   1.754 -0.3906  0.1486  0.4540
 1671TIP3    H126504   1.286   2.163   1.841  0.6277  0.3713  0.9373
 1671TIP3    H226505   1.383   2.248   1.761 -0.0831 -0.0034 -0.3415
 1672TIP3   OH226506   3.388   0.420   1.755 -0.3183  0.6891  0.1937
 1672TIP3    H126507   3.352   0.347   1.806  0.4042  0.5140  0.4663
 1672TIP3    H226508   3.351   0.408   1.667 -0.3190  0.0684  0.2711
 1673TIP3   OH226509   3.472   5.120  11.496 -0.3348  0.2559  0.0549
 1673TIP3    H126510   3.398   5.169  11.461 -1.1756 -1.0887 -0.1274
 1673TIP3    H226511   3.516   5.181  11.555 -1.9455  0.8843  0.6460
 1674TIP3   OH226512   6.280   4.943   5.276 -0.0707  0.3996 -0.5876
 1674TIP3    H126513   6.298   4.920   5.367 -0.7438 -1.8099 -0.9642
 1674TIP3    H226514   6.256   5.036   5.280 -1.2817  0.0690  1.6594
 1675TIP3   OH226515   3.724   2.569   3.101 -0.7732 -0.5342 -0.7937
 1675TIP3    H126516   3.710   2.648   3.049 -0.4972  1.3367  1.7961
 1675TIP3    H226517   3.638   2.528   3.106 -1.0036 -0.2100 -1.8282
 1676TIP3   OH226518   1.928   6.638   6.405  0.0100  0.4211 -0.2358
 1676TIP3    H126519   1.882   6.720   6.422  1.5596  1.5058 -1.0625
 1676TIP3    H226520   1.992   6.659   6.338  0.5086 -1.4623 -0.4227
 1677TIP3   OH226521   5.696   1.092  12.668  0.3403  0.3802  0.0834
 1677TIP3    H126522   5.782   1.096  12.627  0.6548 -3.6590  0.0056
 1677TIP3    H226523   5.637   1.132  12.603  1.6909  0.0144 -1.4447
 1678TIP3   OH226524   1.018   4.374   3.930 -0.3133 -0.5899  0.0549
 1678TIP3    H126525   0.996   4.467   3.937 -1.4831 -0.6572 -2.0405
 1678TIP3    H226526   1.072   4.368   3.852  2.1276 -1.3449  1.6979
 1679TIP3   OH226527   0.896   6.740  14.556  0.1723 -0.1727 -0.6267
 1679TIP3    H126528   0.980   6.715  14.593  0.2637  0.5632 -0.3155
 1679TIP3    H226529   0.832   6.691  14.608  0.4438 -1.6604 -1.6399
 1680TIP3   OH226530   5.082   0.473   0.484 -0.2336  0.1457 -0.4729
 1680TIP3    H126531   5.051   0.398   0.534  0.0287 -0.7326 -1.6087
 1680TIP3    H226532   5.020   0.543   0.507  1.3135  0.5705  3.0444
 1681TIP3   OH226533   1.761   0.281   0.925  0.4525  0.3778 -0.0701
 1681TIP3    H126534   1.813   0.265   0.846 -0.3298  1.3750 -0.8346
 1681TIP3    H226535   1.670   0.271   0.896  0.1674 -1.9778  1.3855
 1682TIP3   OH226536   6.194   2.625  16.315  0.1218 -0.2699 -0.2673
 1682TIP3    H126537   6.264   2.684  16.342 -1.0321  0.4261  1.3428
 1682TIP3    H226538   6.222   2.539  16.347  0.9638 -0.2818 -1.0201
 1683TIP3   OH226539   2.485   1.832   2.485 -0.5246  0.2110  0.0750
 1683TIP3    H126540   2.541   1.815   2.409 -0.0223 -1.7236  0.8056
 1683TIP3    H226541   2.396   1.827   2.450 -0.2877  0.5786 -0.6043
 1684TIP3   OH226542   0.520   6.480   3.443  0.4250  0.0094 -1.1635
 1684TIP3    H126543   0.476   6.452   3.363 -2.9251  1.9298 -0.1998
 1684TIP3    H226544   0.538   6.573   3.429  0.8559  0.0998 -0.1288
 1685TIP3   OH226545   3.516   0.892   5.377  0.2069  0.0577 -0.4764
 1685TIP3    H126546   3.453   0.917   5.309  1.3465  0.2956 -1.4703
 1685TIP3    H226547   3.588   0.954   5.367  0.0510  0.6123  1.5055
 1686TIP3   OH226548   3.127   3.076   5.358 -0.6432 -0.6841 -0.0455
 1686TIP3    H126549   3.210   3.115   5.386  0.1139 -1.2118 -1.4402
 1686TIP3    H226550   3.128   2.988   5.394  0.8857 -1.7945 -2.5097
 1687TIP3   OH226551   1.730   3.259  13.328 -0.2308 -0.4433 -0.0439
 1687TIP3    H126552   1.677   3.267  13.249 -0.1156 -0.6583 -0.1447
 1687TIP3    H226553   1.724   3.345  13.370  0.5321  0.0083 -0.8128
 1688TIP3   OH226554   4.449   0.824  11.105  0.5908 -0.3406 -0.1978
 1688TIP3    H126555   4.470   0.881  11.031 -1.2834 -1.7512 -1.9150
 1688TIP3    H226556   4.384   0.872  11.155 -0.2984 -0.5350 -1.1306
 1689TIP3   OH226557   4.453   4.010   1.244  0.1078 -0.1945 -0.4273
 1689TIP3    H126558   4.500   4.001   1.327 -0.7541  0.8509  0.1881
 1689TIP3    H226559   4.521   4.000   1.178  1.4558  2.3709  0.4501
 1690TIP3   OH226560   2.292   4.530  13.769  0.1993 -0.3357 -0.4385
 1690TIP3    H126561   2.211   4.575  13.792  0.5982  0.0502  0.2564
 1690TIP3    H226562   2.352   4.550  13.841  0.0682 -2.8442  0.4980
 1691TIP3   OH226563   2.595   4.586  11.349 -0.0068 -0.0602  0.6304
 1691TIP3    H126564   2.548   4.529  11.288  1.5737  0.6058 -1.3177
 1691TIP3    H226565   2.681   4.545  11.358  0.4599  0.9483  0.8163
 1692TIP3   OH226566   2.300   0.830  13.702 -0.2684  0.3552 -0.0351
 1692TIP3    H126567   2.281   0.789  13.618  0.5317  0.2457 -0.1714
 1692TIP3    H226568   2.392   0.857  13.695  0.0959 -0.4905  1.1307
 1693TIP3   OH226569   1.572   1.276   3.274  0.3467 -0.0808 -0.4771
 1693TIP3    H126570   1.610   1.209   3.217  1.4945 -0.6296  0.8457
 1693TIP3    H226571   1.644   1.337   3.290  0.0795  0.0178  0.4174
 1694TIP3   OH226572   5.992   4.825  14.536 -0.4041 -0.1848  0.6075
 1694TIP3    H126573   6.038   4.772  14.601 -0.1265  0.2023  0.7274
 1694TIP3    H226574   6.020   4.789  14.452  0.0611  0.0005  0.6829
 1695TIP3   OH226575   0.671   1.316   3.734  0.2787  0.2449 -0.6782
 1695TIP3    H126576   0.648   1.406   3.760 -0.8525  0.1460 -1.2619
 1695TIP3    H226577   0.704   1.276   3.815  2.4149  1.6434 -0.7747
 1696TIP3   OH226578   6.457   2.112  14.026 -0.2367 -0.0117  0.2008
 1696TIP3    H126579   6.553   2.107  14.027 -0.0794  1.8946 -0.7718
 1696TIP3    H226580   6.428   2.028  14.063  1.7639 -1.4024 -1.1902
 1697TIP3   OH226581   4.888   3.852   5.166 -1.0697  0.4078  0.3381
 1697TIP3    H126582   4.898   3.784   5.233 -2.4917 -1.7168 -1.5114
 1697TIP3    H226583   4.794   3.861   5.154 -0.8518  1.3230 -0.8427
 1698TIP3   OH226584   1.567   1.926  12.958  0.5186 -0.1338 -0.0008
 1698TIP3    H126585   1.645   1.924  13.012 -0.1745 -0.2230  1.0211
 1698TIP3    H226586   1.499   1.961  13.015 -0.5409 -1.4732 -0.4068
 1699TIP3   OH226587   1.696   2.805   4.132 -0.5162  0.2738  0.1818
 1699TIP3    H126588   1.628   2.756   4.178  1.0193 -0.4044  1.8198
 1699TIP3    H226589   1.732   2.743   4.069  0.4047 -0.2506  1.2069
 1700TIP3   OH226590   6.108   6.334   5.274  0.0412 -1.0349  0.4027
 1700TIP3    H126591   6.016   6.343   5.247  0.6506  0.4338 -1.4292
 1700TIP3    H226592   6.122   6.405   5.337  0.0543 -0.8661  0.2132
 1701TIP3   OH226593   3.555   0.223  12.453 -0.0891  0.4173 -0.4921
 1701TIP3    H126594   3.513   0.303  12.484 -0.1950 -0.5492  2.1921
 1701TIP3    H226595   3.636   0.218  12.505  0.5638 -0.5536 -1.5678
 1702TIP3   OH226596   5.122   1.221  16.384 -0.0098  0.2114 -0.3825
 1702TIP3    H126597   5.179   1.296  16.403  0.5514  0.0614 -1.3975
 1702TIP3    H226598   5.182   1.147  16.374 -0.6756 -0.7894  2.3543
 1703TIP3   OH226599   1.599   6.001  16.495 -0.0393 -0.1072  0.6875
 1703TIP3    H126600   1.553   5.918  16.511  0.2561 -0.4555 -0.1477
 1703TIP3    H226601   1.665   6.006  16.564 -1.6047  0.6462  2.2049
 1704TIP3   OH226602   1.402   0.076   2.828  0.2140  0.7372 -0.6163
 1704TIP3    H126603   1.459   0.010   2.867  1.0841  0.6263 -2.0135
 1704TIP3    H226604   1.444   0.160   2.848  1.3266  0.6194 -2.2665
 1705TIP3   OH226605   0.255   4.471  16.603 -0.9250  0.2220  0.2634
 1705TIP3    H126606   0.300   4.443  16.523 -0.7532  0.4937  0.2639
 1705TIP3    H226607   0.267   4.398  16.664 -0.8582  0.1112  0.1194
 1706TIP3   OH226608   5.363   3.178  12.005 -0.1029  0.9444 -0.4076
 1706TIP3    H126609   5.400   3.151  12.089 -1.1191  1.0193  0.0806
 1706TIP3    H226610   5.335   3.269  12.019 -1.2535  0.6231 -0.4716
 1707TIP3   OH226611   1.603   2.240  12.072  0.4763 -0.3560 -0.3773
 1707TIP3    H126612   1.651   2.183  12.013  0.8093 -1.6860  1.1125
 1707TIP3    H226613   1.562   2.306  12.015  1.7940 -0.8320 -1.9279
 1708TIP3   OH226614   0.777   2.807   5.411 -0.5017  0.0418  0.0398
 1708TIP3    H126615   0.839   2.838   5.345  0.0755 -1.7335 -0.2975
 1708TIP3    H226616   0.693   2.805   5.366 -0.0146 -1.7160 -0.8703
 1709TIP3   OH226617   5.811   6.225   5.383 -1.0655  0.0119 -0.4380
 1709TIP3    H126618   5.863   6.276   5.321  0.2468 -1.6905 -0.8156
 1709TIP3    H226619   5.829   6.265   5.468 -1.3698  1.1795 -0.9047
 1710TIP3   OH226620   0.474   6.285  16.702 -0.4752 -0.4150 -0.5699
 1710TIP3    H126621   0.548   6.279  16.641 -0.7218 -0.6494 -0.8463
 1710TIP3    H226622   0.451   6.378  16.701 -0.4808 -0.4165 -0.8437
 1711TIP3   OH226623   5.970   2.562   3.320 -0.4061  0.0583  0.1801
 1711TIP3    H126624   5.993   2.489   3.262 -1.0988  1.1315 -1.5219
 1711TIP3    H226625   5.882   2.540   3.353  0.1620 -0.7580  1.2224
 1712TIP3   OH226626   4.525   6.118  16.517  0.0790 -0.0883 -0.0687
 1712TIP3    H126627   4.474   6.166  16.582 -1.5109  1.5772 -2.3690
 1712TIP3    H226628   4.611   6.109  16.556  0.0166  3.3346  1.1820
 1713TIP3   OH226629   0.692   4.399   5.148 -0.2739 -0.5570 -0.6842
 1713TIP3    H126630   0.708   4.417   5.055 -2.2497 -2.2188 -1.4191
 1713TIP3    H226631   0.753   4.329   5.170  1.1107  0.7159 -0.3162
 1714TIP3   OH226632   4.887   0.997  14.990  0.1078 -0.7111 -0.7273
 1714TIP3    H126633   4.974   1.026  15.016 -0.9235  0.9220  1.2279
 1714TIP3    H226634   4.856   1.064  14.929 -1.1562  0.9099  1.5406
 1715TIP3   OH226635   6.792   1.885  13.409  0.1690  0.4377  0.2389
 1715TIP3    H126636   6.711   1.848  13.375 -0.3732  2.0750 -0.3631
 1715TIP3    H226637   6.800   1.970  13.365  2.3483  0.2092  0.0967
 1716TIP3   OH226638   4.853   2.269  15.489 -0.1469  0.2498  0.5740
 1716TIP3    H126639   4.789   2.290  15.421  0.6331  2.2634  0.3984
 1716TIP3    H226640   4.813   2.196  15.537 -1.0818 -0.6946 -1.4946
 1717TIP3   OH226641   4.710   4.032   1.118 -0.0767 -0.1710 -0.4842
 1717TIP3    H126642   4.708   4.102   1.183  1.1088 -0.4573 -0.1014
 1717TIP3    H226643   4.796   3.991   1.130 -0.7367 -1.7075 -0.6818
 1718TIP3   OH226644   0.506   1.708  12.689 -0.3187  0.2674 -0.0557
 1718TIP3    H126645   0.442   1.775  12.666 -0.9713 -0.6214 -0.9197
 1718TIP3    H226646   0.454   1.629  12.705  0.0921  0.6583  4.3414
 1719TIP3   OH226647   4.939   3.797  16.396 -0.3529  0.2912 -0.7616
 1719TIP3    H126648   4.871   3.849  16.439  0.1317  1.6977 -1.6191
 1719TIP3    H226649   5.004   3.862  16.369  0.7075 -0.8836 -1.0958
 1720TIP3   OH226650   6.251   1.022   3.609  0.6861 -0.1735  0.3920
 1720TIP3    H126651   6.308   0.964   3.660 -0.9839 -1.8707  0.4495
 1720TIP3    H226652   6.216   0.966   3.540 -0.3602  0.9940 -0.0508
 1721TIP3   OH226653   1.970   1.599   2.593 -0.3505 -0.0468  0.3997
 1721TIP3    H126654   1.905   1.538   2.559  0.7754 -0.0991 -1.8847
 1721TIP3    H226655   1.945   1.684   2.557 -1.0577  0.6043  2.3312
 1722TIP3   OH226656   5.527   0.835   4.074 -0.3474 -0.0802 -0.4210
 1722TIP3    H126657   5.457   0.775   4.047 -1.1484  0.1703  1.0038
 1722TIP3    H226658   5.584   0.781   4.130  0.2773 -0.1181 -1.0732
 1723TIP3   OH226659   0.995   2.203  12.329 -0.4400 -0.4037  0.5307
 1723TIP3    H126660   1.016   2.159  12.411 -0.9811  0.0809  0.9385
 1723TIP3    H226661   0.938   2.142  12.283  0.5469 -1.0402  0.1290
 1724TIP3   OH226662   1.577   2.013  11.737  0.0668 -1.0454  0.4586
 1724TIP3    H126663   1.501   2.068  11.756  0.3643 -0.5477  0.2126
 1724TIP3    H226664   1.649   2.054  11.785  0.3364 -1.1072  0.1043
 1725TIP3   OH226665   5.584   2.326   1.443  0.4695 -0.2007  0.0023
 1725TIP3    H126666   5.649   2.373   1.494  0.2047  0.0302  0.1259
 1725TIP3    H226667   5.612   2.234   1.448  0.0418 -0.2851  1.1717
 1726TIP3   OH226668   0.037   4.419   3.378 -0.1111  0.2743  0.1132
 1726TIP3    H126669   0.130   4.437   3.375 -0.2351  0.8423 -2.4613
 1726TIP3    H226670   0.002   4.481   3.443  1.3614 -0.7142  1.9654
 1727TIP3   OH226671   6.125   6.270  16.475 -0.3299 -0.6622 -0.0433
 1727TIP3    H126672   6.143   6.186  16.432  2.1743 -0.7636  1.0072
 1727TIP3    H226673   6.175   6.265  16.557  0.8630  2.3103 -0.4883
 1728TIP3   OH226674   0.102   1.807   0.621  0.4654  0.0163  0.3980
 1728TIP3    H126675   0.189   1.800   0.660  0.7631  0.0952 -0.2392
 1728TIP3    H226676   0.118   1.829   0.529 -0.2311  0.2673  0.3244
 1729TIP3   OH226677   1.224   6.363   2.332  0.5304  0.3731 -0.1177
 1729TIP3    H126678   1.302   6.310   2.345  0.3446 -0.3023 -1.5212
 1729TIP3    H226679   1.256   6.449   2.308  0.8424  0.3568  0.2397
 1730TIP3   OH226680   3.282   2.352   4.414  0.1566  0.1772 -0.0396
 1730TIP3    H126681   3.309   2.266   4.444  0.0301  0.9812  2.5887
 1730TIP3    H226682   3.203   2.336   4.362 -0.2941 -1.2365  1.0347
 1731TIP3   OH226683   6.382   5.654  12.513  0.0206 -0.4712 -0.2143
 1731TIP3    H126684   6.364   5.663  12.420 -1.0454  0.7748  0.0735
 1731TIP3    H226685   6.374   5.743  12.548  2.4856 -0.5512  0.7446
 1732TIP3   OH226686   5.469   2.405  16.955  0.2477  0.5323 -0.6741
 1732TIP3    H126687   5.508   2.318  16.967  0.1690  0.6444  0.4718
 1732TIP3    H226688   5.517   2.442  16.880 -2.1139 -1.8375 -3.6232
 1733TIP3   OH226689   0.367   5.618  17.071 -0.4002  0.0850  0.2558
 1733TIP3    H126690   0.433   5.687  17.079 -1.4995  1.1593  0.3119
 1733TIP3    H226691   0.402   5.546  17.122 -0.5158  1.6019  2.6336
 1734TIP3   OH226692   0.670   6.577  14.098 -0.5174 -0.2778  0.5851
 1734TIP3    H126693   0.636   6.650  14.150 -1.0364 -0.5789  0.6699
 1734TIP3    H226694   0.645   6.599  14.008 -2.0743 -1.1063  0.7797
 1735TIP3   OH226695   0.042   1.925  11.801 -0.4961  0.7880  0.4471
 1735TIP3    H126696  -0.040   1.953  11.842 -0.0952 -0.3289  2.1312
 1735TIP3    H226697   0.048   1.832  11.820  1.7171  1.0482  1.4137
 1736TIP3   OH226698   6.366   0.022  12.769  0.2509  0.3199 -0.0129
 1736TIP3    H126699   6.401  -0.064  12.790  2.1382  0.8028 -0.9138
 1736TIP3    H226700   6.376   0.072  12.850 -0.6482 -0.2131  0.4472
 1737TIP3   OH226701   0.182   4.618  14.226 -0.2674  0.2464 -0.1216
 1737TIP3    H126702   0.158   4.693  14.281  1.9262 -1.2958  3.2944
 1737TIP3    H226703   0.143   4.543  14.270  0.7840 -0.9956 -1.2368
 1738TIP3   OH226704   3.546   0.226   0.376 -0.0079 -0.2524 -0.0056
 1738TIP3    H126705   3.574   0.147   0.329 -1.8292  0.3383 -2.2727
 1738TIP3    H226706   3.514   0.193   0.460 -1.1208 -2.0271 -1.0449
 1739TIP3   OH226707   5.391   0.709  10.876  0.4272  0.1350 -0.2980
 1739TIP3    H126708   5.386   0.805  10.881 -1.2629 -0.0103  1.6052
 1739TIP3    H226709   5.349   0.688  10.792 -2.4448  0.9465  0.8041
 1740TIP3   OH226710   2.066   4.735   6.120 -0.3886  0.0028 -0.0365
 1740TIP3    H126711   2.109   4.692   6.046 -1.0651 -1.6986  0.5123
 1740TIP3    H226712   2.137   4.783   6.163  0.5512 -1.0734 -0.3273
 1741TIP3   OH226713   4.518   0.272   4.014 -0.0437  0.0979  0.2234
 1741TIP3    H126714   4.551   0.361   4.004  0.8114  0.0428  2.1555
 1741TIP3    H226715   4.426   0.284   4.037  0.3492  0.5570  1.6290
 1742TIP3   OH226716   4.463   6.269   1.883 -0.1092 -0.2661 -0.0335
 1742TIP3    H126717   4.521   6.273   1.959 -0.1084  1.7259 -0.0988
 1742TIP3    H226718   4.510   6.213   1.821  0.4562 -0.9214  0.9541
 1743TIP3   OH226719   0.157   1.807   3.127  0.0008  0.4235  0.1022
 1743TIP3    H126720   0.199   1.824   3.043 -0.0750 -1.1323 -0.2769
 1743TIP3    H226721   0.116   1.722   3.117  0.7636 -0.2365  1.9930
 1744TIP3   OH226722   1.167   6.248  13.919  0.2407  0.0545  0.1630
 1744TIP3    H126723   1.115   6.194  13.978  1.2344 -2.8062 -1.3691
 1744TIP3    H226724   1.157   6.337  13.952 -2.4531 -0.8750  2.1753
 1745TIP3   OH226725   3.861   4.645  15.506 -0.7454 -0.3328  0.4632
 1745TIP3    H126726   3.784   4.700  15.494 -3.1099 -2.9293  2.3285
 1745TIP3    H226727   3.880   4.612  15.418 -0.2545  2.0495 -0.4062
 1746TIP3   OH226728   0.532   3.103   2.497  0.0322  0.4732 -0.5153
 1746TIP3    H126729   0.505   3.122   2.407  1.9216  3.5046 -0.5716
 1746TIP3    H226730   0.586   3.025   2.489 -1.4193 -0.4849 -1.6515
 1747TIP3   OH226731   0.477   4.920  14.847 -0.6330 -1.3560  0.1444
 1747TIP3    H126732   0.388   4.905  14.882 -1.0423  2.0916  0.9282
 1747TIP3    H226733   0.463   4.956  14.760 -0.0512 -0.2409  0.4980
 1748TIP3   OH226734   6.296   0.275  16.321  0.0826  0.3626 -0.1853
 1748TIP3    H126735   6.217   0.227  16.345  0.9511 -2.1523 -1.7990
 1748TIP3    H226736   6.267   0.338  16.255 -0.4817 -1.5905 -1.9424
 1749TIP3   OH226737   4.501   4.907   5.085  0.1653 -0.2295  0.1400
 1749TIP3    H126738   4.481   4.979   5.145  2.2756 -1.1854  2.1431
 1749TIP3    H226739   4.494   4.828   5.138 -1.3129 -1.5048 -1.8137
 1750TIP3   OH226740   1.986   4.655   0.360  0.0470  0.0348 -0.1103
 1750TIP3    H126741   1.900   4.669   0.322 -0.4773  0.1482  1.0774
 1750TIP3    H226742   2.020   4.578   0.316 -1.9289 -1.8789  1.4749
 1751TIP3   OH226743   4.199   0.756  14.305  0.1786  0.0339 -0.0497
 1751TIP3    H126744   4.108   0.728  14.304  0.5550 -1.2893 -0.2049
 1751TIP3    H226745   4.209   0.803  14.387 -0.8200  0.8697 -0.3872
 1752TIP3   OH226746   0.365   2.843   4.856  0.4140 -0.0756 -0.2610
 1752TIP3    H126747   0.285   2.801   4.887 -0.2314  0.1819 -1.5119
 1752TIP3    H226748   0.334   2.913   4.799  1.5088  1.0133  0.4316
 1753TIP3   OH226749   4.256   4.614   0.244  0.6694  0.6785  0.7655
 1753TIP3    H126750   4.201   4.542   0.213  0.7568  0.9292 -0.0072
 1753TIP3    H226751   4.344   4.577   0.245  0.7588  0.8458  0.0750
 1754TIP3   OH226752   2.073   3.668  14.310 -0.2602 -0.1463  0.6816
 1754TIP3    H126753   2.098   3.583  14.346 -0.7259 -0.9265 -0.7687
 1754TIP3    H226754   2.014   3.647  14.238 -0.3359  1.4147  0.2592
 1755TIP3   OH226755   6.740   5.414  17.103  0.4003 -0.0882  0.1672
 1755TIP3    H126756   6.791   5.403  17.183  0.2416  0.2127  0.3148
 1755TIP3    H226757   6.794   5.470  17.047  1.3356 -1.7933 -0.6950
 1756TIP3   OH226758   5.803   6.715   1.450  0.1146  0.1696  0.3479
 1756TIP3    H126759   5.714   6.749   1.443  0.4814  0.8625 -1.3156
 1756TIP3    H226760   5.792   6.622   1.469 -0.9431  0.3237  0.5351
 1757TIP3   OH226761   3.414   2.099   0.059 -0.2815 -0.5376 -0.4425
 1757TIP3    H126762   3.385   2.015   0.096  1.5754 -0.8694  0.3784
 1757TIP3    H226763   3.481   2.129   0.120 -1.7727  2.2166 -0.0066
 1758TIP3   OH226764   5.500   6.126   4.446  0.4094  0.1845 -0.0330
 1758TIP3    H126765   5.490   6.082   4.361  1.7892  0.6455 -0.4614
 1758TIP3    H226766   5.577   6.085   4.485 -0.2534 -0.0646  1.0437
 1759TIP3   OH226767   6.541   2.101  13.440 -0.0632 -0.2747 -0.4342
 1759TIP3    H126768   6.504   2.018  13.409 -1.2852  0.8783 -2.2691
 1759TIP3    H226769   6.537   2.095  13.536 -0.5482 -2.1195 -0.5291
 1760TIP3   OH226770   2.106   6.317   3.715  0.8129  0.1346  0.2880
 1760TIP3    H126771   2.191   6.272   3.716  0.2119 -1.0213  1.0756
 1760TIP3    H226772   2.062   6.283   3.637  0.9869  0.5611  0.0051
 1761TIP3   OH226773   5.439   5.613  16.043 -0.7030  0.0879 -0.2915
 1761TIP3    H126774   5.438   5.659  15.960 -1.6425  1.1237  0.2611
 1761TIP3    H226775   5.351   5.575  16.050 -0.3760 -0.6566 -0.1210
 1762TIP3   OH226776   1.738   2.257  17.216 -1.5891  0.0559  0.6885
 1762TIP3    H126777   1.791   2.178  17.203 -2.0204 -0.7948  3.3828
 1762TIP3    H226778   1.788   2.327  17.174 -1.1399 -1.5636 -1.7045
 1763TIP3   OH226779   0.420   2.620  15.869 -0.0296  0.5132  0.4795
 1763TIP3    H126780   0.364   2.561  15.818  0.6935 -0.9921  1.3488
 1763TIP3    H226781   0.460   2.678  15.804 -0.7772  0.0592 -0.4062
 1764TIP3   OH226782   5.578   4.066   5.039  0.5392  0.0350 -0.2378
 1764TIP3    H126783   5.626   4.140   5.002  1.4688  0.0423  0.9397
 1764TIP3    H226784   5.602   3.992   4.983  1.9668  0.0309  0.3377
 1765TIP3   OH226785   1.702   2.967  13.957  0.1479  0.1462 -0.7564
 1765TIP3    H126786   1.632   3.030  13.937 -0.1496 -0.1278 -0.5761
 1765TIP3    H226787   1.770   3.020  13.998 -0.2260  0.3027 -0.3294
 1766TIP3   OH226788   4.305   5.219   4.911 -0.1150 -0.1645  0.4891
 1766TIP3    H126789   4.301   5.126   4.933  0.5630 -0.1014  0.9389
 1766TIP3    H226790   4.314   5.263   4.996 -0.3407  0.3036  0.2745
 1767TIP3   OH226791   3.779   2.005  15.371 -0.1702 -0.2289  0.8162
 1767TIP3    H126792   3.822   2.089  15.353  0.8838 -0.5455  1.7478
 1767TIP3    H226793   3.708   2.001  15.307 -1.3941  2.1782  1.9070
 1768TIP3   OH226794   1.181   3.943  16.557 -0.5975 -0.1558 -0.0905
 1768TIP3    H126795   1.149   3.992  16.482 -0.0922  2.8240  1.4595
 1768TIP3    H226796   1.268   3.913  16.531 -1.6021 -1.8662 -1.6946
 1769TIP3   OH226797   0.606   1.574   3.762 -0.1957 -0.3548 -0.2092
 1769TIP3    H126798   0.639   1.653   3.805 -1.7881 -0.1522  0.7256
 1769TIP3    H226799   0.567   1.606   3.680  0.8411 -0.4495 -0.7601
 1770TIP3   OH226800   5.701   2.445   0.088 -0.1332 -0.0654 -0.3195
 1770TIP3    H126801   5.752   2.449   0.169 -0.6485  1.0205 -0.0403
 1770TIP3    H226802   5.767   2.447   0.018  0.3679 -1.8284  0.0492
 1771TIP3   OH226803   2.528   4.756  16.523  0.3001 -0.0036  0.1380
 1771TIP3    H126804   2.463   4.688  16.508  0.8481 -0.2967 -1.0671
 1771TIP3    H226805   2.546   4.791  16.436 -0.9374  2.6368  0.8751
 1772TIP3   OH226806   3.165   0.051   4.771 -0.4819 -0.2235  0.4812
 1772TIP3    H126807   3.247   0.026   4.727 -0.9472 -0.8614 -0.0570
 1772TIP3    H226808   3.158  -0.011   4.844 -1.0315 -0.9190 -0.1393
 1773TIP3   OH226809   5.954   4.445   5.986 -0.0752 -0.1958 -0.3269
 1773TIP3    H126810   6.030   4.497   6.010 -0.2243  0.2244 -0.7538
 1773TIP3    H226811   5.941   4.461   5.893 -0.4212 -0.6112 -0.3567
 1774TIP3   OH226812   6.127   3.854   0.822  0.5104  0.2392  0.0167
 1774TIP3    H126813   6.183   3.846   0.744 -1.7474  0.6938 -1.7857
 1774TIP3    H226814   6.058   3.915   0.794 -1.5499 -1.2246  1.6661
 1775TIP3   OH226815   5.218   1.998   0.303  0.0314 -0.1686 -0.2148
 1775TIP3    H126816   5.270   1.981   0.224 -1.8598  1.1690 -1.8682
 1775TIP3    H226817   5.191   2.089   0.294 -0.6594 -0.1426  1.7625
 1776TIP3   OH226818   0.162   3.376   5.995  0.0347 -0.0366  0.0572
 1776TIP3    H126819   0.197   3.384   6.084  0.5663  0.5280 -0.2008
 1776TIP3    H226820   0.200   3.295   5.961  1.7206  0.9211 -0.4808
 1777TIP3   OH226821   1.270   5.060  13.030 -0.1980 -0.4155 -0.2189
 1777TIP3    H126822   1.350   5.007  13.039 -0.7895 -1.3000 -0.0119
 1777TIP3    H226823   1.228   5.053  13.116  0.5696  1.8737  0.4173
 1778TIP3   OH226824   6.435   6.385  11.673 -0.3230  0.4295 -0.2631
 1778TIP3    H126825   6.378   6.315  11.644  0.3192  0.6672 -2.2471
 1778TIP3    H226826   6.470   6.423  11.592  0.1570  2.3539  0.7794
 1779TIP3   OH226827   5.695   4.281   3.817 -0.7229 -0.0700 -0.1785
 1779TIP3    H126828   5.790   4.267   3.824 -0.7478 -0.0910  0.1326
 1779TIP3    H226829   5.687   4.369   3.779 -0.5776 -0.1735 -0.4520
 1780TIP3   OH226830   4.801   3.678   3.887  0.4217  0.3351 -0.1162
 1780TIP3    H126831   4.794   3.609   3.953 -0.3071  0.7834  0.2851
 1780TIP3    H226832   4.889   3.667   3.850 -0.5401 -2.4619 -1.9113
 1781TIP3   OH226833   3.193   2.380   1.630 -0.2893  0.2566  0.2685
 1781TIP3    H126834   3.186   2.287   1.654  0.5519  0.0653 -0.2061
 1781TIP3    H226835   3.174   2.381   1.536 -1.6495  0.7560  0.5200
 1782TIP3   OH226836   6.646   1.454  16.613  0.1905 -0.4258 -0.2077
 1782TIP3    H126837   6.697   1.494  16.543  1.6025 -2.2793 -0.3136
 1782TIP3    H226838   6.602   1.380  16.572 -3.1493  1.3589 -0.2519
 1783TIP3   OH226839   4.903   5.121   0.250  0.9658  0.4355 -0.0828
 1783TIP3    H126840   4.820   5.132   0.203  1.1061 -0.0125 -0.4474
 1783TIP3    H226841   4.883   5.144   0.340 -0.0538 -1.5250  0.2519
 1784TIP3   OH226842   4.713   6.141  15.310 -0.5824 -0.0355  0.0712
 1784TIP3    H126843   4.752   6.066  15.266  1.4443  0.2191  1.3213
 1784TIP3    H226844   4.621   6.116  15.323 -0.4369 -1.4325 -1.3263
 1785TIP3   OH226845   2.590   0.162   1.404 -0.2984  0.0058 -0.0933
 1785TIP3    H126846   2.639   0.242   1.423 -0.3606  0.2179 -0.7975
 1785TIP3    H226847   2.501   0.193   1.384 -0.1237 -0.1519 -1.1837
 1786TIP3   OH226848   6.222   0.169   2.619  0.2610 -0.3467 -0.6534
 1786TIP3    H126849   6.163   0.215   2.559  0.2471 -1.3230 -1.4076
 1786TIP3    H226850   6.291   0.134   2.563  0.7027 -0.5648  0.0187
 1787TIP3   OH226851   5.488   4.826  12.231  0.2428 -0.4562  0.7344
 1787TIP3    H126852   5.533   4.825  12.316 -0.0213  1.3596  0.9419
 1787TIP3    H226853   5.395   4.827  12.252  0.1789  0.8504  0.4804
 1788TIP3   OH226854   6.315   0.517   1.615 -0.5814  0.2144 -0.6226
 1788TIP3    H126855   6.323   0.427   1.648 -0.0560  0.3879 -0.2686
 1788TIP3    H226856   6.251   0.511   1.544 -0.7678 -0.3898 -0.4069
 1789TIP3   OH226857   5.880   6.732   0.993  0.0697 -0.2850  0.5620
 1789TIP3    H126858   5.864   6.809   0.939 -0.0483 -0.8266 -0.1812
 1789TIP3    H226859   5.893   6.661   0.931 -0.9890 -1.1035  1.2486
 1790TIP3   OH226860   4.388   4.359   0.259  0.0167 -0.0736  0.2859
 1790TIP3    H126861   4.329   4.312   0.200 -0.6849 -0.4605  1.2561
 1790TIP3    H226862   4.475   4.350   0.220 -0.1068 -2.1233  0.3767
 1791TIP3   OH226863   2.468   6.138  15.841  0.4045  0.0501  0.5899
 1791TIP3    H126864   2.476   6.102  15.752  2.6260  0.4889  0.5664
 1791TIP3    H226865   2.444   6.229  15.828 -2.4398 -0.6183  0.5812
 1792TIP3   OH226866   3.732   3.172   5.142 -0.0672  0.7158  0.6634
 1792TIP3    H126867   3.637   3.175   5.136 -0.0043  0.7371 -0.4250
 1792TIP3    H226868   3.751   3.085   5.176 -0.4915  0.9266  1.4679
 1793TIP3   OH226869   1.756   0.344  13.655  0.4951 -0.1498  0.1789
 1793TIP3    H126870   1.835   0.293  13.669 -0.1263 -1.7509 -1.6964
 1793TIP3    H226871   1.698   0.286  13.607 -1.5207  1.2684  0.7663
 1794TIP3   OH226872   2.515   5.081   5.911 -0.0930  0.8505 -0.1498
 1794TIP3    H126873   2.565   5.161   5.932  0.6335  0.1518  0.8857
 1794TIP3    H226874   2.553   5.051   5.829  2.5171 -0.6156  1.4360
 1795TIP3   OH226875   5.911   6.711  16.194 -0.0426  0.2326 -0.4551
 1795TIP3    H126876   5.860   6.740  16.119  0.2984  2.1468 -0.0103
 1795TIP3    H226877   5.970   6.785  16.213 -1.1194  0.4843  2.5686
 1796TIP3   OH226878   0.476   4.860  13.836  0.3263  0.2270 -0.0474
 1796TIP3    H126879   0.557   4.855  13.886  0.5256 -0.2410 -0.4062
 1796TIP3    H226880   0.407   4.847  13.901  0.4104  2.6130  0.6042
 1797TIP3   OH226881   4.066   3.494  13.586  0.9073 -0.0425 -0.3626
 1797TIP3    H126882   4.014   3.533  13.657  0.8011 -0.4039 -0.2410
 1797TIP3    H226883   4.063   3.560  13.516 -0.4544 -0.4205 -0.6933
 1798TIP3   OH226884   1.723   2.316  11.100 -0.6473 -0.1267 -0.2074
 1798TIP3    H126885   1.668   2.381  11.056 -1.6004 -0.6878  0.1379
 1798TIP3    H226886   1.661   2.253  11.136  0.1491 -0.0145  1.4142
 1799TIP3   OH226887   0.515   5.062  14.489 -0.0477 -0.1095 -0.1026
 1799TIP3    H126888   0.599   5.106  14.499 -0.3479  0.1619  1.4809
 1799TIP3    H226889   0.457   5.129  14.452 -0.7713  1.2772  3.2239
 1800TIP3   OH226890   1.297   1.551   5.090  0.3067 -0.5190 -0.0319
 1800TIP3    H126891   1.230   1.512   5.146  0.1351 -0.5635 -0.2673
 1800TIP3    H226892   1.323   1.481   5.030  0.0035 -0.2787 -0.4483
 1801TIP3   OH226893   1.802   6.208  13.390  0.4168 -0.2171 -1.0740
 1801TIP3    H126894   1.794   6.117  13.419  1.0247  0.4196  1.3462
 1801TIP3    H226895   1.712   6.237  13.376 -0.1777 -0.1029  2.1217
 1802TIP3   OH226896   2.051   4.509   0.689 -0.3849 -0.0414 -0.0367
 1802TIP3    H126897   2.089   4.459   0.617  1.7466 -0.1372  1.0909
 1802TIP3    H226898   2.122   4.521   0.751 -1.5637  2.0261  1.0336
 1803TIP3   OH226899   3.249   5.790  15.559 -0.3516  0.4258  0.1596
 1803TIP3    H126900   3.314   5.859  15.571 -1.1080  1.3239 -0.7175
 1803TIP3    H226901   3.272   5.747  15.477  0.9443 -1.3554  1.3701
 1804TIP3   OH226902   0.111   1.848   5.983  0.0774 -0.4532  0.1368
 1804TIP3    H126903   0.195   1.802   5.992  0.1525 -0.1364  1.1896
 1804TIP3    H226904   0.065   1.799   5.914  0.6226 -1.4058  0.4199
 1805TIP3   OH226905   2.993   6.286  15.024 -0.0863  0.6684 -0.6863
 1805TIP3    H126906   2.922   6.237  14.983  1.2160 -1.6725 -0.3081
 1805TIP3    H226907   2.954   6.371  15.044 -2.3293 -0.0016 -1.7978
 1806TIP3   OH226908   4.584   1.072   3.114  0.6466 -0.8373 -0.0782
 1806TIP3    H126909   4.562   0.979   3.103 -0.1145 -0.7356  0.5078
 1806TIP3    H226910   4.571   1.088   3.207  0.6357 -0.1040 -0.2024
 1807TIP3   OH226911   5.057   4.578   2.200  0.5632 -0.1106 -0.3796
 1807TIP3    H126912   5.038   4.624   2.118  0.9091 -0.8647 -0.9019
 1807TIP3    H226913   4.979   4.590   2.254  0.4755  0.7019 -0.6770
 1808TIP3   OH226914   4.718   4.301  15.268 -0.1626  0.6448 -0.8870
 1808TIP3    H126915   4.759   4.376  15.225  1.0057 -0.1061 -1.1216
 1808TIP3    H226916   4.781   4.275  15.336 -2.4494  2.5785  2.2602
 1809TIP3   OH226917   6.055   5.066  16.888  0.2014 -0.0555  0.3311
 1809TIP3    H126918   6.068   5.158  16.912  1.7783 -0.2995  0.5273
 1809TIP3    H226919   6.075   5.063  16.794 -1.1359  0.0117  0.0234
 1810TIP3   OH226920   0.215   2.052   5.814 -0.2348 -0.2920  0.1440
 1810TIP3    H126921   0.149   1.995   5.853 -0.7561  0.7273  0.8071
 1810TIP3    H226922   0.175   2.084   5.733 -1.0083  1.1204  1.0434
 1811TIP3   OH226923   0.580   2.505   6.573  0.3837  0.1568  0.6928
 1811TIP3    H126924   0.615   2.583   6.618  0.6540  0.0837  0.6133
 1811TIP3    H226925   0.651   2.477   6.516  0.6492 -0.7165  1.4286
 1812TIP3   OH226926   3.922   3.234   0.008  0.2880 -0.4498  0.2790
 1812TIP3    H126927   3.996   3.182  -0.024 -0.2722 -1.2357  0.2633
 1812TIP3    H226928   3.927   3.316  -0.042  0.8050 -0.7291 -0.1292
 1813TIP3   OH226929   0.148   6.454   1.861  0.3219 -0.1502 -0.0328
 1813TIP3    H126930   0.112   6.446   1.949 -1.5540  1.7991 -0.5349
 1813TIP3    H226931   0.173   6.546   1.854  1.7711 -0.5942 -1.0910
 1814TIP3   OH226932   5.947   0.067   1.637 -0.3303  0.1994  0.2783
 1814TIP3    H126933   5.920  -0.017   1.601 -0.7102  1.1319 -1.7331
 1814TIP3    H226934   5.865   0.111   1.660 -0.1151 -0.1433  1.8025
 1815TIP3   OH226935   0.531   4.469  12.107 -0.1355 -0.1720  0.3427
 1815TIP3    H126936   0.520   4.536  12.175 -0.5555 -0.2903  0.3919
 1815TIP3    H226937   0.564   4.393  12.154 -0.0013 -0.1121  0.3446
 1816TIP3   OH226938   4.717   5.047   3.700 -0.1489  0.1243 -0.1492
 1816TIP3    H126939   4.665   5.054   3.780 -0.3449  1.2654 -0.3607
 1816TIP3    H226940   4.671   4.982   3.647 -0.2948 -0.2676  0.4468
 1817TIP3   OH226941   3.845   3.969   3.724 -0.1376  0.3648 -0.2956
 1817TIP3    H126942   3.858   3.878   3.750 -0.9134  1.1059  3.2227
 1817TIP3    H226943   3.927   4.013   3.745  0.0186  0.6182 -1.3803
 1818TIP3   OH226944   1.002   2.894  11.779 -0.7699 -0.2436  0.5198
 1818TIP3    H126945   0.944   2.821  11.800  0.2086 -0.2470  3.8021
 1818TIP3    H226946   0.977   2.963  11.840  1.1062  0.5897  0.4217
 1819TIP3   OH226947   4.195   5.576   4.629  0.5700  0.7011  0.3934
 1819TIP3    H126948   4.204   5.481   4.625 -1.1273  0.4929  0.5431
 1819TIP3    H226949   4.243   5.608   4.553 -1.5621 -0.5637 -1.6394
 1820TIP3   OH226950   1.689   1.428  13.065  0.3727  0.2274 -0.2315
 1820TIP3    H126951   1.642   1.450  12.984  0.1638  1.9483  0.3117
 1820TIP3    H226952   1.762   1.374  13.035 -0.8937 -0.9691 -1.3018
 1821TIP3   OH226953   3.878   0.843   0.213  0.1443 -0.1413  0.3126
 1821TIP3    H126954   3.829   0.776   0.260  0.3267 -1.0822 -0.7729
 1821TIP3    H226955   3.907   0.799   0.133  0.1327  1.2904 -0.5119
 1822TIP3   OH226956   5.128   1.047  14.024  0.3979  0.2365 -0.4100
 1822TIP3    H126957   5.201   1.054  14.087  0.4080  0.8020 -0.4804
 1822TIP3    H226958   5.104   1.138  14.005 -0.9345  0.0591  0.3068
 1823TIP3   OH226959   6.019   6.478  16.073 -0.1015  0.1972 -0.6494
 1823TIP3    H126960   6.049   6.562  16.110  0.6201  0.2684 -1.3785
 1823TIP3    H226961   6.040   6.414  16.141  0.2522  0.4704 -0.4910
 1824TIP3   OH226962   0.441   1.192   3.621  0.1975  0.3140 -0.1494
 1824TIP3    H126963   0.409   1.120   3.676 -1.2875  1.3141  0.3580
 1824TIP3    H226964   0.524   1.217   3.662  1.8148 -2.3621 -1.5109
 1825TIP3   OH226965   4.393   1.787  15.584  0.1136 -0.0410 -0.4090
 1825TIP3    H126966   4.393   1.817  15.493  1.3164  1.2725 -0.0073
 1825TIP3    H226967   4.305   1.805  15.615 -0.4912 -1.0278 -1.4504
 1826TIP3   OH226968   4.488   2.762  13.008  0.2978 -0.3195  0.7102
 1826TIP3    H126969   4.518   2.677  12.977 -1.2214 -1.0616  1.1963
 1826TIP3    H226970   4.422   2.789  12.943 -0.1804 -0.1392  1.2602
 1827TIP3   OH226971   5.538   1.089  12.883 -0.1338 -0.0657  0.3328
 1827TIP3    H126972   5.610   1.084  12.819 -1.9931 -0.1639 -1.8841
 1827TIP3    H226973   5.582   1.094  12.968  2.4797 -0.2372 -0.9028
 1828TIP3   OH226974   5.108   1.524  15.567  0.1618  0.2028 -0.5722
 1828TIP3    H126975   5.065   1.499  15.648 -0.5621  2.6362 -0.1296
 1828TIP3    H226976   5.097   1.448  15.509 -3.2020  0.0352  0.0992
 1829TIP3   OH226977   4.860   2.625   1.526  0.3949  0.2519  0.5115
 1829TIP3    H126978   4.876   2.696   1.464 -0.6684 -1.3762 -1.7684
 1829TIP3    H226979   4.913   2.552   1.493 -1.1572 -1.0310  0.7372
 1830TIP3   OH226980   5.766   3.754   1.983  0.1153  0.2962  0.3962
 1830TIP3    H126981   5.730   3.813   2.050 -1.7500  0.4286 -0.6472
 1830TIP3    H226982   5.737   3.791   1.900  1.4058 -0.5014 -0.4373
 1831TIP3   OH226983   4.318   4.980   1.287  0.4427  0.9167  0.4700
 1831TIP3    H126984   4.373   5.015   1.357 -0.3174 -1.4333  2.3856
 1831TIP3    H226985   4.380   4.943   1.224  1.1421  0.5179  1.3557
 1832TIP3   OH226986   2.189   0.740   5.471  0.5308  0.8934 -0.0760
 1832TIP3    H126987   2.120   0.791   5.428  0.5768  2.7633  1.9087
 1832TIP3    H226988   2.270   0.773   5.433  0.4711  0.7724 -0.3147
 1833TIP3   OH226989   2.597   1.545   1.567  0.3058  0.1597  0.3307
 1833TIP3    H126990   2.671   1.485   1.564  1.2463  1.2653  0.8951
 1833TIP3    H226991   2.636   1.631   1.577 -1.1064  0.6233  2.4016
 1834TIP3   OH226992   0.987   6.592  12.964 -0.2858  0.0501  0.1535
 1834TIP3    H126993   1.045   6.605  13.038 -1.9500  0.8646  1.3910
 1834TIP3    H226994   0.989   6.676  12.917 -0.9136  0.2997  0.5596
 1835TIP3   OH226995   0.639   5.360  16.724 -0.5907  0.5550 -0.5889
 1835TIP3    H126996   0.671   5.348  16.635  0.5104 -1.0255 -0.0391
 1835TIP3    H226997   0.713   5.333  16.779 -1.7909 -0.0532  0.7797
 1836TIP3   OH226998   2.513   0.937   2.030 -0.1315  0.2183 -0.3340
 1836TIP3    H126999   2.551   0.955   2.116 -1.7805 -0.1465  0.5056
 1836TIP3    H227000   2.527   1.017   1.980  0.1629  0.7114  0.5184
 1837TIP3   OH227001   4.566   4.682   0.419 -0.0388  0.1171  0.5910
 1837TIP3    H127002   4.558   4.655   0.328 -1.1708  0.9126  0.4419
 1837TIP3    H227003   4.639   4.744   0.419 -0.5656  0.7478  0.0721
 1838TIP3   OH227004   0.763   3.479  14.738  0.3311  0.0894 -0.3512
 1838TIP3    H127005   0.691   3.480  14.676 -0.8272  1.2510  0.9542
 1838TIP3    H227006   0.798   3.390  14.733 -1.1325 -0.4742 -1.0644
 1839TIP3   OH227007   6.112   4.896  11.463  0.5401  0.7852 -0.5604
 1839TIP3    H127008   6.183   4.886  11.399  0.4863  0.7079 -0.6087
 1839TIP3    H227009   6.156   4.923  11.543  0.7609 -0.4334 -0.2538
 1840TIP3   OH227010   1.619   0.169  17.178 -0.0417 -0.1671 -0.4310
 1840TIP3    H127011   1.669   0.178  17.097  1.8953  0.5208  0.7961
 1840TIP3    H227012   1.602   0.075  17.185  1.3786 -0.4664 -0.7186
 1841TIP3   OH227013   1.520   4.128  12.761  0.2534 -0.0602 -0.2252
 1841TIP3    H127014   1.603   4.155  12.723 -0.1735  0.8275 -0.5463
 1841TIP3    H227015   1.531   4.034  12.778  1.0545 -0.1077 -0.9359
 1842TIP3   OH227016   4.411   2.587   0.721  1.1686  0.2372 -0.0019
 1842TIP3    H127017   4.391   2.537   0.800 -0.4191 -0.1610 -0.6100
 1842TIP3    H227018   4.463   2.526   0.668 -0.3333 -0.6511 -0.5235
 1843TIP3   OH227019   3.590   5.606  14.176  0.1150  0.1791  0.1005
 1843TIP3    H127020   3.562   5.660  14.102  0.8825  0.4062 -0.0278
 1843TIP3    H227021   3.680   5.580  14.154 -0.2453 -1.1811  0.1381
 1844TIP3   OH227022   2.114   5.623   0.484  1.0782 -0.0833  0.2159
 1844TIP3    H127023   2.023   5.597   0.468  1.2716 -1.0035  0.5811
 1844TIP3    H227024   2.164   5.543   0.471  1.9111  0.5413 -0.5435
 1845TIP3   OH227025   2.198   1.467   3.082 -0.3294  0.4265 -0.5972
 1845TIP3    H127026   2.260   1.452   3.153 -1.6687  1.6210  0.9064
 1845TIP3    H227027   2.253   1.485   3.006  1.2137  2.1203  0.8087
 1846TIP3   OH227028   3.815   3.759  12.867 -0.7001  0.6932  0.0144
 1846TIP3    H127029   3.867   3.714  12.933 -1.5328  0.2953  0.4131
 1846TIP3    H227030   3.846   3.850  12.870 -1.4436  0.9443  1.7353
 1847TIP3   OH227031   2.019   0.344   3.668  0.8163  0.1797  0.3559
 1847TIP3    H127032   1.944   0.341   3.727  1.6972 -1.7516  1.4678
 1847TIP3    H227033   2.089   0.299   3.715  3.0992  2.9468 -0.1384
 1848TIP3   OH227034   1.047   6.459   1.980  0.1572 -0.0135  0.5524
 1848TIP3    H127035   1.087   6.377   2.009  0.2063 -0.5791 -1.0201
 1848TIP3    H227036   1.121   6.520   1.970  0.5054 -0.6442 -1.0017
 1849TIP3   OH227037   4.695   5.291   0.922 -0.1420  0.1890  0.3614
 1849TIP3    H127038   4.628   5.341   0.968  0.5175  0.5927  0.8951
 1849TIP3    H227039   4.774   5.344   0.929  0.5277 -0.8469  0.7812
 1850TIP3   OH227040   0.516   6.595  17.232 -0.7726  0.6682  0.2360
 1850TIP3    H127041   0.545   6.572  17.144  1.0631 -1.1482  1.2228
 1850TIP3    H227042   0.421   6.582  17.230 -0.3532 -3.4748 -0.4432
 1851TIP3   OH227043   4.715   4.247  14.954  0.6656 -0.2039  0.1581
 1851TIP3    H127044   4.745   4.274  15.041 -0.6054 -1.0601  0.8999
 1851TIP3    H227045   4.694   4.154  14.964 -0.3918 -0.0938 -0.8035
 1852TIP3   OH227046   5.048   4.286  10.525 -0.3599 -0.5559 -0.1829
 1852TIP3    H127047   5.132   4.263  10.565 -1.2955 -1.5449  1.2896
 1852TIP3    H227048   5.027   4.372  10.562 -0.8362 -1.1126  0.8905
 1853TIP3   OH227049   4.231   3.870  16.734  0.0062  0.0490  0.5222
 1853TIP3    H127050   4.213   3.932  16.663  0.0130 -0.8936 -0.3206
 1853TIP3    H227051   4.264   3.792  16.690  1.8162  0.0890  1.6909
 1854TIP3   OH227052   3.509   4.065  15.679  0.2887 -0.3285 -0.0252
 1854TIP3    H127053   3.530   4.036  15.591 -0.1542 -1.1299  0.1204
 1854TIP3    H227054   3.590   4.053  15.729 -0.3411 -3.1690  0.4813
 1855TIP3   OH227055   2.487   5.312   4.160 -0.2093 -0.2071 -0.3392
 1855TIP3    H127056   2.410   5.363   4.136  1.0594  2.3302  0.5821
 1855TIP3    H227057   2.545   5.375   4.203  2.1801 -2.1115 -0.5433
 1856TIP3   OH227058   6.211   3.051   2.652  0.1930 -0.3316  0.3279
 1856TIP3    H127059   6.306   3.043   2.664  0.3994  0.5591 -0.6627
 1856TIP3    H227060   6.200   3.107   2.575 -1.1412  0.4988  1.0741
 1857TIP3   OH227061   6.364   5.354   0.981  0.7874  0.0284 -0.3235
 1857TIP3    H127062   6.422   5.362   1.056  0.7318  1.9148 -0.4340
 1857TIP3    H227063   6.320   5.439   0.975 -0.0980 -0.4879 -1.7607
 1858TIP3   OH227064   0.743   0.124   3.808  0.5611  0.0261 -0.3373
 1858TIP3    H127065   0.726   0.188   3.877 -0.5296 -1.0086  0.4048
 1858TIP3    H227066   0.828   0.087   3.829  1.0947  1.0373 -0.6434
 1859TIP3   OH227067   5.762   1.257   4.239 -0.1386  1.0058 -0.1012
 1859TIP3    H127068   5.707   1.236   4.314 -0.0298  0.4616 -0.1665
 1859TIP3    H227069   5.704   1.249   4.163  0.1871 -0.2852 -0.2370
 1860TIP3   OH227070   3.550   2.065  14.928  0.2828  0.4033  0.7544
 1860TIP3    H127071   3.612   2.013  14.878 -1.7404 -0.8364 -0.6384
 1860TIP3    H227072   3.540   2.146  14.877 -1.9019 -0.9256 -1.1240
 1861TIP3   OH227073   1.578   6.728   0.355 -0.2469  0.1665 -0.1797
 1861TIP3    H127074   1.652   6.755   0.409 -0.0909 -2.3284  1.0149
 1861TIP3    H227075   1.503   6.729   0.414 -0.1303 -2.3135  0.1017
 1862TIP3   OH227076   5.226   4.382  12.572  0.1994  0.0730 -0.2250
 1862TIP3    H127077   5.219   4.468  12.530  0.1002 -0.2032 -0.7962
 1862TIP3    H227078   5.183   4.323  12.510 -0.7136 -0.2226  0.6714
 1863TIP3   OH227079   5.211   1.359   0.131  0.2321 -0.2031  0.0759
 1863TIP3    H127080   5.204   1.428   0.065 -0.8694  0.8420  1.2385
 1863TIP3    H227081   5.121   1.343   0.159  0.2547 -3.2787 -1.2610
 1864TIP3   OH227082   3.710   4.545   3.698  0.1998  0.7209  0.0865
 1864TIP3    H127083   3.780   4.596   3.657  0.4629 -0.4647 -1.0149
 1864TIP3    H227084   3.742   4.455   3.698 -0.6065  0.4082  1.1957
 1865TIP3   OH227085   2.328   2.043   0.295  0.0715  0.0419 -0.6967
 1865TIP3    H127086   2.305   2.035   0.388 -0.8977 -1.1559 -1.0126
 1865TIP3    H227087   2.415   2.081   0.295 -0.0226  0.3098  0.7046
 1866TIP3   OH227088   6.015   4.705   2.496  0.4869  0.1602 -0.2856
 1866TIP3    H127089   5.967   4.673   2.419 -1.8268 -0.8574  1.4474
 1866TIP3    H227090   6.063   4.629   2.528 -0.9671 -0.3163  0.9176
 1867TIP3   OH227091   2.649   0.428  16.140 -0.1680 -0.1520  0.0805
 1867TIP3    H127092   2.713   0.483  16.186 -0.6590  0.2555  0.2809
 1867TIP3    H227093   2.648   0.461  16.051  0.3074 -0.5259 -0.0751
 1868TIP3   OH227094   1.424   0.330  17.282  0.2430  0.6729 -0.1458
 1868TIP3    H127095   1.389   0.307  17.369  2.5658  2.1203  1.2837
 1868TIP3    H227096   1.489   0.263  17.263  1.2878  1.5207  0.3025
 1869TIP3   OH227097   2.720   6.175  11.918 -0.4088  0.0314 -0.2572
 1869TIP3    H127098   2.671   6.095  11.937 -0.8911  0.0777 -1.2488
 1869TIP3    H227099   2.729   6.219  12.003 -1.4548 -0.3377  0.0529
 1870TIP3   OH227100   2.654   6.402  15.423  0.0992 -0.8377 -0.4857
 1870TIP3    H127101   2.632   6.488  15.460 -0.2795 -0.6438 -1.1493
 1870TIP3    H227102   2.647   6.342  15.497 -2.0936 -0.6930 -0.4843
 1871TIP3   OH227103   1.545   6.395  12.526 -0.3830  0.0518 -0.1285
 1871TIP3    H127104   1.513   6.485  12.520 -0.4129 -0.0273 -1.6211
 1871TIP3    H227105   1.605   6.395  12.601  0.3749  1.5625 -0.6945
 1872TIP3   OH227106   0.811   6.656  16.584  0.9965 -0.2755 -0.4303
 1872TIP3    H127107   0.794   6.586  16.522 -1.3181  0.5371 -0.8014
 1872TIP3    H227108   0.890   6.628  16.631  0.2783 -2.9977 -0.7026
 1873TIP3   OH227109   5.142   6.653  15.721 -0.2718 -0.0871 -0.2798
 1873TIP3    H127110   5.139   6.567  15.679 -0.2285 -0.4539  0.4421
 1873TIP3    H227111   5.231   6.659  15.756 -0.3186  0.1895 -0.2063
 1874TIP3   OH227112   3.044   2.247  11.031 -0.1514  0.2838  0.0794
 1874TIP3    H127113   3.105   2.242  11.104 -0.9169 -1.3464  0.6356
 1874TIP3    H227114   3.029   2.156  11.005 -0.7126  0.7762 -1.4184
 1875TIP3   OH227115   5.325   1.089   4.560  0.3715 -0.2349 -0.3985
 1875TIP3    H127116   5.361   1.020   4.616  2.2217  0.2067 -0.9739
 1875TIP3    H227117   5.231   1.087   4.577  0.6839 -1.1918  1.5117
 1876TIP3   OH227118   6.267   4.938  14.674  0.7323 -0.3740 -0.2083
 1876TIP3    H127119   6.212   4.861  14.689 -1.4872  1.3012  0.9014
 1876TIP3    H227120   6.273   4.980  14.760 -0.2103  1.9757 -1.2297
 1877TIP3   OH227121   3.115   3.986   4.187 -0.5714  1.0599  0.0844
 1877TIP3    H127122   3.210   4.001   4.187 -0.5389  0.9042  1.0852
 1877TIP3    H227123   3.079   4.055   4.132  0.2520  0.2200 -1.6082
 1878TIP3   OH227124   3.317   3.165   4.290 -0.5120 -0.2972 -0.1302
 1878TIP3    H127125   3.276   3.201   4.211 -1.8129 -0.2584  0.5351
 1878TIP3    H227126   3.257   3.096   4.318 -1.3004  1.2145  2.1161
 1879TIP3   OH227127   1.441   3.867   0.254  0.1518  0.3125  0.3663
 1879TIP3    H127128   1.519   3.915   0.282 -0.1008  0.6505  0.4962
 1879TIP3    H227129   1.368   3.922   0.281 -0.1983 -0.7087  1.6081
 1880TIP3   OH227130   2.817   3.578  11.394  0.0583  0.1791 -0.7324
 1880TIP3    H127131   2.732   3.552  11.428 -0.8735  1.7096 -1.7333
 1880TIP3    H227132   2.850   3.501  11.348 -0.5609 -0.5693  0.0524
 1881TIP3   OH227133   5.843   0.546   0.251  0.2794  0.1477  0.0402
 1881TIP3    H127134   5.754   0.576   0.267 -0.1749 -1.0144 -0.1525
 1881TIP3    H227135   5.858   0.561   0.158 -0.0277 -0.3999 -0.1029
 1882TIP3   OH227136   6.050   5.129  15.367 -0.1823 -0.3628 -0.3181
 1882TIP3    H127137   6.063   5.034  15.374 -1.1415 -0.6068 -1.4780
 1882TIP3    H227138   5.955   5.141  15.376 -0.1879  0.3663 -1.2335
 1883TIP3   OH227139   1.549   0.162  15.376  0.3116  0.0026  0.5435
 1883TIP3    H127140   1.570   0.094  15.311 -0.3707 -0.9809  1.3067
 1883TIP3    H227141   1.592   0.132  15.456  0.8506  1.0230  0.6516
 1884TIP3   OH227142   3.188   3.507   1.040  0.4269  0.0795 -0.9616
 1884TIP3    H127143   3.109   3.523   0.990  0.4305 -2.1348 -1.8020
 1884TIP3    H227144   3.231   3.434   0.995  2.2933  0.3704  0.2071
 1885TIP3   OH227145   5.749   5.865  15.923 -0.4105  0.0291  0.1002
 1885TIP3    H127146   5.733   5.923  15.849 -0.6046  0.4042  0.4350
 1885TIP3    H227147   5.741   5.921  16.000  0.9172 -0.1101  0.3552
 1886TIP3   OH227148   5.902   5.932   4.060 -0.6717  0.5196 -0.0126
 1886TIP3    H127149   5.857   5.967   4.137  0.8283  0.7377  0.8028
 1886TIP3    H227150   5.942   5.850   4.091  1.8166  1.6933  0.1350
 1887TIP3   OH227151   6.623   3.220  11.930 -0.0890  0.4934 -0.2937
 1887TIP3    H127152   6.540   3.264  11.907  0.8440  2.7416  0.3655
 1887TIP3    H227153   6.601   3.165  12.005 -1.1309  0.5560 -0.5398
 1888TIP3   OH227154   0.969   1.775  11.096  0.6520 -0.0808 -0.0453
 1888TIP3    H127155   1.044   1.766  11.155  0.7317 -0.8628 -0.2616
 1888TIP3    H227156   0.944   1.685  11.074  1.3098  0.1756 -2.0732
 1889TIP3   OH227157   5.671   5.404  15.361  0.9442  0.1851 -0.0019
 1889TIP3    H127158   5.685   5.367  15.274  2.8185 -0.2251  0.4156
 1889TIP3    H227159   5.592   5.457  15.353  0.8115 -0.2358 -1.8193
 1890TIP3   OH227160   1.344   2.833   2.157  0.5075 -0.3982 -0.4174
 1890TIP3    H127161   1.285   2.765   2.128 -0.2563  0.1299 -0.1423
 1890TIP3    H227162   1.422   2.786   2.187 -0.0605 -1.1579 -0.0948
 1891TIP3   OH227163   2.047   1.717  13.934  0.2004  0.1676  0.2628
 1891TIP3    H127164   2.010   1.767  13.862 -2.9163 -0.9676  0.9420
 1891TIP3    H227165   2.118   1.667  13.894 -0.3043  0.8873 -1.6199
 1892TIP3   OH227166   1.327   0.698   4.846  0.5089 -0.5094  0.5521
 1892TIP3    H127167   1.235   0.723   4.856  0.1216 -1.7860  0.2841
 1892TIP3    H227168   1.333   0.613   4.888  1.3036 -0.9680 -0.4550
 1893TIP3   OH227169   4.640   0.950   0.135  0.0096  0.1067  0.1096
 1893TIP3    H127170   4.590   0.890   0.191 -1.4105  1.5675  0.4805
 1893TIP3    H227171   4.605   1.036   0.156  0.0088  0.7904 -2.4718
 1894TIP3   OH227172   6.460   0.474  12.457 -0.6390  0.3393  0.4049
 1894TIP3    H127173   6.487   0.425  12.535 -0.1316 -2.1743 -1.2285
 1894TIP3    H227174   6.365   0.466  12.455 -0.5970 -0.1919  0.4129
 1895TIP3   OH227175   3.234   4.019   2.996 -0.2744  0.5219  0.4817
 1895TIP3    H127176   3.308   3.970   3.032  0.2405 -0.6543 -1.9804
 1895TIP3    H227177   3.261   4.110   3.002  0.4940  0.2436  1.4799
 1896TIP3   OH227178   1.206   6.685   3.207  0.1701  0.5438  0.6640
 1896TIP3    H127179   1.219   6.706   3.300  1.0854  0.4091  0.5772
 1896TIP3    H227180   1.290   6.649   3.179 -0.7589 -1.4802  0.3198
 1897TIP3   OH227181   6.744   0.115   2.460 -0.8582 -0.5984 -0.2871
 1897TIP3    H127182   6.698   0.173   2.399 -1.8964  0.6309  1.5658
 1897TIP3    H227183   6.799   0.173   2.512 -2.5699 -1.0222  2.2174
 1898TIP3   OH227184   2.681   5.945  16.299 -0.0466 -0.1150 -0.0160
 1898TIP3    H127185   2.608   5.997  16.332 -0.1474 -0.4988  0.3776
 1898TIP3    H227186   2.673   5.949  16.204 -1.1363 -0.9218  0.0243
 1899TIP3   OH227187   2.132   1.310  16.897  0.1330 -0.7434  0.1298
 1899TIP3    H127188   2.044   1.304  16.860 -0.0077 -2.8295  0.7193
 1899TIP3    H227189   2.176   1.231  16.867  1.0530 -0.8871  1.7818
 1900TIP3   OH227190   1.409   4.566   5.358 -0.7028 -0.5271  0.1360
 1900TIP3    H127191   1.393   4.643   5.303  0.8590 -1.6931 -2.1467
 1900TIP3    H227192   1.505   4.560   5.363 -0.7803 -0.3633  3.2943
 1901TIP3   OH227193   4.050   3.145   5.051 -0.0389 -0.2467 -0.1352
 1901TIP3    H127194   4.024   3.059   5.086 -1.3074  0.0340 -0.3396
 1901TIP3    H227195   3.992   3.207   5.094  0.6199  0.4836 -0.2768
 1902TIP3   OH227196   0.823   1.686  13.340 -0.0190  0.3803 -0.3768
 1902TIP3    H127197   0.748   1.634  13.368  0.6240 -1.1913 -1.4188
 1902TIP3    H227198   0.836   1.749  13.410  0.6555 -2.4385  2.2925
 1903TIP3   OH227199   1.746   0.711   5.370  0.2813  0.4142  0.4555
 1903TIP3    H127200   1.823   0.704   5.426 -0.2436  0.2522  1.1744
 1903TIP3    H227201   1.714   0.800   5.383 -1.1232 -0.2934  2.1654
 1904TIP3   OH227202   2.865   0.600  16.232  0.0228 -0.0728 -0.4064
 1904TIP3    H127203   2.853   0.662  16.304 -0.6820 -0.1329 -0.4612
 1904TIP3    H227204   2.870   0.655  16.154 -2.4204 -0.1311 -0.6709
 1905TIP3   OH227205   6.794   4.624   5.506  0.4536 -0.2640 -0.1821
 1905TIP3    H127206   6.782   4.666   5.421 -0.0919 -0.5098 -0.2290
 1905TIP3    H227207   6.771   4.532   5.491  0.2651 -0.2900  0.2481
 1906TIP3   OH227208   2.523   0.913   1.121 -0.4303 -0.9089 -0.8318
 1906TIP3    H127209   2.501   0.974   1.051 -1.3922  0.8744  0.9295
 1906TIP3    H227210   2.556   0.835   1.075 -2.2158 -0.3414 -3.3084
 1907TIP3   OH227211   6.511   2.673   1.188 -0.2318 -0.3500  0.1049
 1907TIP3    H127212   6.543   2.746   1.241  0.5107  0.4756 -1.4324
 1907TIP3    H227213   6.501   2.709   1.100  0.2887 -2.1320 -0.7364
 1908TIP3   OH227214   3.427   3.256   2.128  0.3575  0.4903  0.2606
 1908TIP3    H127215   3.367   3.330   2.134 -0.0744  0.1336  0.4147
 1908TIP3    H227216   3.509   3.294   2.099  0.5546  1.2575  1.6974
 1909TIP3   OH227217   4.919   6.677  14.064  1.0738  0.4899  0.4880
 1909TIP3    H127218   4.997   6.622  14.070  1.3550  0.8483  0.1940
 1909TIP3    H227219   4.952   6.766  14.079  0.7613  0.6749  0.0791
 1910TIP3   OH227220   6.145   5.312   4.266  0.0904  0.0902 -0.1203
 1910TIP3    H127221   6.124   5.360   4.346 -2.3174  1.7927 -1.6119
 1910TIP3    H227222   6.213   5.365   4.224 -0.0253  0.2650 -0.0904
 1911TIP3   OH227223   1.743   6.097  12.933 -0.4285 -0.3980  0.0880
 1911TIP3    H127224   1.655   6.131  12.917 -0.2367  0.3190  0.5210
 1911TIP3    H227225   1.769   6.059  12.849 -0.6985  0.4287 -0.3861
 1912TIP3   OH227226   4.380   4.952  15.499 -0.6459  0.0062  0.4147
 1912TIP3    H127227   4.322   4.906  15.560 -1.5203 -1.7359 -1.5957
 1912TIP3    H227228   4.417   4.882  15.445 -1.1769  1.5684 -2.0878
 1913TIP3   OH227229   1.232   0.841   4.331  0.0154 -0.2055  0.3466
 1913TIP3    H127230   1.212   0.755   4.369  0.1728 -0.6583 -0.5539
 1913TIP3    H227231   1.206   0.832   4.239  0.4518  0.5702  0.1432
 1914TIP3   OH227232   4.820   6.204   3.365  0.2137  0.9657  0.7067
 1914TIP3    H127233   4.905   6.217   3.406 -0.1359  2.7339  0.9324
 1914TIP3    H227234   4.758   6.197   3.438 -0.2227  2.7648  0.5534
 1915TIP3   OH227235   1.474   5.148  11.372  0.2358  0.3842  0.2172
 1915TIP3    H127236   1.508   5.195  11.449  2.3941 -1.3999  0.4775
 1915TIP3    H227237   1.516   5.191  11.298  0.7565  0.0868  0.3258
 1916TIP3   OH227238   0.512   3.423  17.067  0.2845  0.1252  0.0122
 1916TIP3    H127239   0.426   3.430  17.025  0.5623 -1.1576 -0.8107
 1916TIP3    H227240   0.492   3.415  17.160 -0.4989 -0.4495 -0.1962
 1917TIP3   OH227241   4.566   5.313   3.957 -0.2182 -0.4327  0.2298
 1917TIP3    H127242   4.625   5.338   3.886 -1.3627  1.4569 -0.1335
 1917TIP3    H227243   4.561   5.218   3.952  1.4800 -0.5142 -0.7610
 1918TIP3   OH227244   3.926   6.441   5.224 -0.1744 -0.2585  0.0917
 1918TIP3    H127245   3.989   6.436   5.295 -1.7105 -0.0441  1.5566
 1918TIP3    H227246   3.977   6.430   5.144  1.8200  0.7997  1.1449
 1919TIP3   OH227247   6.709   0.035  14.331  0.6093  0.3603 -0.4825
 1919TIP3    H127248   6.746   0.121  14.349  1.7570  0.0404 -1.2550
 1919TIP3    H227249   6.620   0.054  14.301  0.8108  1.2760 -0.5418
 1920TIP3   OH227250   2.613   3.739  12.316 -0.4334  0.0467 -0.1308
 1920TIP3    H127251   2.540   3.760  12.374 -1.5749 -2.3288 -0.5609
 1920TIP3    H227252   2.612   3.807  12.249 -1.5380  0.6655  0.4958
 1921TIP3   OH227253   4.051   3.923  16.214  0.6463 -0.5108  0.7271
 1921TIP3    H127254   3.970   3.972  16.229  0.5821 -0.1308 -0.7645
 1921TIP3    H227255   4.071   3.884  16.300 -1.0763 -0.5798  1.1385
 1922TIP3   OH227256   5.494   2.431   4.323 -0.5191  0.1975  0.0575
 1922TIP3    H127257   5.569   2.388   4.363 -1.4567 -1.3731  0.2204
 1922TIP3    H227258   5.471   2.374   4.249 -1.3057  0.8690 -0.2266
 1923TIP3   OH227259   6.465   3.577   4.757  0.0872  0.0465 -0.2033
 1923TIP3    H127260   6.489   3.645   4.694  0.3914 -1.1103 -1.3954
 1923TIP3    H227261   6.540   3.571   4.816  0.0145  0.8030 -0.0288
 1924TIP3   OH227262   0.741   6.710  11.753 -0.1817 -0.1234  0.5152
 1924TIP3    H127263   0.820   6.764  11.765 -1.2022  1.3127  1.0366
 1924TIP3    H227264   0.670   6.765  11.783 -1.5623 -0.8899 -1.1643
 1925TIP3   OH227265   6.610   3.895  14.733  0.2377 -0.4308  0.2840
 1925TIP3    H127266   6.538   3.847  14.773  0.3408  0.4249  1.5309
 1925TIP3    H227267   6.674   3.827  14.710 -0.4658 -1.0743  0.1884
 1926TIP3   OH227268   1.742   4.294  12.244 -0.4357 -0.0561 -0.1473
 1926TIP3    H127269   1.791   4.214  12.264  0.7253  0.5470 -0.4718
 1926TIP3    H227270   1.756   4.350  12.320  0.2743  0.5292 -0.6989
 1927TIP3   OH227271   0.843   6.730   1.752  0.0077  0.4744  0.1247
 1927TIP3    H127272   0.909   6.797   1.768  0.8950 -0.2101 -0.5837
 1927TIP3    H227273   0.800   6.719   1.837  1.2544  0.4641  0.7856
 1928TIP3   OH227274   5.536   3.243   5.129  0.3955 -0.4348 -0.2655
 1928TIP3    H127275   5.585   3.319   5.158 -0.8373  0.3702 -0.1966
 1928TIP3    H227276   5.532   3.186   5.206  0.8305 -0.3108 -0.1482
 1929TIP3   OH227277   1.589   6.185   0.392  0.0445  0.1879 -0.3522
 1929TIP3    H127278   1.553   6.197   0.305  1.0910  1.5358 -0.6411
 1929TIP3    H227279   1.662   6.123   0.380 -0.9212 -1.0387 -0.0951
 1930TIP3   OH227280   4.499   4.381  10.716 -0.3578 -0.5319 -0.1703
 1930TIP3    H127281   4.421   4.344  10.758  0.4796 -0.6862  1.2801
 1930TIP3    H227282   4.468   4.406  10.628 -1.9137 -1.0391  0.1943
 1931TIP3   OH227283   3.495   1.829   5.419 -0.4510 -0.0760  0.3566
 1931TIP3    H127284   3.518   1.828   5.326 -1.5611  0.8027  0.0515
 1931TIP3    H227285   3.527   1.745   5.452  0.7443 -0.0318 -0.6084
 1932TIP3   OH227286   1.851   0.465  15.620  0.3836 -0.1683 -0.4041
 1932TIP3    H127287   1.757   0.472  15.603  0.2706 -0.0372  0.2352
 1932TIP3    H227288   1.887   0.546  15.585  0.3710 -0.5554 -1.3360
 1933TIP3   OH227289   6.221   5.306   1.892  0.1038 -0.0373  0.3172
 1933TIP3    H127290   6.278   5.275   1.822 -0.9521  0.9424 -1.0141
 1933TIP3    H227291   6.248   5.396   1.908 -1.2832  0.5617 -0.5912
 1934TIP3   OH227292   5.799   6.579   0.760  0.1967  0.0900 -0.0137
 1934TIP3    H127293   5.769   6.633   0.686 -0.6081  1.3042  1.1468
 1934TIP3    H227294   5.732   6.592   0.827  0.8244 -1.1314  0.8773
 1935TIP3   OH227295   3.368   6.330   6.746 -0.2420  0.3555  0.1979
 1935TIP3    H127296   3.316   6.378   6.810 -1.6244 -0.5190 -0.2111
 1935TIP3    H227297   3.366   6.239   6.777  0.8547  0.2713  0.0433
 1936TIP3   OH227298   0.692   3.811   2.579 -0.1704  0.2285  0.0935
 1936TIP3    H127299   0.782   3.820   2.547 -0.1165  0.2413  0.2506
 1936TIP3    H227300   0.694   3.736   2.638 -0.9213 -1.8343 -2.3293
 1937TIP3   OH227301   0.608   3.317  16.061  0.3974 -0.1180  0.5789
 1937TIP3    H127302   0.630   3.409  16.046  1.3190 -0.6375 -1.5915
 1937TIP3    H227303   0.525   3.320  16.108 -0.3124  1.8423 -0.6630
 1938TIP3   OH227304   3.624   3.045   3.226  0.3664  0.0358 -0.5350
 1938TIP3    H127305   3.669   3.031   3.143  1.0559  0.3232 -0.2267
 1938TIP3    H227306   3.691   3.085   3.282 -0.1491  0.0402  0.0876
 1939TIP3   OH227307   3.415   5.733  16.867 -0.4249  0.7611 -0.4298
 1939TIP3    H127308   3.508   5.745  16.886 -0.7542  0.8040  1.3357
 1939TIP3    H227309   3.377   5.820  16.877 -0.5765  0.8809 -1.8254
 1940TIP3   OH227310   4.205   4.762  16.569 -0.1948  0.0279  0.2178
 1940TIP3    H127311   4.248   4.841  16.535 -1.1707  0.1913 -0.6909
 1940TIP3    H227312   4.159   4.725  16.494  1.3263 -2.1878  0.2818
 1941TIP3   OH227313   3.285   0.591   5.374  0.2165 -0.3210 -0.2752
 1941TIP3    H127314   3.241   0.521   5.325  1.0762 -0.4751 -0.8436
 1941TIP3    H227315   3.306   0.551   5.459  2.6424 -1.5194 -1.3340
 1942TIP3   OH227316   6.069   2.259   4.535  0.0902  0.1848  0.1829
 1942TIP3    H127317   6.135   2.329   4.533 -0.6235  0.9653  1.7076
 1942TIP3    H227318   6.030   2.266   4.623 -1.5862 -0.6542 -0.4505
 1943TIP3   OH227319   5.677   3.451   2.810 -0.3388 -0.2572  0.2967
 1943TIP3    H127320   5.676   3.430   2.716 -0.2001  0.2233  0.1902
 1943TIP3    H227321   5.599   3.506   2.823  0.5474  1.0658  0.1478
 1944TIP3   OH227322   5.137   2.685   3.867 -0.4114 -0.2270 -0.0561
 1944TIP3    H127323   5.056   2.671   3.817 -1.1204  0.7890  0.7741
 1944TIP3    H227324   5.127   2.771   3.907 -0.7359 -1.6556  3.3474
 1945TIP3   OH227325   6.165   5.682   4.019 -0.1771  0.5346 -0.2999
 1945TIP3    H127326   6.151   5.590   3.993 -0.0528  0.5052 -0.2623
 1945TIP3    H227327   6.107   5.732   3.961 -0.4991  0.4053 -0.0921
 1946TIP3   OH227328   1.900   1.382   3.110  0.0175 -0.0892 -0.7514
 1946TIP3    H127329   1.983   1.424   3.084  0.4826 -1.6854 -2.0355
 1946TIP3    H227330   1.884   1.413   3.199  1.4689  1.0344 -0.8370
 1947TIP3   OH227331   2.708   2.263  12.521 -0.3404  0.0649  0.7952
 1947TIP3    H127332   2.623   2.306  12.527 -0.7348 -0.3964 -0.9641
 1947TIP3    H227333   2.687   2.171  12.502  0.5167  0.2810 -1.4659
 1948TIP3   OH227334   5.473   3.786  10.985 -0.0734  0.2661  0.3537
 1948TIP3    H127335   5.409   3.715  10.983  0.1322  0.0695 -1.9114
 1948TIP3    H227336   5.556   3.743  11.006 -0.0374 -0.1057 -0.5161
 1949TIP3   OH227337   3.009   0.320  16.753 -0.3901  0.4613  0.2012
 1949TIP3    H127338   3.071   0.357  16.817 -1.1570 -0.4323  1.4999
 1949TIP3    H227339   3.065   0.289  16.681  0.8013 -1.0722  1.7085
 1950TIP3   OH227340   2.220   3.055  13.492  0.2583  0.0998 -0.1055
 1950TIP3    H127341   2.133   3.084  13.521  0.2727 -0.5667  0.6298
 1950TIP3    H227342   2.248   2.992  13.558  2.3792  2.1058  1.0620
 1951TIP3   OH227343   0.820   1.500   5.771  0.6139  0.7503 -0.3376
 1951TIP3    H127344   0.780   1.563   5.711 -0.1649  0.4711 -0.1188
 1951TIP3    H227345   0.838   1.424   5.717 -4.7146 -1.5628  0.5860
 1952TIP3   OH227346   0.752   5.368  12.782  0.4548  0.4352 -0.0200
 1952TIP3    H127347   0.697   5.329  12.714  1.7163 -0.5468 -0.5064
 1952TIP3    H227348   0.708   5.348  12.864  1.7425 -3.4049 -0.0951
 1953TIP3   OH227349   4.924   2.459   0.788  0.4397 -0.0665  0.3274
 1953TIP3    H127350   4.899   2.515   0.862 -1.0198  0.9337 -0.8602
 1953TIP3    H227351   4.903   2.510   0.711  2.9834 -0.6385 -0.8478
 1954TIP3   OH227352   2.844   3.493  12.160  0.4086 -0.0270  0.4475
 1954TIP3    H127353   2.906   3.466  12.092 -0.6732  0.6449 -0.8550
 1954TIP3    H227354   2.876   3.451  12.240  1.5967 -1.0261 -0.5128
 1955TIP3   OH227355   2.323   4.238  11.817 -0.0903  0.3049 -0.6897
 1955TIP3    H127356   2.237   4.227  11.777 -0.3446 -0.4870  0.0567
 1955TIP3    H227357   2.384   4.236  11.743 -0.7154  1.1367 -1.2500
 1956TIP3   OH227358   0.334   0.182   0.448 -0.1395  0.3152  0.2663
 1956TIP3    H127359   0.250   0.201   0.490 -0.1492  0.4412  0.1887
 1956TIP3    H227360   0.389   0.149   0.519  0.3684  2.0651  0.7192
 1957TIP3   OH227361   6.205   4.782  12.257 -0.1289 -0.0630  0.4167
 1957TIP3    H127362   6.212   4.707  12.198  1.1078 -0.7061  1.3407
 1957TIP3    H227363   6.111   4.797  12.266 -0.4260 -1.9324  0.7378
 1958TIP3   OH227364   4.685   3.093   3.552 -0.5336 -0.1171 -0.2315
 1958TIP3    H127365   4.692   3.089   3.647  1.5652 -0.4003 -0.3472
 1958TIP3    H227366   4.592   3.079   3.534 -1.1281  0.9129  1.8011
 1959TIP3   OH227367   4.389   4.986  11.736 -0.2756 -0.1061  0.3211
 1959TIP3    H127368   4.323   5.054  11.753  0.1431  0.2426  0.5659
 1959TIP3    H227369   4.411   4.997  11.644 -0.5973 -0.2565  0.2252
 1960TIP3   OH227370   0.533   4.435   1.363  0.2843  0.2577 -0.0905
 1960TIP3    H127371   0.511   4.342   1.370  1.7892 -0.2593 -1.5692
 1960TIP3    H227372   0.553   4.462   1.452 -0.6013 -0.7163  0.4226
 1961TIP3   OH227373   3.588   5.099  16.913 -0.3899  0.4073 -0.6226
 1961TIP3    H127374   3.630   5.016  16.892 -0.2562  0.2320  0.2819
 1961TIP3    H227375   3.650   5.143  16.971 -1.3504  0.2200  0.5898
 1962TIP3   OH227376   1.096   3.207  16.713  0.1027  0.2516 -0.2500
 1962TIP3    H127377   1.049   3.189  16.631  0.1896  1.3260 -0.5604
 1962TIP3    H227378   1.028   3.200  16.780  0.1648 -1.2852 -0.3167
 1963TIP3   OH227379   4.678   0.473   1.858 -0.2789 -0.4993 -0.2478
 1963TIP3    H127380   4.616   0.402   1.872  0.2893 -0.9842 -0.1225
 1963TIP3    H227381   4.720   0.453   1.774  1.3352 -1.4581  0.7272
 1964TIP3   OH227382   6.023   1.471  15.669 -0.3071 -0.2833 -0.4917
 1964TIP3    H127383   5.974   1.415  15.609  0.1391 -0.7145 -0.4568
 1964TIP3    H227384   5.959   1.536  15.698 -0.6088 -0.2627 -1.1841
 1965TIP3   OH227385   3.412   6.053   2.428  0.1601  0.6112  0.4574
 1965TIP3    H127386   3.443   6.138   2.460 -0.7177  0.7991  0.8101
 1965TIP3    H227387   3.318   6.065   2.414  0.0374 -0.2930  0.4729
 1966TIP3   OH227388   1.470   4.836   4.261  0.2506  0.4666  0.1139
 1966TIP3    H127389   1.397   4.806   4.315 -0.5167  1.9047 -0.0584
 1966TIP3    H227390   1.488   4.924   4.293  0.4505  0.9579 -1.2998
 1967TIP3   OH227391   5.236   4.359   0.179  0.1179  0.4495  0.5954
 1967TIP3    H127392   5.187   4.298   0.122  0.3241  0.5352  0.3271
 1967TIP3    H227393   5.295   4.302   0.228  1.1125  0.5380 -0.4639
 1968TIP3   OH227394   3.603   4.692  13.816 -0.0066  0.5155  0.3183
 1968TIP3    H127395   3.514   4.727  13.823 -0.1398  0.5252 -1.2149
 1968TIP3    H227396   3.601   4.636  13.739  1.4732  1.0198 -0.1279
 1969TIP3   OH227397   4.876   5.722  15.701  0.6053  0.1266  0.6057
 1969TIP3    H127398   4.875   5.811  15.665  0.8554  0.5683  1.6478
 1969TIP3    H227399   4.805   5.677  15.654  0.1769  1.0062  0.3755
 1970TIP3   OH227400   2.751   4.955  15.257 -0.2109  0.0810  0.2694
 1970TIP3    H127401   2.710   4.953  15.343  0.5963  0.5063  0.6787
 1970TIP3    H227402   2.843   4.976  15.274 -0.0442  0.2189 -0.6938
 1971TIP3   OH227403   5.606   1.082  17.149  0.4070  0.4445  0.4043
 1971TIP3    H127404   5.675   1.085  17.083 -0.7196  0.0932 -0.8248
 1971TIP3    H227405   5.564   0.997  17.137  1.0899 -0.2656  2.5604
 1972TIP3   OH227406   0.741   1.676   6.336 -0.0311  0.1004 -1.0772
 1972TIP3    H127407   0.782   1.615   6.397  1.6443  1.4819 -0.7594
 1972TIP3    H227408   0.813   1.726   6.298 -1.1184  0.1255 -3.3259
 1973TIP3   OH227409   6.730   1.821  12.470  0.3689 -0.2872 -0.2238
 1973TIP3    H127410   6.679   1.767  12.531 -0.8295  0.5962 -0.4105
 1973TIP3    H227411   6.815   1.778  12.466 -0.4613 -2.0573 -0.2040
 1974TIP3   OH227412   3.959   3.028  16.733  0.0451  0.1345  0.0701
 1974TIP3    H127413   4.008   2.968  16.790  2.6961  0.4347 -1.7297
 1974TIP3    H227414   3.979   3.115  16.768 -0.7504  0.1675  0.4466
 1975TIP3   OH227415   0.540   0.785   1.279  0.5231  0.1732 -0.3189
 1975TIP3    H127416   0.607   0.812   1.216  0.8276 -0.6865 -0.3670
 1975TIP3    H227417   0.586   0.729   1.341 -0.2025 -0.6636 -0.5156
 1976TIP3   OH227418   0.437   4.085   1.706  0.3673 -0.8033 -0.3094
 1976TIP3    H127419   0.349   4.112   1.734  0.8485  0.7320 -0.1750
 1976TIP3    H227420   0.494   4.110   1.778  1.1855  0.2233 -1.2733
 1977TIP3   OH227421   0.291   1.041  11.724  0.4134  0.4869 -0.1603
 1977TIP3    H127422   0.371   1.094  11.715  1.2862 -0.6561  0.6050
 1977TIP3    H227423   0.306   0.988  11.803 -1.1974  0.3984  0.1121
 1978TIP3   OH227424   2.348   1.656  11.779 -0.1152  0.0367  0.5868
 1978TIP3    H127425   2.361   1.612  11.695 -0.8931 -0.7178  0.8510
 1978TIP3    H227426   2.320   1.744  11.755  0.8462  0.2203  0.0610
 1979TIP3   OH227427   0.482   6.793  11.780 -0.3436  0.3710  0.2894
 1979TIP3    H127428   0.433   6.712  11.787 -1.0606  0.9084  1.8540
 1979TIP3    H227429   0.483   6.812  11.686  1.4854 -2.3801 -0.3770
 1980TIP3   OH227430   0.388   1.176   0.846 -0.0666  0.7697 -0.1713
 1980TIP3    H127431   0.422   1.155   0.933  0.8399  0.8813 -0.4884
 1980TIP3    H227432   0.301   1.211   0.863 -1.0961 -1.8464  0.4899
 1981TIP3   OH227433   2.659   2.230   1.158  0.2390 -0.4142  0.1543
 1981TIP3    H127434   2.690   2.144   1.127  1.7474  0.3119 -0.4945
 1981TIP3    H227435   2.734   2.266   1.206 -0.2408  0.6925  0.1008
 1982TIP3   OH227436   2.303   0.049   5.950  0.5584 -0.8144 -0.0976
 1982TIP3    H127437   2.340  -0.037   5.968  1.6965 -0.3191  0.0498
 1982TIP3    H227438   2.328   0.102   6.027  0.5017 -0.1701 -0.5122
 1983TIP3   OH227439   3.900   5.713   4.679 -0.6248 -0.3974 -0.2839
 1983TIP3    H127440   3.859   5.708   4.593  0.5108 -0.6174 -0.8347
 1983TIP3    H227441   3.933   5.624   4.695 -0.1309 -0.1682  0.0134
 1984TIP3   OH227442   1.558   2.528  16.425 -0.2413  0.5656  0.1379
 1984TIP3    H127443   1.477   2.518  16.374 -1.0045  0.0942  1.4097
 1984TIP3    H227444   1.529   2.560  16.510  0.6908 -1.4066  1.2504
 1985TIP3   OH227445   5.615   5.979   0.685  0.1604 -0.1630 -0.2013
 1985TIP3    H127446   5.536   5.951   0.638 -1.2770  0.3958  1.7116
 1985TIP3    H227447   5.649   5.899   0.724 -0.4120 -0.1875  0.2658
 1986TIP3   OH227448   5.289   1.871   6.430  0.2281 -0.2025  0.4019
 1986TIP3    H127449   5.294   1.785   6.390 -0.1926  0.3230 -0.8093
 1986TIP3    H227450   5.377   1.888   6.463  0.1965 -1.2800  1.0743
 1987TIP3   OH227451   5.908   6.703   3.879  0.0326 -0.4294 -0.3417
 1987TIP3    H127452   5.817   6.717   3.903  0.6022  1.3518  1.0735
 1987TIP3    H227453   5.920   6.608   3.881 -1.7512 -0.6777 -0.4839
 1988TIP3   OH227454   3.088   0.604   0.361 -0.4829  0.3312 -0.4167
 1988TIP3    H127455   3.180   0.601   0.386 -0.6054  1.0957  0.1918
 1988TIP3    H227456   3.089   0.616   0.266  0.1183  2.8771 -0.1622
 1989TIP3   OH227457   2.814   3.017   5.456  0.1088 -0.1599 -0.6311
 1989TIP3    H127458   2.786   3.047   5.369 -2.0625 -0.2837 -0.0359
 1989TIP3    H227459   2.878   3.082   5.484  0.7468 -0.0323 -2.2428
 1990TIP3   OH227460   6.577   5.024  14.397 -0.0574  0.2663  0.1010
 1990TIP3    H127461   6.575   4.929  14.399  2.5578  0.1454  0.6068
 1990TIP3    H227462   6.611   5.049  14.483  1.2480  1.5097 -0.7309
 1991TIP3   OH227463   1.786   0.620  11.273  0.6984 -0.3021  0.9288
 1991TIP3    H127464   1.801   0.546  11.213 -0.1241  0.1549  0.1267
 1991TIP3    H227465   1.825   0.695  11.228  1.1175 -0.1692  1.5192
 1992TIP3   OH227466   2.760   1.779   1.553  0.0637  0.1768  0.1475
 1992TIP3    H127467   2.836   1.828   1.585 -0.0801 -0.0741  0.8833
 1992TIP3    H227468   2.794   1.728   1.480  0.7095 -0.2415  0.7207
 1993TIP3   OH227469   3.329   2.670   1.555  0.0046  0.6622  0.4102
 1993TIP3    H127470   3.290   2.608   1.494  0.5215 -0.0967  0.8424
 1993TIP3    H227471   3.321   2.755   1.511  1.8978 -0.0628 -1.4859
 1994TIP3   OH227472   6.144   0.848   3.430  0.0763 -0.3645  0.3905
 1994TIP3    H127473   6.226   0.841   3.381 -0.7791 -0.8830 -1.0166
 1994TIP3    H227474   6.077   0.859   3.363 -0.9929  0.2654  1.5316
 1995TIP3   OH227475   6.705   1.596  16.285 -0.5323 -0.1419 -0.4737
 1995TIP3    H127476   6.791   1.581  16.324 -1.0956 -0.7509  0.5954
 1995TIP3    H227477   6.689   1.689  16.299 -0.2912 -0.1442 -0.1669
 1996TIP3   OH227478   6.738   5.919  14.587 -0.2964  0.2312  0.3319
 1996TIP3    H127479   6.654   5.898  14.629 -0.0161 -0.8535  0.3829
 1996TIP3    H227480   6.800   5.926  14.659  0.2102 -1.7521  0.1373
 1997TIP3   OH227481   3.040   4.783   3.338  0.4242  0.1161  0.3309
 1997TIP3    H127482   2.997   4.855   3.384  0.0441 -0.9681  1.7233
 1997TIP3    H227483   3.110   4.755   3.396 -0.8675 -2.1266  0.9450
 1998TIP3   OH227484   2.279   6.358  12.958  0.4382 -0.4278  0.0101
 1998TIP3    H127485   2.234   6.292  12.905 -0.4484  0.4209 -0.3199
 1998TIP3    H227486   2.346   6.308  13.006 -0.7326 -1.6887  0.3959
 1999TIP3   OH227487   6.123   3.011   2.916  0.4059 -0.4015  0.0582
 1999TIP3    H127488   6.146   3.040   2.828  0.1447  1.8663  0.6740
 1999TIP3    H227489   6.206   2.987   2.956  0.4827 -1.8765 -0.8988
 2000TIP3   OH227490   6.617   0.296  14.150  0.1100 -0.0898 -0.1525
 2000TIP3    H127491   6.580   0.264  14.232  3.5106 -1.0976  1.1652
 2000TIP3    H227492   6.562   0.257  14.082 -1.4846 -1.0481  1.5904
 2001TIP3   OH227493   2.988   5.191  14.877 -0.4807  0.1284  0.4669
 2001TIP3    H127494   2.971   5.254  14.807  0.9849  0.2635  0.2041
 2001TIP3    H227495   3.025   5.243  14.948  0.3254 -0.3459  0.4130
 2002TIP3   OH227496   0.970   6.747   5.997 -0.4674 -0.1086 -0.2933
 2002TIP3    H127497   0.963   6.780   6.086 -3.0292 -2.3436  0.4729
 2002TIP3    H227498   1.049   6.789   5.962 -0.2325  2.0348  2.4494
 2003TIP3   OH227499   6.677   3.388  16.700  0.1274 -0.4440 -0.3245
 2003TIP3    H127500   6.718   3.310  16.737  1.5720 -0.4159 -1.7323
 2003TIP3    H227501   6.745   3.428  16.646 -0.6457  1.6854  0.1717
 2004TIP3   OH227502   2.191   0.417   6.473  0.5865  0.6214 -0.0901
 2004TIP3    H127503   2.150   0.364   6.404  1.9321  0.4030 -0.7529
 2004TIP3    H227504   2.280   0.433   6.441  1.2806  0.4317  1.6551
 2005TIP3   OH227505   4.088   4.097   3.845  0.0194 -0.2219  0.1292
 2005TIP3    H127506   4.132   4.015   3.867  1.3832  0.3245 -0.4134
 2005TIP3    H227507   4.143   4.165   3.885 -1.3978  0.4252  1.0630
 2006TIP3   OH227508   4.123   1.519   4.285  0.2020 -0.1755 -0.4226
 2006TIP3    H127509   4.193   1.567   4.242 -1.0672  2.7795  0.5257
 2006TIP3    H227510   4.164   1.479   4.362  1.2995 -0.5958 -1.2123
 2007TIP3   OH227511   6.185   4.907  13.279  1.0139 -0.3958 -0.2660
 2007TIP3    H127512   6.241   4.856  13.220  1.2154  0.1353 -0.5428
 2007TIP3    H227513   6.166   4.987  13.230  0.1009 -0.5134 -0.1322
 2008TIP3   OH227514   4.680   3.826   3.476  0.3741  0.2140  0.3786
 2008TIP3    H127515   4.703   3.853   3.565  1.3399  0.4062  0.0817
 2008TIP3    H227516   4.591   3.859   3.463  0.6442  1.1889  0.8754
 2009TIP3   OH227517   5.343   4.451  15.107 -0.3474 -0.6737 -0.1610
 2009TIP3    H127518   5.311   4.528  15.059  2.2695  0.6998  0.1544
 2009TIP3    H227519   5.273   4.431  15.169 -1.9346  0.1874 -1.5772
 2010TIP3   OH227520   5.348   2.227   4.165  0.5747 -0.0138  0.0281
 2010TIP3    H127521   5.282   2.283   4.205  0.2850  0.3618 -0.9328
 2010TIP3    H227522   5.364   2.268   4.079  0.3774 -1.3811 -0.6821
 2011TIP3   OH227523   1.660   4.119  11.258  0.4546 -0.1976 -0.5369
 2011TIP3    H127524   1.569   4.118  11.286 -0.1205  0.9616 -2.2099
 2011TIP3    H227525   1.660   4.170  11.177  2.2244 -2.1456 -1.8737
 2012TIP3   OH227526   1.187   4.944  16.981 -0.1911 -0.8989 -0.1250
 2012TIP3    H127527   1.100   4.960  17.019 -0.0648  0.9237 -0.4984
 2012TIP3    H227528   1.248   4.970  17.049  0.0688 -1.3344 -0.1879
 2013TIP3   OH227529   3.790   5.018  11.484 -0.1522  0.4826 -0.4692
 2013TIP3    H127530   3.699   5.029  11.458 -0.4308 -0.0296  0.2635
 2013TIP3    H227531   3.799   5.066  11.566  0.6800  1.9333 -1.3569
 2014TIP3   OH227532   4.142   5.991   4.274 -0.7238  0.2705  0.2175
 2014TIP3    H127533   4.100   5.905   4.285 -2.7952  1.1580 -0.2266
 2014TIP3    H227534   4.078   6.042   4.224  0.7869  1.8530 -0.1785
 2015TIP3   OH227535   3.055   6.543   0.569  0.2973 -0.1617 -0.0641
 2015TIP3    H127536   2.990   6.613   0.573 -0.0685 -0.4579 -0.6542
 2015TIP3    H227537   3.135   6.582   0.605 -0.0964  0.3279  0.2987
 2016TIP3   OH227538   2.695   6.803  15.930  0.1510 -0.0807 -0.2961
 2016TIP3    H127539   2.664   6.856  16.004  0.3754  0.4255 -0.5578
 2016TIP3    H227540   2.734   6.866  15.870  0.0552 -0.5008 -0.8100
 2017TIP3   OH227541   3.553   0.775  12.764  0.1088 -0.1940 -0.3773
 2017TIP3    H127542   3.580   0.811  12.849 -1.6934  1.6739 -0.5195
 2017TIP3    H227543   3.533   0.852  12.711  0.2322 -1.3621 -2.1870
 2018TIP3   OH227544   0.003   0.492   4.575 -0.1196  0.0694  0.3680
 2018TIP3    H127545  -0.024   0.531   4.491 -0.9338 -0.9114  0.1502
 2018TIP3    H227546  -0.075   0.446   4.605  0.6340 -0.8726  0.9166
 2019TIP3   OH227547   0.266   1.008  14.120 -0.0215  0.2641  0.1030
 2019TIP3    H127548   0.359   0.986  14.126  0.1655 -0.6281 -3.6784
 2019TIP3    H227549   0.225   0.960  14.191  2.2155 -0.5444  0.9339
 2020TIP3   OH227550   3.883   3.295   5.450  0.6048  0.7875  0.0011
 2020TIP3    H127551   3.921   3.219   5.407  1.3576  1.1841 -0.0622
 2020TIP3    H227552   3.956   3.333   5.500  0.1831  1.3209  0.2240
 2021TIP3   OH227553   2.885   2.416   5.648 -0.1488 -0.4803  0.5503
 2021TIP3    H127554   2.855   2.496   5.692 -1.1820 -0.7213  0.3060
 2021TIP3    H227555   2.971   2.399   5.686  0.8215  1.6396 -0.5552
 2022TIP3   OH227556   2.976   5.745  16.983  0.0695 -0.1807  0.0134
 2022TIP3    H127557   3.038   5.818  16.988 -0.5006  0.5344 -2.1020
 2022TIP3    H227558   3.020   5.673  17.028  2.4028  0.3335 -1.2580
 2023TIP3   OH227559   2.233   5.744  12.820 -0.7716 -0.1703  0.3078
 2023TIP3    H127560   2.311   5.794  12.845  0.0238  0.2652 -2.6858
 2023TIP3    H227561   2.246   5.725  12.727 -2.4616 -3.4017  0.6014
 2024TIP3   OH227562   1.531   3.065  12.924 -0.5499 -0.0671  0.1340
 2024TIP3    H127563   1.511   2.978  12.958  1.1907 -1.0441 -1.1592
 2024TIP3    H227564   1.622   3.080  12.950  0.2530 -0.0996 -2.4416
 2025TIP3   OH227565   3.238   5.832   3.402 -0.5834  0.5537  0.4222
 2025TIP3    H127566   3.261   5.744   3.431  1.8422  0.6428 -0.9727
 2025TIP3    H227567   3.209   5.821   3.311  1.4405  1.3339 -0.3711
 2026TIP3   OH227568   2.448   0.243  17.062 -0.1843  0.0921 -0.2586
 2026TIP3    H127569   2.495   0.277  16.986  0.9731 -0.8429 -0.0007
 2026TIP3    H227570   2.464   0.308  17.131  0.3036  0.0535 -0.3288
 2027TIP3   OH227571   2.082   2.022   0.895 -0.0526  0.0012 -0.1316
 2027TIP3    H127572   2.150   2.008   0.829  1.4998  0.6353  1.2771
 2027TIP3    H227573   2.012   2.067   0.848  0.4046 -0.8087 -1.6561
 2028TIP3   OH227574   0.827   6.375   0.861 -0.0797 -0.2767  0.0447
 2028TIP3    H127575   0.758   6.369   0.928  0.7273 -1.3538  0.8236
 2028TIP3    H227576   0.901   6.415   0.907  0.1109  0.0371 -0.5305
 2029TIP3   OH227577   0.761   1.035   1.010 -0.1274 -0.0236 -0.0877
 2029TIP3    H127578   0.696   0.966   0.994 -0.0712  0.0606 -0.7156
 2029TIP3    H227579   0.834   1.013   0.952  0.0532  0.3468 -0.0032
 2030TIP3   OH227580   3.324   2.426  11.811 -0.5769 -0.4107  0.3410
 2030TIP3    H127581   3.249   2.415  11.753 -0.2572  0.8850 -0.3611
 2030TIP3    H227582   3.384   2.355  11.787  0.1897  0.9367 -1.9873
 2031TIP3   OH227583   2.797   0.320   5.360  0.4323 -0.0328  0.3167
 2031TIP3    H127584   2.707   0.354   5.356  0.5090  0.0367 -1.9713
 2031TIP3    H227585   2.786   0.225   5.361  0.3339 -0.0203  0.7951
 2032TIP3   OH227586   0.360   2.648   4.408  0.2522 -0.2499  0.3413
 2032TIP3    H127587   0.325   2.657   4.497 -0.1423  0.1245  0.1502
 2032TIP3    H227588   0.286   2.671   4.351  0.5220 -0.4273 -0.0841
 2033TIP3   OH227589   1.069   4.557  17.155 -0.4926  0.7946  0.0475
 2033TIP3    H127590   1.013   4.563  17.233 -0.8640  2.0008 -0.2927
 2033TIP3    H227591   1.141   4.617  17.173 -0.8114  1.4114 -0.7216
 2034TIP3   OH227592   0.417   3.533  14.840  0.3303 -0.3167 -0.3773
 2034TIP3    H127593   0.479   3.511  14.910  0.0290  1.4580  0.5117
 2034TIP3    H227594   0.449   3.485  14.764  1.7021 -0.9327  0.5404
 2035TIP3   OH227595   0.829   3.437   0.065 -0.5328  0.0206 -0.2243
 2035TIP3    H127596   0.908   3.489   0.055 -0.2805 -0.4109 -0.4812
 2035TIP3    H227597   0.859   3.352   0.098 -1.1229  0.7146  2.3135
 2036TIP3   OH227598   0.637   0.083  13.226  0.3219  0.4349 -0.4277
 2036TIP3    H127599   0.709   0.092  13.288  2.3093 -0.1662 -2.5037
 2036TIP3    H227600   0.624  -0.012  13.218 -0.1105  0.5168 -0.7149
 2037TIP3   OH227601   2.704   2.605  11.480  0.4809  0.0414  0.2353
 2037TIP3    H127602   2.710   2.547  11.403 -1.5369 -0.8750  0.7203
 2037TIP3    H227603   2.795   2.613  11.510  1.0837 -1.0958 -1.1354
 2038TIP3   OH227604   5.498   1.362  12.093 -0.0259  0.4440 -0.3896
 2038TIP3    H127605   5.421   1.305  12.096 -0.3133  0.7159 -1.9692
 2038TIP3    H227606   5.572   1.302  12.098 -0.3297  0.0034 -1.1172
 2039TIP3   OH227607   0.796   3.732   6.264  0.1362 -0.6127 -0.5803
 2039TIP3    H127608   0.755   3.789   6.330  0.3446 -1.3043  0.1636
 2039TIP3    H227609   0.885   3.764   6.256 -0.4037  0.6695 -1.9392
 2040TIP3   OH227610   6.210   2.401  16.469 -0.3828 -0.2371  0.5732
 2040TIP3    H127611   6.156   2.339  16.517 -0.7235 -1.1451 -0.9078
 2040TIP3    H227612   6.298   2.387  16.502 -0.1348 -2.8185 -0.8913
 2041TIP3   OH227613   3.441   5.711  16.166  0.4674 -0.3087  0.4569
 2041TIP3    H127614   3.476   5.659  16.238 -0.5579  0.2663  1.4131
 2041TIP3    H227615   3.517   5.755  16.128  1.1987 -1.6513  0.3139
 2042TIP3   OH227616   6.007   0.460  16.339  0.4896  0.5119 -0.0487
 2042TIP3    H127617   5.943   0.406  16.292  0.5729 -0.8276  1.2843
 2042TIP3    H227618   6.076   0.477  16.275  0.0028 -0.1891 -0.7727
 2043TIP3   OH227619   0.682   2.467   3.721 -0.7690  0.4667 -1.0747
 2043TIP3    H127620   0.774   2.449   3.703 -0.1528 -0.7421  2.4893
 2043TIP3    H227621   0.634   2.418   3.654  1.1803 -2.5615 -0.4495
 2044TIP3   OH227622   0.648   1.422  11.902 -0.1891 -0.0244 -0.2298
 2044TIP3    H127623   0.693   1.489  11.850  0.5039 -0.6973 -0.5150
 2044TIP3    H227624   0.560   1.458  11.915 -0.2749  0.3192 -1.5815
 2045TIP3   OH227625   4.043   4.693   2.441 -0.2062  0.1531 -0.2220
 2045TIP3    H127626   4.115   4.685   2.503  0.1956  2.8254 -0.2269
 2045TIP3    H227627   3.965   4.670   2.491  0.3578 -0.0100  0.5931
 2046TIP3   OH227628   3.009   4.459   0.880 -0.9518 -0.1345  0.0425
 2046TIP3    H127629   3.018   4.547   0.842  1.1375 -0.7383 -1.0317
 2046TIP3    H227630   2.953   4.412   0.819  0.2074 -0.3128 -0.9357
 2047TIP3   OH227631   3.148   5.928  17.084 -0.2266 -0.2018 -0.2985
 2047TIP3    H127632   3.224   5.884  17.123 -1.2704 -0.9127  1.0030
 2047TIP3    H227633   3.166   6.021  17.097 -0.2424 -0.3974  1.3604
 2048TIP3   OH227634   6.208   5.800   1.183  0.1461 -0.3166 -0.7262
 2048TIP3    H127635   6.283   5.743   1.199 -0.2581 -0.5078  0.5305
 2048TIP3    H227636   6.212   5.819   1.089  0.6996 -1.8201 -1.0246
 2049TIP3   OH227637   6.309   6.633   6.276 -0.3584 -0.1355  0.1510
 2049TIP3    H127638   6.402   6.648   6.296 -0.6404  0.8547  0.8425
 2049TIP3    H227639   6.295   6.541   6.293  0.5261 -0.3272 -0.0819
 2050TIP3   OH227640   5.280   6.747   2.883 -0.0915 -0.2923 -0.3559
 2050TIP3    H127641   5.242   6.669   2.924 -0.2813 -0.3909 -0.7128
 2050TIP3    H227642   5.374   6.739   2.899 -0.0888 -0.7006 -0.5644
 2051TIP3   OH227643   6.643   1.402   2.413  0.0344  0.5561 -0.1568
 2051TIP3    H127644   6.734   1.372   2.413  0.4542  1.6323  1.8922
 2051TIP3    H227645   6.627   1.429   2.323  1.1553 -1.2619 -0.9722
 2052TIP3   OH227646   5.167   5.131   2.950 -0.2562 -0.5461  0.4232
 2052TIP3    H127647   5.243   5.183   2.976  0.1986 -1.5234  1.1041
 2052TIP3    H227648   5.198   5.040   2.951 -1.2849 -0.9158  0.1776
 2053TIP3   OH227649   5.380   3.547   4.713  0.3615 -0.6220  0.6260
 2053TIP3    H127650   5.387   3.469   4.658 -0.0112  1.3879 -2.5385
 2053TIP3    H227651   5.317   3.523   4.781 -0.5627 -2.7673 -0.8619
 2054TIP3   OH227652   2.999   2.456   4.437  0.0215  0.4943 -0.1943
 2054TIP3    H127653   2.924   2.414   4.393  0.6775  1.0486 -1.9350
 2054TIP3    H227654   3.049   2.382   4.472 -0.1926 -0.0402 -0.9623
 2055TIP3   OH227655   3.271   4.247  15.250 -0.1342 -0.2520 -0.1345
 2055TIP3    H127656   3.212   4.185  15.208 -0.0763 -0.2555 -0.2117
 2055TIP3    H227657   3.338   4.264  15.184 -0.4091  0.2580 -0.2951
 2056TIP3   OH227658   4.041   5.715  13.247 -0.6987  0.3689 -0.7212
 2056TIP3    H127659   3.952   5.734  13.220 -1.2089 -0.8513  0.0491
 2056TIP3    H227660   4.062   5.784  13.311 -2.2886 -1.1376  1.5572
 2057TIP3   OH227661   0.105   3.286   2.874 -0.4580 -0.4513  0.1675
 2057TIP3    H127662   0.083   3.198   2.905 -2.1416 -0.3077 -0.5113
 2057TIP3    H227663   0.101   3.341   2.952 -0.9953 -0.7168  0.3301
 2058TIP3   OH227664   4.589   1.405  15.009  0.2755 -0.5282  0.1499
 2058TIP3    H127665   4.559   1.357  14.932  1.7057  0.6599 -1.2478
 2058TIP3    H227666   4.513   1.410  15.066 -0.3877 -2.8664 -0.4213
 2059TIP3   OH227667   0.807   1.577   0.476 -0.6525 -0.0489  0.3825
 2059TIP3    H127668   0.885   1.572   0.530 -0.6711 -0.8983  0.3490
 2059TIP3    H227669   0.735   1.557   0.536 -0.6798 -0.9068  0.0793
 2060TIP3   OH227670   2.236   5.005   5.971 -0.5220 -0.2217  0.7244
 2060TIP3    H127671   2.237   4.993   6.066  0.1655  1.0601  0.9036
 2060TIP3    H227672   2.325   4.982   5.943 -0.6122 -0.2277  0.4419
 2061TIP3   OH227673   3.369   5.963   5.408 -0.1701  0.0156 -0.1594
 2061TIP3    H127674   3.394   5.915   5.487 -1.3571 -0.9747 -0.3494
 2061TIP3    H227675   3.286   6.005   5.431 -0.3705 -0.0291 -0.7759
 2062TIP3   OH227676   0.004   5.214   0.610  0.7824 -0.6405 -0.2133
 2062TIP3    H127677   0.045   5.214   0.697 -2.2841 -0.9291  1.3383
 2062TIP3    H227678  -0.014   5.306   0.592 -1.3856 -0.7755  0.9643
 2063TIP3   OH227679   6.307   4.878  14.103  0.3825  0.1953  0.1393
 2063TIP3    H127680   6.313   4.784  14.088  1.5130  0.1732  0.6385
 2063TIP3    H227681   6.298   4.887  14.198  1.1455  0.6034  0.1870
 2064TIP3   OH227682   0.016   5.365   0.128 -0.1500  0.1163 -0.2048
 2064TIP3    H127683  -0.055   5.402   0.181 -0.2010  0.6913 -0.6620
 2064TIP3    H227684   0.092   5.364   0.186 -0.1773  0.8453 -0.1401
 2065TIP3   OH227685   5.078   1.569  13.783  0.3292 -0.0417  0.5605
 2065TIP3    H127686   4.983   1.558  13.776  0.2839  0.5971  0.1107
 2065TIP3    H227687   5.090   1.661  13.805  0.8740  0.0797 -0.2062
 2066TIP3   OH227688   4.045   2.888   5.598 -0.1772  0.0733 -0.2214
 2066TIP3    H127689   4.129   2.870   5.639 -1.0282 -0.0643  1.5717
 2066TIP3    H227690   4.009   2.962   5.647 -1.0892  0.1357 -0.9497
 2067TIP3   OH227691   4.100   2.851   0.106 -0.2015 -0.3396  0.2447
 2067TIP3    H127692   4.136   2.789   0.170 -2.1637 -0.6436  1.1339
 2067TIP3    H227693   4.069   2.796   0.034  1.0621 -0.0753 -0.5400
 2068TIP3   OH227694   3.032   1.042   2.102 -0.1650 -0.4157 -0.2145
 2068TIP3    H127695   2.978   1.076   2.174 -0.2796 -1.0830  0.0238
 2068TIP3    H227696   3.094   1.113   2.084 -0.2344 -0.1748  0.4384
 2069TIP3   OH227697   2.612   4.872  11.239 -0.3518  0.1169 -0.2172
 2069TIP3    H127698   2.647   4.799  11.189 -0.1450 -0.2387  0.4459
 2069TIP3    H227699   2.534   4.837  11.282 -0.6429  0.4773 -0.4350
 2070TIP3   OH227700   0.247   3.582   1.399  0.6356 -0.2092  0.0605
 2070TIP3    H127701   0.341   3.591   1.379  0.8173  0.3106  1.1143
 2070TIP3    H227702   0.239   3.606   1.491 -0.5926  0.0790 -0.1055
 2071TIP3   OH227703   6.581   1.160   0.105  0.6808 -0.7004  0.4417
 2071TIP3    H127704   6.489   1.184   0.112  0.5207 -0.4932 -1.5869
 2071TIP3    H227705   6.591   1.084   0.162 -0.7284 -0.7028  0.7180
 2072TIP3   OH227706   3.836   4.864   1.194  0.7866 -0.2425 -0.4431
 2072TIP3    H127707   3.894   4.937   1.216 -0.9468  1.1889 -0.3849
 2072TIP3    H227708   3.895   4.793   1.166  2.5177  1.2067 -0.6155
 2073TIP3   OH227709   3.915   4.155   0.355 -0.1564  0.3703  0.0806
 2073TIP3    H127710   3.908   4.142   0.260 -0.2962 -0.3382  0.1854
 2073TIP3    H227711   3.826   4.176   0.383 -0.1422  0.4348  0.0771
 2074TIP3   OH227712   5.200   0.611  16.562 -0.0633 -0.1136  0.5716
 2074TIP3    H127713   5.241   0.695  16.584 -0.6276 -0.0830  1.5747
 2074TIP3    H227714   5.122   0.608  16.617 -0.7680 -0.7059 -0.4361
 2075TIP3   OH227715   5.955   1.008  13.462  0.5134  0.5138 -0.3889
 2075TIP3    H127716   5.984   1.099  13.459  1.5874  0.2197  0.3578
 2075TIP3    H227717   6.036   0.958  13.476 -0.1559 -0.4920 -0.0254
 2076TIP3   OH227718   1.957   1.740   5.722 -0.0128 -0.2952  0.0827
 2076TIP3    H127719   1.990   1.683   5.652  0.2042  0.5773 -0.5350
 2076TIP3    H227720   2.011   1.716   5.798  0.0224 -0.9708 -0.1430
 2077TIP3   OH227721   4.272   3.649   5.683 -0.0986 -0.1564 -0.2885
 2077TIP3    H127722   4.244   3.558   5.671  1.3250 -0.9509  1.7848
 2077TIP3    H227723   4.360   3.651   5.644 -0.0812  0.3207 -0.2271
 2078TIP3   OH227724   3.161   5.352  13.141 -0.0143  0.3371 -0.1166
 2078TIP3    H127725   3.091   5.348  13.076  0.6545 -0.2585 -0.7987
 2078TIP3    H227726   3.229   5.406  13.101  1.1091 -1.3914 -0.6092
 2079TIP3   OH227727   1.918   4.316  15.950  0.0370  0.5155  0.0947
 2079TIP3    H127728   1.932   4.379  16.021 -0.1879  0.4419  0.2041
 2079TIP3    H227729   1.837   4.343  15.909  0.3583  0.7762 -0.3711
 2080TIP3   OH227730   3.302   1.037  12.833 -0.2558 -0.5047 -1.2939
 2080TIP3    H127731   3.211   1.067  12.833  0.3133  1.4039  0.1233
 2080TIP3    H227732   3.354   1.117  12.837  1.5281 -1.5382 -2.2991
 2081TIP3   OH227733   3.932   4.867  15.283 -0.0209  0.2293 -0.0155
 2081TIP3    H127734   3.935   4.951  15.236  0.7915  0.4544  0.4137
 2081TIP3    H227735   4.023   4.837  15.283  0.1727  0.6557  2.1557
 2082TIP3   OH227736   2.010   3.264   6.353 -0.6842  0.5227  0.0081
 2082TIP3    H127737   2.069   3.292   6.283  0.9966 -2.0868  0.2411
 2082TIP3    H227738   2.028   3.324   6.425  1.9809 -0.3265  0.1503
 2083TIP3   OH227739   5.554   4.312   3.114 -0.5272 -0.4412  0.0163
 2083TIP3    H127740   5.497   4.374   3.068 -0.1834 -0.2598 -0.1617
 2083TIP3    H227741   5.510   4.297   3.198 -0.1993  0.6700  0.4075
 2084TIP3   OH227742   4.006   2.895  14.818  0.1829  0.0458  0.0990
 2084TIP3    H127743   3.914   2.873  14.800 -0.2949  0.8474  1.3812
 2084TIP3    H227744   4.051   2.884  14.734 -1.2801  0.6117 -0.7950
 2085TIP3   OH227745   0.063   2.026   3.427  0.5309 -0.0980  0.3578
 2085TIP3    H127746   0.140   2.033   3.371  0.7038 -0.2613  0.5693
 2085TIP3    H227747   0.045   2.116   3.455  1.6113 -0.2191  1.5790
 2086TIP3   OH227748   3.704   2.794   5.622 -0.0276  0.5152 -0.1506
 2086TIP3    H127749   3.715   2.877   5.667  0.9534  0.7924 -0.8787
 2086TIP3    H227750   3.734   2.810   5.532  0.5739 -0.7132 -0.2006
 2087TIP3   OH227751   3.681   3.767   2.241  0.6693 -0.0856  0.3706
 2087TIP3    H127752   3.729   3.823   2.302  0.0459 -0.7140  1.4759
 2087TIP3    H227753   3.643   3.698   2.296 -1.4244  0.3222 -0.4574
 2088TIP3   OH227754   0.625   0.837   3.845  0.4524  0.1542  0.0209
 2088TIP3    H127755   0.633   0.836   3.940  2.2979 -0.4131 -0.0890
 2088TIP3    H227756   0.700   0.888   3.815  0.7903 -0.9649 -1.1596
 2089TIP3   OH227757   6.380   3.372  12.328  0.3642 -0.0216  0.1334
 2089TIP3    H127758   6.427   3.402  12.406  0.4485 -0.5142  0.2725
 2089TIP3    H227759   6.314   3.311  12.361 -0.0088  0.2395 -0.1216
 2090TIP3   OH227760   2.551   0.067  11.582 -0.3602 -0.0348  0.3239
 2090TIP3    H127761   2.582  -0.023  11.587 -2.3316 -0.7472  0.7479
 2090TIP3    H227762   2.620   0.118  11.625  0.5014 -1.4126  0.6561
 2091TIP3   OH227763   4.200   0.316  14.491 -0.3862 -0.4901 -0.1191
 2091TIP3    H127764   4.124   0.257  14.490  0.1056 -1.3148  2.5866
 2091TIP3    H227765   4.163   0.402  14.510 -0.7015 -0.8749  1.1090
 2092TIP3   OH227766   3.343   1.749  10.572 -0.0732  0.0128 -0.3443
 2092TIP3    H127767   3.354   1.698  10.491  0.0745 -0.1031 -0.2507
 2092TIP3    H227768   3.274   1.702  10.620 -0.5588  0.3989 -0.6583
 2093TIP3   OH227769   5.498   2.085   5.291 -0.0951  0.4597 -0.2595
 2093TIP3    H127770   5.520   2.083   5.384 -1.2270 -2.1614  0.0444
 2093TIP3    H227771   5.577   2.052   5.248  0.6360  2.2085 -0.3430
 2094TIP3   OH227772   4.363   4.857  12.166  0.4147  0.2178 -0.3829
 2094TIP3    H127773   4.309   4.936  12.164 -0.5345 -0.4159 -0.2691
 2094TIP3    H227774   4.433   4.874  12.103 -0.3846  0.7353 -1.1520
 2095TIP3   OH227775   5.945   1.785   4.294 -0.8518  0.7781 -0.0734
 2095TIP3    H127776   5.915   1.702   4.258  0.6328 -0.0075  0.3858
 2095TIP3    H227777   5.865   1.832   4.317 -1.7889  0.4409 -2.3768
 2096TIP3   OH227778   6.596   6.790   4.996 -0.0030 -0.5445 -0.3371
 2096TIP3    H127779   6.640   6.874   5.000 -0.3706 -0.3606 -0.1517
 2096TIP3    H227780   6.663   6.726   5.023 -0.2231 -0.1337  1.2942
 2097TIP3   OH227781   3.350   3.117   3.229 -0.1528 -0.5101  0.4894
 2097TIP3    H127782   3.442   3.091   3.224 -0.2411 -0.9215  0.9349
 2097TIP3    H227783   3.305   3.057   3.169  0.3621  2.2589 -2.9921
 2098TIP3   OH227784   2.904   3.024   0.145 -0.5048  0.3227 -0.4096
 2098TIP3    H127785   2.810   3.035   0.161 -0.3769  2.2001 -0.6905
 2098TIP3    H227786   2.944   3.103   0.181  1.0431 -0.6911  0.1699
 2099TIP3   OH227787   0.978   0.410  13.982 -0.3406 -0.0331  0.0534
 2099TIP3    H127788   0.973   0.318  13.956  2.3822 -0.0431 -0.8054
 2099TIP3    H227789   0.900   0.450  13.946 -0.2889 -1.5233 -1.8946
 2100TIP3   OH227790   4.840   0.853   3.022 -0.2483 -0.2649  0.1027
 2100TIP3    H127791   4.865   0.764   3.047  0.7255 -0.7084 -2.2611
 2100TIP3    H227792   4.830   0.850   2.927 -3.9093  1.2934  0.2525
 2101TIP3   OH227793   5.304   6.681   4.880  0.0333 -0.1784  0.4607
 2101TIP3    H127794   5.367   6.729   4.934  0.1711  1.6572 -1.2582
 2101TIP3    H227795   5.347   6.672   4.795 -1.1852 -0.7908 -0.1111
 2102TIP3   OH227796   3.551   2.484   2.393 -0.3001  0.6464  0.8302
 2102TIP3    H127797   3.562   2.534   2.474  2.6521  0.3004  0.7546
 2102TIP3    H227798   3.602   2.404   2.407 -0.3533  0.2454 -1.0623
 2103TIP3   OH227799   4.005   0.147  15.956 -0.9722 -0.3316 -0.1214
 2103TIP3    H127800   4.095   0.170  15.935 -0.3916  0.2512  2.5784
 2103TIP3    H227801   3.956   0.228  15.943 -0.4290  0.3192  1.5446
 2104TIP3   OH227802   0.395   0.816  11.504  0.4888  0.1679  0.5203
 2104TIP3    H127803   0.311   0.853  11.533  0.6516  1.6926 -0.7806
 2104TIP3    H227804   0.371   0.735  11.459 -0.4760  1.2096 -0.9431
 2105TIP3   OH227805   6.309   4.398  11.644 -0.2173 -0.5885 -0.3712
 2105TIP3    H127806   6.397   4.423  11.670 -0.4499  0.0829 -0.2212
 2105TIP3    H227807   6.296   4.311  11.682  0.0934 -0.3571  0.2582
 2106TIP3   OH227808   4.956   1.277   0.898  0.1355 -0.2651 -0.4365
 2106TIP3    H127809   4.912   1.195   0.919 -0.6261  0.0205 -0.8779
 2106TIP3    H227810   4.933   1.335   0.971  0.1835 -0.2666 -0.4204
 2107TIP3   OH227811   0.493   3.571  13.100  0.1545  0.2620  0.3331
 2107TIP3    H127812   0.552   3.594  13.171  1.8058  0.2196 -0.9535
 2107TIP3    H227813   0.477   3.477  13.111  0.4489  0.2450  0.6013
 2108TIP3   OH227814   2.099   4.985   5.550  0.0047  0.7418  0.2974
 2108TIP3    H127815   2.114   4.894   5.522  0.4559  0.5846  1.0295
 2108TIP3    H227816   2.182   5.013   5.586  0.2565  1.9045 -1.0998
 2109TIP3   OH227817   2.135   6.772  14.236 -0.3513  0.1620 -0.0995
 2109TIP3    H127818   2.179   6.750  14.154  1.5706  1.1171  0.6280
 2109TIP3    H227819   2.120   6.866  14.232 -1.9457 -0.0605 -0.1092
 2110TIP3   OH227820   6.679   2.705   4.027  0.3101  0.5824 -0.4219
 2110TIP3    H127821   6.726   2.747   3.954 -0.2997  0.4119 -0.9181
 2110TIP3    H227822   6.720   2.619   4.036  1.7411  1.3449  0.7671
 2111TIP3   OH227823   3.528   2.756   0.228 -0.6889 -0.2888 -0.0062
 2111TIP3    H127824   3.618   2.779   0.251 -0.1564 -0.8446 -1.4248
 2111TIP3    H227825   3.479   2.767   0.310  0.2517  1.9443  0.3296
 2112TIP3   OH227826   0.793   3.676   0.800 -0.3429 -1.1054  0.4868
 2112TIP3    H127827   0.764   3.636   0.882 -0.7383 -0.9604  0.4191
 2112TIP3    H227828   0.782   3.770   0.814  1.1097 -0.9614  0.8516
 2113TIP3   OH227829   1.417   2.822  12.977  0.0428 -0.2645 -0.0294
 2113TIP3    H127830   1.452   2.770  13.049  1.2794 -1.7487 -1.6174
 2113TIP3    H227831   1.361   2.762  12.929 -1.3805  0.9177  0.0755
 2114TIP3   OH227832   3.464   6.263  13.964 -0.0660  0.2919 -0.4725
 2114TIP3    H127833   3.399   6.295  14.027  1.3464  1.0738  0.6580
 2114TIP3    H227834   3.517   6.340  13.944  0.3030 -0.2475 -1.6515
 2115TIP3   OH227835   4.586   5.293  12.759 -0.0809 -0.5759  0.1876
 2115TIP3    H127836   4.577   5.222  12.823  0.0141 -1.0030 -0.2627
 2115TIP3    H227837   4.589   5.248  12.674 -3.7169  0.1352 -0.4808
 2116TIP3   OH227838   2.902   2.401  16.573  0.2491  0.2198 -0.4321
 2116TIP3    H127839   2.908   2.491  16.542 -0.6593  1.8338  3.4452
 2116TIP3    H227840   2.969   2.354  16.524  0.3748  2.7950 -3.0267
 2117TIP3   OH227841   0.156   0.773   3.900 -0.2815 -0.5772 -0.6279
 2117TIP3    H127842   0.177   0.704   3.837  2.6479  0.2229 -0.6917
 2117TIP3    H227843   0.107   0.729   3.969 -0.7590 -2.1319 -1.9055
 2118TIP3   OH227844   0.801   3.732   4.192 -0.6511 -0.0359 -0.3768
 2118TIP3    H127845   0.834   3.731   4.102  1.4776 -0.7076  0.3421
 2118TIP3    H227846   0.831   3.649   4.229 -0.7523  0.5952  1.1883
 2119TIP3   OH227847   4.140   3.307  12.982  0.1892 -0.1939  0.1898
 2119TIP3    H127848   4.198   3.383  12.987  1.2177 -0.9460 -0.0849
 2119TIP3    H227849   4.077   3.320  13.053  0.0165  1.1804 -0.1860
 2120TIP3   OH227850   4.280   1.508   5.079  0.5111 -0.3766 -0.3549
 2120TIP3    H127851   4.308   1.580   5.137  1.2510  1.2263 -2.5612
 2120TIP3    H227852   4.244   1.552   5.002 -1.0161 -2.4281 -0.9026
 2121TIP3   OH227853   0.829   4.060  13.543  0.4162 -0.2972 -0.5922
 2121TIP3    H127854   0.818   3.966  13.536 -2.2888 -0.1659  0.7249
 2121TIP3    H227855   0.809   4.093  13.455 -0.5363 -0.8451 -0.5976
 2122TIP3   OH227856   2.321   3.421  12.621 -0.2904  0.1453  0.0998
 2122TIP3    H127857   2.353   3.509  12.640  2.5091 -1.2869  2.8184
 2122TIP3    H227858   2.282   3.391  12.703 -0.6171 -1.3749 -0.5798
 2123TIP3   OH227859   3.345   3.043  14.886 -0.0560  0.3201 -0.1164
 2123TIP3    H127860   3.362   3.130  14.850 -4.1353  1.9241  1.2449
 2123TIP3    H227861   3.387   2.983  14.824  0.8401  3.1443 -2.4935
 2124TIP3   OH227862   2.311   0.116   6.488  0.0489  0.2768 -0.2033
 2124TIP3    H127863   2.230   0.094   6.441  0.2548  0.4204 -0.6262
 2124TIP3    H227864   2.286   0.112   6.581 -0.2564 -0.4199 -0.3053
 2125TIP3   OH227865   2.806   5.872   0.840  0.1554 -0.1683 -0.3455
 2125TIP3    H127866   2.779   5.840   0.926  0.4582 -0.1539 -0.2426
 2125TIP3    H227867   2.734   5.850   0.782  0.0580 -0.4042 -0.1357
 2126TIP3   OH227868   4.774   4.518   5.656  0.0643  0.1636 -0.4327
 2126TIP3    H127869   4.712   4.458   5.699  0.0426  0.9015  0.6238
 2126TIP3    H227870   4.798   4.580   5.725  1.7563  0.0750 -0.9093
 2127TIP3   OH227871   5.222   2.940  12.208 -0.6013 -0.2301 -0.5784
 2127TIP3    H127872   5.229   2.909  12.118 -1.1188 -0.2027 -0.6262
 2127TIP3    H227873   5.261   3.028  12.206  1.3180 -1.0179 -0.3480
 2128TIP3   OH227874   3.730   3.501   3.531 -0.1106 -0.4231  0.3400
 2128TIP3    H127875   3.673   3.573   3.558 -0.2323 -0.6726  0.7743
 2128TIP3    H227876   3.683   3.422   3.560  0.0945 -0.6676  0.0114
 2129TIP3   OH227877   2.377   6.136  12.304  0.0071  0.5880  0.0261
 2129TIP3    H127878   2.454   6.107  12.256 -0.3687 -1.3078  0.5007
 2129TIP3    H227879   2.319   6.172  12.237  0.7892  0.9190 -0.4892
 2130TIP3   OH227880   1.779   2.407   1.521 -0.2678  0.1461 -0.4324
 2130TIP3    H127881   1.703   2.360   1.485  0.4113 -0.1338 -1.5625
 2130TIP3    H227882   1.852   2.346   1.508  0.0806  0.1965  1.1244
 2131TIP3   OH227883   6.519   2.224   6.031  0.3622 -0.0612 -0.1614
 2131TIP3    H127884   6.485   2.313   6.021  1.8138  0.6621  1.0242
 2131TIP3    H227885   6.456   2.169   5.984 -2.3457  1.2109  1.7257
 2132TIP3   OH227886   4.188   1.486   3.371 -0.3602  0.1346  0.2716
 2132TIP3    H127887   4.157   1.564   3.417  0.1881 -0.3285  1.4822
 2132TIP3    H227888   4.272   1.466   3.413  0.2128 -0.2629 -1.0148
 2133TIP3   OH227889   3.356   1.563  12.242  0.2809  0.1247 -0.5127
 2133TIP3    H127890   3.428   1.537  12.184 -1.5386 -1.2291 -2.3176
 2133TIP3    H227891   3.361   1.503  12.316 -0.5082 -1.8379 -1.9398
 2134TIP3   OH227892   2.683   0.937  15.181 -0.7712  0.4597 -0.3004
 2134TIP3    H127893   2.648   1.021  15.151 -0.0569  1.2200  0.9004
 2134TIP3    H227894   2.732   0.904  15.105  0.3069  1.9320 -0.3097
 2135TIP3   OH227895   1.021   3.543  12.162  0.4351 -0.5170 -0.0729
 2135TIP3    H127896   0.997   3.550  12.070 -1.9359  0.6412  0.5268
 2135TIP3    H227897   0.959   3.479  12.198  1.6411 -1.3178  0.6377
 2136TIP3   OH227898   6.739   1.184   4.691  0.3227  0.3725 -0.0271
 2136TIP3    H127899   6.816   1.180   4.634  0.3634  3.2634 -0.3067
 2136TIP3    H227900   6.670   1.139   4.642  1.4075 -0.8868 -0.4548
 2137TIP3   OH227901   3.998   6.816  13.557 -0.5918  0.1051  0.3520
 2137TIP3    H127902   4.025   6.875  13.487  0.3679 -1.1839 -0.4227
 2137TIP3    H227903   4.060   6.833  13.628 -0.4799  0.1989  0.2318
 2138TIP3   OH227904   4.753   4.816  14.747 -0.5521 -0.6646  0.4251
 2138TIP3    H127905   4.825   4.878  14.739  0.3632 -1.8904 -2.3896
 2138TIP3    H227906   4.675   4.870  14.758  0.5983  0.7462  2.2495
 2139TIP3   OH227907   4.259   6.139  13.797  0.5635 -0.1275  0.2800
 2139TIP3    H127908   4.267   6.197  13.721 -1.2520 -1.2030 -0.7960
 2139TIP3    H227909   4.318   6.066  13.779  1.8804  0.7055  1.0379
 2140TIP3   OH227910   0.390   1.876  16.743  0.2198  0.5638 -0.4969
 2140TIP3    H127911   0.451   1.814  16.702  1.9360  1.7415  0.1520
 2140TIP3    H227912   0.413   1.874  16.836 -0.8759  0.9338 -0.2000
 2141TIP3   OH227913   5.855   6.772  11.240 -0.2920  0.2668 -0.3268
 2141TIP3    H127914   5.802   6.747  11.316 -0.0772  1.5900  0.2758
 2141TIP3    H227915   5.852   6.695  11.183 -0.0673 -0.9608  1.2255
 2142TIP3   OH227916   0.044   1.631   4.185 -0.3939  0.3556 -0.0912
 2142TIP3    H127917   0.123   1.679   4.209  1.4377 -2.0397 -1.0141
 2142TIP3    H227918   0.014   1.674   4.104  1.3410 -0.1687 -1.0420
 2143TIP3   OH227919   1.078   0.806  11.023 -0.1333  0.3223 -0.1845
 2143TIP3    H127920   1.057   0.835  11.112 -1.3632  0.1146 -0.3913
 2143TIP3    H227921   1.080   0.711  11.028 -0.5465  0.2987 -0.4508
 2144TIP3   OH227922   5.659   5.874   2.200 -0.3921 -0.1422  0.2723
 2144TIP3    H127923   5.742   5.897   2.157 -0.8545 -1.0470 -1.1687
 2144TIP3    H227924   5.670   5.782   2.224 -0.6186  0.0125  0.9767
 2145TIP3   OH227925   2.114   4.510   3.319  0.0752 -0.3032 -0.0337
 2145TIP3    H127926   2.180   4.523   3.250  2.4917 -2.8350  1.5493
 2145TIP3    H227927   2.152   4.552   3.396 -0.4814 -1.1881  0.7458
 2146TIP3   OH227928   5.131   2.318  16.266 -0.9748 -0.0507 -0.7920
 2146TIP3    H127929   5.082   2.399  16.278 -0.5206  0.3633 -1.6418
 2146TIP3    H227930   5.066   2.248  16.277 -1.7005  0.4826 -1.5752
 2147TIP3   OH227931   6.272   3.765  13.809  0.0297 -0.4518 -0.0174
 2147TIP3    H127932   6.339   3.832  13.826 -1.2201  0.7893  0.1949
 2147TIP3    H227933   6.190   3.814  13.804 -1.2027 -2.1533  1.9396
 2148TIP3   OH227934   1.361   2.704  14.987 -0.2265 -0.4386 -0.0480
 2148TIP3    H127935   1.336   2.674  15.074  0.0163 -1.6249 -0.3558
 2148TIP3    H227936   1.433   2.646  14.962  0.3713  0.5408 -0.6362
 2149TIP3   OH227937   6.395   5.777   5.478  0.2168 -0.0959 -0.0584
 2149TIP3    H127938   6.313   5.811   5.513 -0.4018 -2.1035  0.5644
 2149TIP3    H227939   6.380   5.772   5.384 -1.0200 -1.9702  0.1973
 2150TIP3   OH227940   2.715   0.564   2.414  0.1991  0.5900  1.0527
 2150TIP3    H127941   2.651   0.506   2.454  1.8746 -1.5888  0.7349
 2150TIP3    H227942   2.695   0.561   2.320  1.9861 -1.8333  0.6710
 2151TIP3   OH227943   5.974   1.877  15.166 -0.6967 -0.5115  0.4488
 2151TIP3    H127944   5.983   1.900  15.073 -0.6932  0.8473  0.7536
 2151TIP3    H227945   5.906   1.937  15.198 -0.4332 -0.7107  1.4034
 2152TIP3   OH227946   6.812   6.688   4.743 -0.4757  0.1898 -0.1919
 2152TIP3    H127947   6.879   6.755   4.735  0.7493 -1.1216 -1.5607
 2152TIP3    H227948   6.776   6.701   4.831  0.9265  1.5104  0.2380
 2153TIP3   OH227949   0.104   6.481  12.563  0.1043  0.5810 -0.0937
 2153TIP3    H127950   0.183   6.508  12.610  0.8675 -1.5259 -0.0588
 2153TIP3    H227951   0.087   6.552  12.501  1.7633  1.2831  0.2011
 2154TIP3   OH227952   1.967   4.403  14.514 -0.2589 -0.0419  0.0816
 2154TIP3    H127953   1.918   4.484  14.527  1.1189  0.9284 -0.4838
 2154TIP3    H227954   1.921   4.359  14.442  0.6021  1.6766 -1.6261
 2155TIP3   OH227955   1.294   3.593  10.656  0.6021 -0.3095  0.1647
 2155TIP3    H127956   1.382   3.562  10.678  0.5118 -0.9273 -0.3123
 2155TIP3    H227957   1.308   3.677  10.613  0.9234 -0.1540  0.5704
 2156TIP3   OH227958   0.827   2.831  14.915 -0.0522  0.2314  0.4439
 2156TIP3    H127959   0.768   2.831  14.840  0.9573  2.5275 -0.4585
 2156TIP3    H227960   0.801   2.909  14.966 -0.4579 -1.0489  2.3003
 2157TIP3   OH227961   5.320   6.288   0.505 -0.1162 -0.4288 -1.1050
 2157TIP3    H127962   5.265   6.290   0.427 -1.4434 -2.4785 -0.2870
 2157TIP3    H227963   5.393   6.231   0.481  0.0802 -0.1283 -1.2212
 2158TIP3   OH227964   4.016   4.469  14.927 -0.6214 -0.0718  0.2732
 2158TIP3    H127965   4.096   4.521  14.919 -0.9353  0.4781  0.6857
 2158TIP3    H227966   4.017   4.412  14.850  0.2215 -0.1503  0.3334
 2159TIP3   OH227967   3.844   3.629   4.010  0.2318 -0.0533  0.6421
 2159TIP3    H127968   3.850   3.666   3.922 -0.9629 -0.0706  0.5376
 2159TIP3    H227969   3.931   3.593   4.027  0.0848 -1.3833 -1.1312
 2160TIP3   OH227970   5.285   1.090  15.309  0.3521  0.0729 -0.0369
 2160TIP3    H127971   5.245   1.083  15.396  1.2859 -1.7163  0.2941
 2160TIP3    H227972   5.360   1.149  15.323  0.5721 -0.3033  0.4127
 2161TIP3   OH227973   0.737   1.877  14.516  0.0202 -0.1518  0.5389
 2161TIP3    H127974   0.760   1.970  14.516 -2.4296  0.5938  2.8320
 2161TIP3    H227975   0.709   1.859  14.427 -0.6434  1.6888  0.3295
 2162TIP3   OH227976   2.027   2.182   1.571  0.1494  1.4510 -0.5522
 2162TIP3    H127977   2.098   2.165   1.509  0.0834  1.4242 -0.6218
 2162TIP3    H227978   2.004   2.096   1.606 -0.3538  1.3531 -1.0920
 2163TIP3   OH227979   3.581   4.214  16.031  0.3130  0.0193 -0.0012
 2163TIP3    H127980   3.558   4.122  16.017 -1.6455  0.2228  1.4947
 2163TIP3    H227981   3.626   4.240  15.951  2.2488 -2.6082  0.0798
 2164TIP3   OH227982   0.361   5.451   0.821 -0.0939 -0.5575  0.2487
 2164TIP3    H127983   0.399   5.538   0.811 -1.7122  0.1755  0.0689
 2164TIP3    H227984   0.404   5.414   0.898 -0.7185  1.2047  1.5174
 2165TIP3   OH227985   1.154   1.006  13.457  0.2464 -0.4557 -0.5657
 2165TIP3    H127986   1.230   1.058  13.433  1.0152 -1.4353 -0.3117
 2165TIP3    H227987   1.108   0.991  13.374  0.7634 -0.5174 -0.8442
 2166TIP3   OH227988   1.048   0.554  11.105  0.1565 -0.0657 -0.5064
 2166TIP3    H127989   0.958   0.575  11.082 -0.3650 -0.0445  1.3546
 2166TIP3    H227990   1.041   0.501  11.185  1.7644 -0.7166 -0.7561
 2167TIP3   OH227991   1.001   0.617  14.545  0.1428  0.4405  0.2066
 2167TIP3    H127992   1.034   0.702  14.516  2.2088  0.1858  1.5689
 2167TIP3    H227993   1.069   0.585  14.605 -0.8186 -1.9543  0.1006
 2168TIP3   OH227994   0.300   6.154  12.949  0.1976 -0.1348  0.2243
 2168TIP3    H127995   0.307   6.236  12.900 -0.1960 -0.0301  0.3379
 2168TIP3    H227996   0.389   6.134  12.977  0.3088  0.1984  0.1054
 2169TIP3   OH227997   3.009   3.977   6.330 -0.5478 -0.4016 -0.0304
 2169TIP3    H127998   2.940   3.995   6.394 -0.9980  0.6774 -0.7877
 2169TIP3    H227999   3.048   4.062   6.311 -0.8068 -0.6037 -1.5976
 2170TIP3   OH228000   0.986   4.334   4.493 -0.4796 -0.8636 -0.1239
 2170TIP3    H128001   1.027   4.383   4.564  0.0023  0.5088 -1.2824
 2170TIP3    H228002   0.906   4.382   4.474 -0.8157 -1.4625 -0.2263
 2171TIP3   OH228003   2.009   4.512  12.993 -0.3611  0.1077  0.2535
 2171TIP3    H128004   1.998   4.458  12.914  1.2636  0.1024 -0.0012
 2171TIP3    H228005   2.054   4.591  12.962 -0.7884  0.6576  0.9890
 2172TIP3   OH228006   2.808   6.734   0.218  0.8882 -0.0876 -0.2462
 2172TIP3    H128007   2.848   6.813   0.182 -1.1079  1.2123  0.2188
 2172TIP3    H228008   2.768   6.690   0.142  1.4766 -0.3428 -0.4130
 2173TIP3   OH228009   4.023   0.177  15.668  0.5253  0.4380 -0.1973
 2173TIP3    H128010   3.955   0.133  15.720  1.1248 -0.3295 -0.0412
 2173TIP3    H228011   4.045   0.114  15.599 -0.6769  1.6625 -1.7860
 2174TIP3   OH228012   3.153   2.308   5.090  0.3887  0.5307  0.1803
 2174TIP3    H128013   3.057   2.317   5.094  0.3894  0.4077  0.5008
 2174TIP3    H228014   3.184   2.355   5.168  0.4813 -0.9628  1.0942
 2175TIP3   OH228015   3.732   3.844   5.775 -0.0070 -0.0606 -0.0155
 2175TIP3    H128016   3.692   3.890   5.849 -1.1070 -1.0777  0.0510
 2175TIP3    H228017   3.757   3.914   5.714 -0.4240  0.6992  0.6693
 2176TIP3   OH228018   5.969   0.897   0.693  0.1062 -0.0575  0.5253
 2176TIP3    H128019   6.030   0.870   0.762  1.2620  1.2010  0.0294
 2176TIP3    H228020   6.003   0.981   0.662 -0.6487 -0.3730 -1.2829
 2177TIP3   OH228021   5.632   4.928  15.525  0.3818 -0.0196 -0.0274
 2177TIP3    H128022   5.682   5.003  15.493  1.3174 -0.4130  0.4825
 2177TIP3    H228023   5.672   4.853  15.482 -0.5972 -0.2273 -0.5889
 2178TIP3   OH228024   2.895   5.946  15.795 -0.9130 -0.0437  0.3557
 2178TIP3    H128025   2.970   5.887  15.796  0.1495  1.2258 -0.2596
 2178TIP3    H228026   2.897   5.990  15.880 -0.3346  0.6914 -0.0190
 2179TIP3   OH228027   2.314   4.081   2.723  0.6237 -0.4311  0.1877
 2179TIP3    H128028   2.354   4.100   2.638  0.8606 -2.0217 -0.0770
 2179TIP3    H228029   2.317   3.986   2.731 -0.5270 -0.3941  1.4387
 2180TIP3   OH228030   4.483   5.012   2.058  0.3196  0.2543 -0.3144
 2180TIP3    H128031   4.452   4.936   2.009  2.9438 -0.2709 -1.3231
 2180TIP3    H228032   4.478   4.985   2.150 -1.9240  0.1769 -0.4020
 2181TIP3   OH228033   2.066   1.359  15.337 -0.0265  0.0979  0.5123
 2181TIP3    H128034   2.027   1.309  15.267  0.1690 -0.1662  0.5900
 2181TIP3    H228035   2.161   1.344  15.328 -0.0293 -0.3293  1.1198
 2182TIP3   OH228036   5.644   2.831  12.852 -0.1808 -0.4867 -0.0642
 2182TIP3    H128037   5.641   2.847  12.946  1.3697  0.0942 -0.0852
 2182TIP3    H228038   5.613   2.741  12.842  0.0525 -0.7100  1.0394
 2183TIP3   OH228039   5.748   2.093   3.019 -0.5399  0.0065  0.2373
 2183TIP3    H128040   5.714   2.013   2.979  0.3501 -1.5418  2.3874
 2183TIP3    H228041   5.669   2.143   3.043 -1.1238 -0.5887 -0.3901
 2184TIP3   OH228042   2.903   1.868   4.684 -0.1562 -0.4683  0.4778
 2184TIP3    H128043   2.933   1.914   4.762  3.8263  0.5274 -1.4077
 2184TIP3    H228044   2.853   1.933   4.636 -0.1992 -0.2159  0.8564
 2185TIP3   OH228045   6.240   3.013   6.838  0.0421  0.0756  0.6982
 2185TIP3    H128046   6.321   3.003   6.788 -0.1963 -0.3000  0.3895
 2185TIP3    H228047   6.222   2.926   6.873 -0.7399 -0.0554 -0.0156
 2186TIP3   OH228048   2.718   5.000  14.239 -0.2982 -0.6690 -0.0079
 2186TIP3    H128049   2.782   4.961  14.179  0.6265  3.1706 -1.8834
 2186TIP3    H228050   2.758   4.993  14.325  2.9542  1.6524 -1.1134
 2187TIP3   OH228051   6.548   2.033   3.707  0.4632  0.0135 -0.0147
 2187TIP3    H128052   6.616   2.098   3.689 -2.3847  3.0458 -0.9630
 2187TIP3    H228053   6.504   2.021   3.622  1.1982 -3.7376 -0.0057
 2188TIP3   OH228054   3.476   4.769   4.795  0.1619 -0.1340  0.3925
 2188TIP3    H128055   3.543   4.746   4.859  0.7653 -0.9208 -0.5059
 2188TIP3    H228056   3.401   4.714   4.818  1.1177 -2.0764 -0.8801
 2189TIP3   OH228057   4.624   6.091   3.192  1.0089  0.9216 -0.5439
 2189TIP3    H128058   4.676   6.016   3.161 -0.8930 -1.0354  0.7564
 2189TIP3    H228059   4.638   6.093   3.286 -1.5435  0.0401 -0.0796
 2190TIP3   OH228060   2.926   1.752  14.656 -0.0702  0.2647 -0.5209
 2190TIP3    H128061   3.012   1.726  14.624 -0.3981  0.4071 -1.5649
 2190TIP3    H228062   2.924   1.847  14.645  0.0565  0.4054  0.5784
 2191TIP3   OH228063   2.777   5.500   1.460 -0.0003  0.0964 -0.1493
 2191TIP3    H128064   2.686   5.514   1.486  0.1793 -0.2157  0.6771
 2191TIP3    H228065   2.771   5.445   1.382 -0.4941 -1.1073  0.7057
 2192TIP3   OH228066   1.786   1.328  14.009 -0.1435  0.1113 -0.1157
 2192TIP3    H128067   1.862   1.279  14.041 -0.7152  0.4165  1.8666
 2192TIP3    H228068   1.716   1.305  14.070 -1.8654 -0.6330 -2.2249
 2193TIP3   OH228069   0.708   0.946   4.486 -0.0864 -0.4647 -0.3396
 2193TIP3    H128070   0.711   0.987   4.400 -1.0743 -3.3699 -1.9103
 2193TIP3    H228071   0.756   0.863   4.475  0.3647 -0.6225  2.1276
 2194TIP3   OH228072   1.456   5.161  12.427  0.0722 -0.0101 -0.9465
 2194TIP3    H128073   1.538   5.211  12.420 -0.3348  1.4430  2.3195
 2194TIP3    H228074   1.387   5.225  12.410 -0.4088 -0.3118 -0.2135
 2195TIP3   OH228075   6.728   4.704  16.860 -0.1504  0.3880 -0.6490
 2195TIP3    H128076   6.690   4.780  16.817 -0.2928 -0.3162 -1.7895
 2195TIP3    H228077   6.746   4.641  16.790  0.4759 -0.4266  0.1955
 2196TIP3   OH228078   3.810   3.899  12.447  0.0583 -0.3246  0.0586
 2196TIP3    H128079   3.751   3.871  12.517  0.2448  0.0051  0.3493
 2196TIP3    H228080   3.896   3.870  12.476  0.5538  2.1377  1.2715
 2197TIP3   OH228081   3.603   1.475   4.506  0.4942  0.1521  0.0074
 2197TIP3    H128082   3.628   1.557   4.463  1.9876 -0.0961  0.3668
 2197TIP3    H228083   3.655   1.408   4.461 -0.6118 -0.6087 -0.1945
 2198TIP3   OH228084   3.404   0.633  13.581 -0.9651 -0.2773 -0.2788
 2198TIP3    H128085   3.342   0.570  13.616  0.0252 -2.0347 -1.5099
 2198TIP3    H228086   3.482   0.622  13.636 -0.9575  0.2629 -0.1781
 2199TIP3   OH228087   0.569   5.860   3.983  0.0268  0.6988  0.1287
 2199TIP3    H128088   0.507   5.898   4.045  1.7326  1.6162  1.3744
 2199TIP3    H228089   0.567   5.766   4.001  1.8731  1.0755  3.1035
 2200TIP3   OH228090   4.462   3.740  16.053 -0.1211 -0.3442 -0.2088
 2200TIP3    H128091   4.455   3.769  15.962 -0.3682 -0.1996 -0.1479
 2200TIP3    H228092   4.522   3.802  16.094 -0.5659  0.0226 -0.1038
 2201TIP3   OH228093   0.729   4.263  17.250 -0.0996 -0.3663 -0.3881
 2201TIP3    H128094   0.653   4.298  17.203 -0.9338 -1.0365  0.4392
 2201TIP3    H228095   0.695   4.189  17.299  1.3761 -1.5310 -1.0526
 2202TIP3   OH228096   3.947   5.022  15.949  0.0987  0.2948  0.3089
 2202TIP3    H128097   3.919   5.108  15.980  0.7095  0.4122  0.5513
 2202TIP3    H228098   3.984   4.980  16.026 -0.4247 -0.2898  0.2510
 2203TIP3   OH228099   3.532   0.122   3.060 -0.4182 -0.4552 -0.3167
 2203TIP3    H128100   3.624   0.130   3.085 -0.2332 -0.2857 -1.0460
 2203TIP3    H228101   3.485   0.171   3.127 -0.3399 -3.5427  2.2855
 2204TIP3   OH228102   2.747   3.769   6.304  0.4176 -0.0554 -0.0063
 2204TIP3    H128103   2.776   3.733   6.388 -0.9765  1.0477  0.9908
 2204TIP3    H228104   2.740   3.863   6.320  1.3609  0.3490 -1.7615
 2205TIP3   OH228105   4.765   3.759   0.084 -0.3182 -0.1924 -0.5432
 2205TIP3    H128106   4.731   3.759   0.173 -1.0012  0.6002 -0.7926
 2205TIP3    H228107   4.860   3.750   0.094 -0.4434 -0.7297  0.2291
 2206TIP3   OH228108   1.798   1.009  16.944 -0.2721  0.2951 -0.1565
 2206TIP3    H128109   1.785   0.952  16.868  0.5237 -0.4130  0.2238
 2206TIP3    H228110   1.843   1.086  16.908  0.9590 -0.4507 -0.2691
 2207TIP3   OH228111   3.569   3.339   3.947 -0.1716 -0.2548 -0.0895
 2207TIP3    H128112   3.555   3.429   3.977 -0.4913 -0.4465  0.3499
 2207TIP3    H228113   3.539   3.339   3.856  0.3585  0.2184 -0.2675
 2208TIP3   OH228114   6.438   3.977   0.444  0.4200 -0.1296  0.0503
 2208TIP3    H128115   6.441   3.883   0.455  0.5519 -0.3943 -1.8389
 2208TIP3    H228116   6.519   3.998   0.396  0.2532  0.8920  0.1894
 2209TIP3   OH228117   4.927   1.156   2.913 -0.1561 -0.1936  0.0949
 2209TIP3    H128118   4.986   1.093   2.870 -0.6897  0.4620 -1.7008
 2209TIP3    H228119   4.839   1.121   2.898 -0.3052 -0.8701  2.2723
 2210TIP3   OH228120   0.036   1.121  12.522 -0.3282 -0.2916  0.1453
 2210TIP3    H128121  -0.029   1.102  12.454  1.0239 -2.0956 -0.7243
 2210TIP3    H228122   0.037   1.042  12.576  0.8245 -0.1200  0.3932
 2211TIP3   OH228123   6.817   6.339  16.273 -0.7959 -0.2104  0.2601
 2211TIP3    H128124   6.746   6.401  16.291  0.1402  1.7856 -2.3317
 2211TIP3    H228125   6.790   6.292  16.194  0.5768  0.3773 -0.5993
 2212TIP3   OH228126   4.627   6.037  12.276 -0.1428 -0.2422  0.2474
 2212TIP3    H128127   4.664   5.949  12.287 -0.8920 -0.5351  0.4689
 2212TIP3    H228128   4.702   6.091  12.253  0.7674 -0.4591  2.4858
 2213TIP3   OH228129   2.915   3.170  15.353 -0.8374 -0.4743  0.4101
 2213TIP3    H128130   2.984   3.176  15.288 -0.6507 -2.8820  0.2937
 2213TIP3    H228131   2.924   3.249  15.405 -0.2672  0.9591 -1.7571
 2214TIP3   OH228132   0.694   6.231  14.008  0.3991 -0.2982 -0.1802
 2214TIP3    H128133   0.717   6.288  14.082  3.2927 -1.1411 -0.3073
 2214TIP3    H228134   0.695   6.290  13.932  1.2347 -0.0813 -0.0219
 2215TIP3   OH228135   3.617   6.681  14.883 -0.0797 -0.0142 -0.1721
 2215TIP3    H128136   3.572   6.760  14.914 -0.4343 -1.1114  2.3620
 2215TIP3    H228137   3.557   6.644  14.819 -0.7580  0.8228 -0.0516
 2216TIP3   OH228138   2.420   3.851  16.184 -0.1808  0.2860 -0.3478
 2216TIP3    H128139   2.372   3.768  16.193 -0.2893  0.3472 -0.3539
 2216TIP3    H228140   2.373   3.897  16.114 -0.5682  0.6667  0.1633
 2217TIP3   OH228141   1.168   3.590   4.014  0.0155  1.1034 -0.0007
 2217TIP3    H128142   1.242   3.614   3.959 -0.3052  1.1179 -0.4275
 2217TIP3    H228143   1.097   3.648   3.985 -0.8541 -0.5090 -1.2335
 2218TIP3   OH228144   4.766   3.149  15.490  0.3358  0.2537  0.2852
 2218TIP3    H128145   4.800   3.116  15.407  0.7998 -0.1413  0.6287
 2218TIP3    H228146   4.751   3.070  15.543 -0.4026  0.4661  0.4146
 2219TIP3   OH228147   3.184   1.776   3.721  0.2548  0.0479 -0.3356
 2219TIP3    H128148   3.103   1.794   3.769  1.4013  1.5923  1.1785
 2219TIP3    H228149   3.170   1.815   3.635 -1.2056 -1.2143 -0.7041
 2220TIP3   OH228150   0.206   2.180   2.555 -0.0907  0.1415  0.2541
 2220TIP3    H128151   0.301   2.170   2.544 -0.2905 -0.3943 -1.3961
 2220TIP3    H228152   0.175   2.207   2.468 -1.5008 -0.1681  0.6335
 2221TIP3   OH228153   6.031   5.328  12.843 -0.1124 -0.0202  0.1342
 2221TIP3    H128154   5.983   5.317  12.925  0.9628 -1.0074  0.6648
 2221TIP3    H228155   5.965   5.317  12.774 -0.6838 -1.1727  0.8395
 2222TIP3   OH228156   5.064   0.511   3.698 -0.0746  0.6078  0.6860
 2222TIP3    H128157   5.017   0.593   3.714 -0.8661 -0.2241  2.9598
 2222TIP3    H228158   5.105   0.490   3.781 -0.3966 -1.6321  0.3363
 2223TIP3   OH228159   4.977   4.589  15.673  0.0104 -0.4668  0.3673
 2223TIP3    H128160   4.966   4.675  15.633  0.6731  0.6172  2.3854
 2223TIP3    H228161   4.983   4.607  15.767  0.8384 -2.6497  0.7868
 2224TIP3   OH228162   0.441   0.559   5.535  0.3303  0.5982  0.4478
 2224TIP3    H128163   0.468   0.611   5.610  0.6266  0.8852  0.1472
 2224TIP3    H228164   0.482   0.474   5.548  2.3439  1.3445 -0.5429
 2225TIP3   OH228165   4.294   1.767  12.072 -0.3870  0.5136 -0.5731
 2225TIP3    H128166   4.202   1.760  12.098 -0.2981  0.1627 -0.3429
 2225TIP3    H228167   4.309   1.861  12.062 -1.2723  0.5015 -2.4456
 2226TIP3   OH228168   2.674   0.373  13.739 -0.4213  0.1429  0.0204
 2226TIP3    H128169   2.585   0.388  13.772 -1.0546  0.4200 -1.7271
 2226TIP3    H228170   2.691   0.280  13.756 -0.8834  0.1826  0.7295
 2227TIP3   OH228171   1.403   5.724   0.898  0.2043 -0.5693 -0.2372
 2227TIP3    H128172   1.355   5.641   0.904 -1.0619  0.0870 -0.7915
 2227TIP3    H228173   1.339   5.790   0.926  1.0518  0.2610 -0.2243
 2228TIP3   OH228174   3.939   4.458   2.816 -0.3460 -0.1246  0.3357
 2228TIP3    H128175   4.027   4.469   2.853  0.1768  2.1463 -1.3413
 2228TIP3    H228176   3.955   4.410   2.734 -0.7205 -0.0614  0.2271
 2229TIP3   OH228177   5.769   1.323  10.963  0.1144  0.1648  0.3351
 2229TIP3    H128178   5.675   1.308  10.961  0.4028 -1.7959  0.1386
 2229TIP3    H228179   5.807   1.249  10.917  1.7739  0.9239  0.3955
 2230TIP3   OH228180   4.000   6.178  13.584  0.2680 -0.0239  0.1198
 2230TIP3    H128181   4.023   6.151  13.495 -0.3844 -1.5150  0.3629
 2230TIP3    H228182   3.924   6.124  13.606 -1.8077  2.7542  0.3441
 2231TIP3   OH228183   3.139   1.469   2.737  0.0934  0.3564  0.5064
 2231TIP3    H128184   3.056   1.431   2.765 -0.1901 -0.1516 -0.9312
 2231TIP3    H228185   3.150   1.546   2.793 -2.6834  1.9590 -0.9325
 2232TIP3   OH228186   0.323   5.564  16.078  1.0890  0.3448  0.4675
 2232TIP3    H128187   0.306   5.507  16.152 -0.3576  0.4400  0.2348
 2232TIP3    H228188   0.242   5.563  16.027  1.4899  1.5510 -0.2503
 2233TIP3   OH228189   4.387   2.972  10.826 -0.3980 -0.1570  0.1504
 2233TIP3    H128190   4.356   2.887  10.796 -0.5684  0.2399 -0.8483
 2233TIP3    H228191   4.482   2.962  10.835 -0.4850 -0.6024  0.5549
 2234TIP3   OH228192   3.628   4.340  15.768 -0.1785 -0.2348 -0.0777
 2234TIP3    H128193   3.661   4.303  15.686  1.1325 -0.0580  0.3617
 2234TIP3    H228194   3.534   4.322  15.765 -0.0514 -0.8223 -1.3132
 2235TIP3   OH228195   4.698   1.702  17.158 -0.3247 -0.4740 -0.3268
 2235TIP3    H128196   4.668   1.780  17.112  0.3326 -0.0812 -0.1114
 2235TIP3    H228197   4.785   1.725  17.190 -0.3101 -1.1366  0.1419
 2236TIP3   OH228198   6.672   6.356  16.879 -0.6386  0.0726  0.0243
 2236TIP3    H128199   6.762   6.328  16.863 -0.0374  1.6366  0.4108
 2236TIP3    H228200   6.617   6.287  16.842  0.7208 -0.2404 -1.4952
 2237TIP3   OH228201   4.516   4.671   0.787  0.1444 -0.5957  0.5818
 2237TIP3    H128202   4.511   4.761   0.755 -0.0132 -0.8591 -0.1589
 2237TIP3    H228203   4.428   4.652   0.818 -0.0351 -0.7613 -0.0175
 2238TIP3   OH228204   3.167   2.314  10.771 -0.3457 -0.0966  0.7651
 2238TIP3    H128205   3.128   2.276  10.849  0.9205  0.0229  1.4835
 2238TIP3    H228206   3.261   2.315  10.789 -0.1215  0.9335 -0.3103
 2239TIP3   OH228207   1.138   0.464   2.586  0.1977  0.4134 -0.2450
 2239TIP3    H128208   1.147   0.467   2.682  0.6278  1.6219 -0.2973
 2239TIP3    H228209   1.078   0.392   2.570  0.0325  0.2561  0.9507
 2240TIP3   OH228210   4.750   6.664   0.487  0.3735  0.1027 -0.8182
 2240TIP3    H128211   4.673   6.609   0.482 -0.7164  1.4690  0.0217
 2240TIP3    H228212   4.821   6.605   0.515 -0.9599 -0.7006  1.0734
 2241TIP3   OH228213   1.807   5.150  12.117  0.2323 -0.7083  0.2133
 2241TIP3    H128214   1.786   5.059  12.097 -2.5034 -0.0083 -0.5587
 2241TIP3    H228215   1.775   5.199  12.040  0.6921  0.9755  1.0524
 2242TIP3   OH228216   5.028   4.607   0.696 -0.1439 -0.1119 -0.0241
 2242TIP3    H128217   5.054   4.540   0.633 -0.2186  0.1994 -0.3910
 2242TIP3    H228218   5.104   4.619   0.752  0.0596 -0.1206 -0.2939
 2243TIP3   OH228219   0.027   2.870   3.208  0.5928  0.3748  0.1995
 2243TIP3    H128220   0.107   2.874   3.156  1.4707 -0.0415  1.4490
 2243TIP3    H228221   0.037   2.791   3.261  0.2361  1.3126  1.7244
 2244TIP3   OH228222   5.595   2.145  16.970  0.0569  0.6060 -0.8605
 2244TIP3    H128223   5.673   2.125  17.021  0.2768 -1.6887 -1.9696
 2244TIP3    H228224   5.528   2.084  17.004 -1.1178  2.1437 -0.3100
 2245TIP3   OH228225   0.624   0.632  16.040  0.2186 -0.1954 -0.2134
 2245TIP3    H128226   0.627   0.538  16.061 -1.2613 -0.1210  0.4457
 2245TIP3    H228227   0.629   0.676  16.124 -2.1761  0.1975 -0.2071
 2246TIP3   OH228228   2.597   0.218   3.261 -0.0582  0.3713  0.1942
 2246TIP3    H128229   2.666   0.284   3.261  0.5433 -0.2077 -1.5169
 2246TIP3    H228230   2.568   0.214   3.352  1.3195  1.4943  0.7198
 2247TIP3   OH228231   6.801   5.094  16.657  0.2250  0.4946 -0.2943
 2247TIP3    H128232   6.842   5.011  16.633  0.2882  0.6410 -0.7013
 2247TIP3    H228233   6.771   5.130  16.574  0.0660  0.8107 -0.0991
 2248TIP3   OH228234   0.349   3.745   4.399 -0.4324  0.0475  0.6295
 2248TIP3    H128235   0.438   3.764   4.427  0.0073 -1.9715  0.7805
 2248TIP3    H228236   0.303   3.828   4.407  1.5549  1.2692  0.0002
 2249TIP3   OH228237   4.028   5.850   1.832  0.0208  0.0477 -0.7527
 2249TIP3    H128238   3.995   5.889   1.913  2.6312 -1.7542  1.3377
 2249TIP3    H228239   3.949   5.830   1.781 -1.8409 -0.0019  1.9471
 2250TIP3   OH228240   1.343   1.657  13.242  0.8240 -0.4137  0.1510
 2250TIP3    H128241   1.284   1.715  13.291  1.6637 -0.1961  0.9394
 2250TIP3    H228242   1.324   1.676  13.150  1.4730  1.5715  0.3750
 2251TIP3   OH228243   1.150   0.701   2.095  0.1237 -0.0585  0.1403
 2251TIP3    H128244   1.105   0.617   2.094 -0.1505  0.0692 -1.4457
 2251TIP3    H228245   1.093   0.759   2.144 -0.7767 -0.2556 -0.6418
 2252TIP3   OH228246   2.839   0.797   3.944 -0.2210  0.4715  0.2891
 2252TIP3    H128247   2.886   0.854   3.883  0.9356 -0.9231 -0.1716
 2252TIP3    H228248   2.761   0.769   3.896  1.5143 -1.9896 -1.3437
 2253TIP3   OH228249   1.923   2.744   6.355 -0.4585  0.0636  0.5610
 2253TIP3    H128250   1.881   2.662   6.382 -1.8813  0.8515  0.8651
 2253TIP3    H228251   1.857   2.811   6.372  0.4944  1.2215 -0.1481
 2254TIP3   OH228252   0.541   3.077  12.718 -0.1040  0.6713 -0.3614
 2254TIP3    H128253   0.472   3.013  12.700  0.7668 -0.6277  0.7448
 2254TIP3    H228254   0.494   3.159  12.735 -1.2774  0.1599 -1.0411
 2255TIP3   OH228255   1.875   2.342   4.154 -0.1244 -0.0779  0.0377
 2255TIP3    H128256   1.810   2.355   4.223 -0.5979  1.1530 -0.6260
 2255TIP3    H228257   1.829   2.295   4.085 -0.3756  0.9226 -0.4949
 2256TIP3   OH228258   6.577   0.137   0.208 -0.0419  0.4091  0.2777
 2256TIP3    H128259   6.610   0.102   0.291  1.3780 -0.9184 -0.7847
 2256TIP3    H228260   6.649   0.190   0.175 -0.7763  1.3061  0.0979
 2257TIP3   OH228261   2.318   3.985   0.922 -0.3698  0.3449 -0.1780
 2257TIP3    H128262   2.349   3.928   0.992 -1.1083 -1.2327 -1.0889
 2257TIP3    H228263   2.396   4.007   0.872  0.1472  1.3862  1.0284
 2258TIP3   OH228264   1.819   0.435   4.191  0.2447  0.1306 -0.1167
 2258TIP3    H128265   1.775   0.516   4.166  2.0748  0.6194 -1.9640
 2258TIP3    H228266   1.902   0.462   4.229  1.6013 -0.8592 -2.2450
 2259TIP3   OH228267   4.622   3.917  14.984  0.8969 -0.8702 -0.6185
 2259TIP3    H128268   4.548   3.862  14.957 -0.5143  0.9873 -0.7155
 2259TIP3    H228269   4.594   3.956  15.067  1.5859  0.1847 -0.8597
 2260TIP3   OH228270   0.144   5.987  14.753 -0.2635 -0.4192 -0.5946
 2260TIP3    H128271   0.222   6.037  14.731  0.0100 -1.1439 -1.2703
 2260TIP3    H228272   0.173   5.925  14.820 -0.4039 -0.2842 -0.4052
 2261TIP3   OH228273   1.196   0.573   0.368  0.0122  0.1950  0.5084
 2261TIP3    H128274   1.154   0.633   0.430 -1.6640 -1.0253  0.6164
 2261TIP3    H228275   1.288   0.600   0.368 -0.2375  1.2539  2.3161
 2262TIP3   OH228276   6.391   0.661  14.228  0.2380  0.0270  0.2679
 2262TIP3    H128277   6.453   0.686  14.159 -0.0574 -0.2418 -0.1008
 2262TIP3    H228278   6.306   0.683  14.192 -0.0127 -1.2862  0.0325
 2263TIP3   OH228279   4.407   5.045  15.091 -0.4340  0.1136  0.0743
 2263TIP3    H128280   4.500   5.063  15.076 -0.2245  0.8264  1.9915
 2263TIP3    H228281   4.367   5.132  15.098 -1.6188 -0.1295 -2.4092
 2264TIP3   OH228282   1.235   6.014   3.206  0.6022 -0.9133 -0.1469
 2264TIP3    H128283   1.188   5.970   3.277  0.7631  0.8746  1.1349
 2264TIP3    H228284   1.326   6.012   3.233  0.7201 -0.5836 -0.5111
 2265TIP3   OH228285   0.374   5.455  13.759  0.4417 -0.4828  0.1421
 2265TIP3    H128286   0.455   5.499  13.735  0.7114 -0.7450  0.5482
 2265TIP3    H228287   0.305   5.519  13.741  0.7073 -0.3681 -0.4956
 2266TIP3   OH228288   6.386   4.996   4.689  0.2753  0.3603 -0.3182
 2266TIP3    H128289   6.438   5.072   4.663 -2.3097  2.8590  1.1150
 2266TIP3    H228290   6.356   4.958   4.606  0.8756  1.4739 -1.0768
 2267TIP3   OH228291   3.274   2.634  12.000  0.2709 -0.2856 -1.0508
 2267TIP3    H128292   3.348   2.621  12.058 -0.1410  0.6077 -0.3019
 2267TIP3    H228293   3.289   2.573  11.928  0.2404 -2.2044  0.4921
 2268TIP3   OH228294   2.502   0.848  15.856 -0.5054 -0.2121  0.5324
 2268TIP3    H128295   2.582   0.863  15.807 -0.8417  1.0012  0.3312
 2268TIP3    H228296   2.434   0.892  15.805 -0.8897  0.9435  1.9744
 2269TIP3   OH228297   0.124   2.047  16.498  0.4808 -0.5500  0.2912
 2269TIP3    H128298   0.144   2.108  16.427 -0.3817  0.5829  0.9946
 2269TIP3    H228299   0.188   2.067  16.566 -0.1752  0.0171  0.7623
 2270TIP3   OH228300   1.199   4.433  12.500 -0.2118  0.1480 -0.2710
 2270TIP3    H128301   1.268   4.463  12.559 -0.3788  0.1509 -0.0754
 2270TIP3    H228302   1.221   4.472  12.416 -0.2253  0.5179 -0.1041
 2271TIP3   OH228303   5.816   4.118  14.371  0.2153  0.0615  0.2327
 2271TIP3    H128304   5.768   4.182  14.318 -1.5433 -2.1370 -0.9825
 2271TIP3    H228305   5.760   4.040  14.371  1.8553 -1.2152  2.3794
 2272TIP3   OH228306   4.483   6.365   4.949  0.8515  0.4081 -0.6204
 2272TIP3    H128307   4.495   6.272   4.969 -0.7478  0.4590  0.7345
 2272TIP3    H228308   4.569   6.394   4.919  1.4659 -1.4246 -0.7492
 2273TIP3   OH228309   0.449   3.015   2.775 -0.1931 -0.2820 -0.0017
 2273TIP3    H128310   0.434   3.109   2.764 -1.9621 -0.7161 -2.2324
 2273TIP3    H228311   0.529   2.997   2.725 -1.3902 -0.3000 -2.0433
 2274TIP3   OH228312   0.679   1.445  12.576 -0.0049  0.1290 -0.2446
 2274TIP3    H128313   0.673   1.493  12.658  0.4411 -1.4051  0.7263
 2274TIP3    H228314   0.767   1.465  12.543  0.0756  0.1911  0.0080
 2275TIP3   OH228315   1.725   0.838  12.392 -0.4156  0.0369  0.3426
 2275TIP3    H128316   1.792   0.867  12.454 -1.1710 -2.3803  2.4801
 2275TIP3    H228317   1.749   0.746  12.374 -2.2642 -0.3942 -0.0757
 2276TIP3   OH228318   1.493   5.920   3.164 -0.0126  0.1135 -0.4608
 2276TIP3    H128319   1.574   5.881   3.198  0.3000  2.0016  1.1291
 2276TIP3    H228320   1.512   6.014   3.159 -1.9111  0.5214 -0.6067
 2277TIP3   OH228321   1.791   5.729  15.072  0.1805  0.0869  0.0620
 2277TIP3    H128322   1.753   5.642  15.057  2.6669 -0.7283 -2.4189
 2277TIP3    H228323   1.862   5.735  15.008 -0.2217  4.2098 -0.2411
 2278TIP3   OH228324   5.679   5.935  13.168  0.0408  0.0840 -0.0923
 2278TIP3    H128325   5.678   5.910  13.076  3.4420  1.0956 -0.5484
 2278TIP3    H228326   5.677   6.031  13.167 -1.2455  0.1027  1.0022
 2279TIP3   OH228327   3.301   4.692  14.480 -0.0017  0.1875 -0.7549
 2279TIP3    H128328   3.343   4.637  14.545  0.9298  1.6905 -0.0202
 2279TIP3    H228329   3.373   4.733  14.432 -0.6453  0.9167 -1.1270
 2280TIP3   OH228330   5.375   4.042   3.820 -0.2970  0.2969 -0.3000
 2280TIP3    H128331   5.337   4.131   3.821 -1.1958 -0.0638 -0.9168
 2280TIP3    H228332   5.461   4.053   3.860 -0.4940  1.4067 -0.1263
 2281TIP3   OH228333   1.738   3.055   6.030  0.2222  0.6333  0.0465
 2281TIP3    H128334   1.684   3.134   6.039  0.9174  1.2966 -1.3198
 2281TIP3    H228335   1.827   3.088   6.020  0.8794 -0.4335  1.9116
 2282TIP3   OH228336   1.076   4.548   0.754 -0.1094  0.7087  0.3583
 2282TIP3    H128337   1.080   4.641   0.732  4.5778  0.1247 -2.4306
 2282TIP3    H228338   1.051   4.505   0.673  0.3144 -0.6114  0.8965
 2283TIP3   OH228339   4.708   3.890   6.334 -0.1153  0.0152 -0.3340
 2283TIP3    H128340   4.633   3.941   6.304 -1.1130 -0.4140  1.3075
 2283TIP3    H228341   4.782   3.950   6.329 -0.5635  0.4821 -1.8698
 2284TIP3   OH228342   1.085   3.832   6.208  0.5753  0.5803 -0.1833
 2284TIP3    H128343   1.135   3.906   6.174 -1.6446  0.5992 -3.9133
 2284TIP3    H228344   1.151   3.767   6.230  2.4164  2.2594 -0.4590
 2285TIP3   OH228345   3.028   5.007   3.565 -0.5239  0.2762 -0.3736
 2285TIP3    H128346   3.054   5.089   3.607  0.0607  0.5798 -1.3101
 2285TIP3    H228347   2.949   4.980   3.613  1.8766 -1.1627  3.2129
 2286TIP3   OH228348   4.547   6.532  12.282 -0.3266  0.1595  0.1737
 2286TIP3    H128349   4.463   6.486  12.286 -0.7709  0.8791 -0.6891
 2286TIP3    H228350   4.600   6.491  12.352 -1.7505  0.4378  1.4593
 2287TIP3   OH228351   4.103   1.116  11.770 -0.2809 -0.4928 -0.4156
 2287TIP3    H128352   4.028   1.159  11.731 -0.0929 -1.4818 -1.9783
 2287TIP3    H228353   4.140   1.064  11.699  1.1478 -0.9949  0.6462
 2288TIP3   OH228354   4.163   5.613   1.785 -0.1282 -0.2274 -0.6022
 2288TIP3    H128355   4.125   5.699   1.804 -0.6890 -0.5591 -0.1856
 2288TIP3    H228356   4.093   5.551   1.806  0.7254 -0.8731  0.3989
 2289TIP3   OH228357   1.708   2.082  13.518  0.1506  0.1482 -0.3965
 2289TIP3    H128358   1.781   2.066  13.459 -1.0359 -1.5694 -1.4863
 2289TIP3    H228359   1.743   2.064  13.605  1.0687 -0.5530 -0.8935
 2290TIP3   OH228360   3.859   1.048  14.225 -0.0595  0.1112 -0.0814
 2290TIP3    H128361   3.785   1.104  14.202 -0.8925 -0.9857 -0.1884
 2290TIP3    H228362   3.849   1.033  14.319 -0.4413 -0.6712 -0.2398
 2291TIP3   OH228363   5.059   5.599  14.452 -0.5845 -0.2176 -0.3017
 2291TIP3    H128364   4.970   5.632  14.436 -0.3494  0.1965 -0.7556
 2291TIP3    H228365   5.072   5.533  14.384 -0.2340  0.3157 -0.7595
 2292TIP3   OH228366   1.034   3.243  15.385  0.3176 -0.1975  0.2100
 2292TIP3    H128367   0.985   3.166  15.415  0.1805 -0.0377  0.3971
 2292TIP3    H228368   1.118   3.208  15.357 -0.1643 -0.5747 -0.8034
 2293TIP3   OH228369   1.528   0.591   1.286  0.1158 -0.8774 -0.2770
 2293TIP3    H128370   1.454   0.594   1.225 -1.1469 -0.5818  1.2111
 2293TIP3    H228371   1.583   0.520   1.253 -0.9577 -1.2871 -1.2753
 2294TIP3   OH228372   5.255   2.777  11.579  0.1602  0.2141  0.3176
 2294TIP3    H128373   5.279   2.802  11.668  0.2559  0.9308  0.0994
 2294TIP3    H228374   5.336   2.744  11.540  0.2673  0.4959  0.2985
 2295TIP3   OH228375   5.982   4.237  15.598 -0.1928  0.6785  0.1685
 2295TIP3    H128376   5.987   4.147  15.632 -1.2112  0.6154  0.1808
 2295TIP3    H228377   6.051   4.284  15.644  2.0953 -0.6699 -1.6859
 2296TIP3   OH228378   2.937   2.300   0.076  0.4642  0.1979  0.0379
 2296TIP3    H128379   2.945   2.389   0.110  1.5510  0.5692 -1.0800
 2296TIP3    H228380   3.006   2.251   0.121 -0.4770 -0.2368  1.0483
 2297TIP3   OH228381   2.554   6.323  11.730 -0.0258 -0.5371  0.4228
 2297TIP3    H128382   2.621   6.387  11.706 -0.0892 -0.7306 -0.2914
 2297TIP3    H228383   2.603   6.252  11.771  0.8336 -2.5719 -3.6378
 2298TIP3   OH228384   6.167   1.684   6.815  0.4386 -0.7389 -0.2762
 2298TIP3    H128385   6.161   1.655   6.724  2.3564  1.7359 -1.3300
 2298TIP3    H228386   6.083   1.726   6.832  0.9252  1.0565 -1.8892
 2299TIP3   OH228387   0.474   6.165   0.877  0.0907 -0.1567  0.4275
 2299TIP3    H128388   0.441   6.217   0.950  0.0984  1.1662 -0.4612
 2299TIP3    H228389   0.400   6.110   0.851 -0.1466 -0.0921  0.9669
 2300TIP3   OH228390   0.005   4.670  14.575  0.6957 -0.7800  0.0799
 2300TIP3    H128391  -0.015   4.708  14.489 -1.3943 -2.4988 -0.2934
 2300TIP3    H228392  -0.004   4.575  14.562  0.2703 -1.0892  2.1932
 2301TIP3   OH228393   4.114   1.052   5.276 -0.0200  0.1683  0.4248
 2301TIP3    H128394   4.157   1.138   5.265 -0.4808  0.2708 -0.7683
 2301TIP3    H228395   4.179   0.999   5.321  0.8057  0.7608 -0.0294
 2302TIP3   OH228396   5.769   4.247  16.596 -0.3480 -0.0843 -0.1943
 2302TIP3    H128397   5.746   4.330  16.555 -4.0330 -1.8662 -2.2188
 2302TIP3    H228398   5.821   4.201  16.531 -0.7349 -0.4470 -0.2508
 2303TIP3   OH228399   1.622   2.191   2.578 -0.0314 -0.1811  0.4250
 2303TIP3    H128400   1.685   2.131   2.619  0.9248 -1.7794 -2.9838
 2303TIP3    H228401   1.547   2.191   2.637  1.2085 -2.2095  2.1624
 2304TIP3   OH228402   3.641   3.152  16.222 -0.3957  0.4359 -0.3029
 2304TIP3    H128403   3.551   3.150  16.192 -0.1526 -0.9177 -0.9991
 2304TIP3    H228404   3.675   3.064  16.206  0.7721  0.6398  0.8218
 2305TIP3   OH228405   3.086   1.593   5.174  0.1839  0.4672 -0.4278
 2305TIP3    H128406   3.072   1.539   5.096  2.4105 -0.2333 -0.4199
 2305TIP3    H228407   3.138   1.667   5.143 -3.0404  2.9404 -0.4896
 2306TIP3   OH228408   0.150   4.157  15.251  0.4143 -0.1779 -0.3627
 2306TIP3    H128409   0.116   4.068  15.258  0.9846 -0.3780 -0.0593
 2306TIP3    H228410   0.072   4.213  15.246  0.0529 -0.7323 -1.1458
 2307TIP3   OH228411   5.399   3.991  14.827  0.0359 -0.0728  0.0075
 2307TIP3    H128412   5.324   3.982  14.769 -1.0006  2.4046  0.8561
 2307TIP3    H228413   5.426   3.901  14.845 -1.5799 -0.9801 -1.7336
 2308TIP3   OH228414   1.960   1.776   2.135 -0.1209  0.6303  0.6748
 2308TIP3    H128415   2.037   1.823   2.103 -0.8094  1.8777  0.8002
 2308TIP3    H228416   1.912   1.752   2.056 -0.7636  1.8889  0.6608
 2309TIP3   OH228417   1.748   1.910   1.238 -0.0755  0.0084  0.6209
 2309TIP3    H128418   1.684   1.876   1.176 -1.2232  0.2062  1.6538
 2309TIP3    H228419   1.826   1.856   1.225  0.3220  1.0527 -2.0960
 2310TIP3   OH228420   0.707   4.066  13.279 -0.3196  0.5326  0.0176
 2310TIP3    H128421   0.731   3.988  13.228  1.1147  1.5420 -0.9364
 2310TIP3    H228422   0.612   4.065  13.282 -0.4166 -0.1077 -1.8693
 2311TIP3   OH228423   4.157   1.071  12.528  0.2358  0.0934 -0.2268
 2311TIP3    H128424   4.106   1.120  12.593 -1.2157 -0.0799 -1.1759
 2311TIP3    H228425   4.098   1.001  12.500  2.2091 -2.1673  0.9863
 2312TIP3   OH228426   0.708   6.668   3.787 -0.6257 -0.3485 -0.7128
 2312TIP3    H128427   0.710   6.763   3.802  0.5090 -0.7942  2.8673
 2312TIP3    H228428   0.796   6.648   3.754 -0.4936 -0.2522 -0.4299
 2313TIP3   OH228429   2.233   3.246  15.903  0.1658  0.4559  0.5275
 2313TIP3    H128430   2.172   3.289  15.843 -0.8966  0.3592  1.4909
 2313TIP3    H228431   2.188   3.248  15.988  1.3347 -0.0070  1.1798
 2314TIP3   OH228432   1.223   3.525  11.731  0.2700  0.6266 -0.0541
 2314TIP3    H128433   1.215   3.434  11.701 -1.1746 -0.0378  2.1305
 2314TIP3    H228434   1.159   3.573  11.678 -0.5215 -0.0479  0.2778
 2315TIP3   OH228435   2.766   2.173   3.127  0.3914 -0.1526  0.3686
 2315TIP3    H128436   2.743   2.264   3.144 -2.3108 -1.2239  3.4396
 2315TIP3    H228437   2.834   2.153   3.192  2.7507  0.1667 -1.8455
 2316TIP3   OH228438   6.624   6.308  15.494  0.3828  0.0235  0.2271
 2316TIP3    H128439   6.628   6.275  15.404 -0.8031  0.6958 -0.0982
 2316TIP3    H228440   6.544   6.269  15.530  1.5924 -1.4109  1.5015
 2317TIP3   OH228441   1.494   5.648  13.671  0.0704 -0.3436  0.0193
 2317TIP3    H128442   1.466   5.631  13.761 -0.1806 -1.3680 -0.2295
 2317TIP3    H228443   1.429   5.709  13.636 -0.3690 -0.6666  0.2613
 2318TIP3   OH228444   2.553   3.900   5.279  0.0409 -0.3009  0.3817
 2318TIP3    H128445   2.467   3.940   5.275 -0.1894 -0.7258  0.9098
 2318TIP3    H228446   2.612   3.964   5.238 -0.6173 -0.3026 -0.5886
 2319TIP3   OH228447   2.730   6.667   4.544 -0.0754  0.6243 -0.0942
 2319TIP3    H128448   2.819   6.643   4.567 -0.0615  2.6782  2.3960
 2319TIP3    H228449   2.735   6.759   4.518 -1.1643  0.1340 -2.3143
 2320TIP3   OH228450   5.629   0.391   5.406  0.4153 -0.1151  0.0288
 2320TIP3    H128451   5.554   0.372   5.462 -0.9036  1.4249 -1.1324
 2320TIP3    H228452   5.597   0.378   5.317  1.3483  1.0531 -0.5134
 2321TIP3   OH228453   3.746   4.715   5.818  0.0481 -0.1925 -0.1979
 2321TIP3    H128454   3.661   4.708   5.775 -0.0011 -1.5530  0.0612
 2321TIP3    H228455   3.765   4.809   5.819 -1.2304  0.0953 -0.6637
 2322TIP3   OH228456   4.459   3.371  11.908  0.2027  0.3076  0.0944
 2322TIP3    H128457   4.417   3.421  11.839 -0.8672  0.1290  0.6019
 2322TIP3    H228458   4.467   3.283  11.874 -0.5392  0.1656  0.2851
 2323TIP3   OH228459   0.609   4.199  11.713  1.2065  0.0167  0.3527
 2323TIP3    H128460   0.611   4.265  11.643  2.9835 -0.7724 -0.4067
 2323TIP3    H228461   0.534   4.144  11.692 -0.1835  1.6108  0.8777
 2324TIP3   OH228462   6.050   4.009  11.959 -0.2312 -0.1533 -0.5306
 2324TIP3    H128463   5.981   4.041  11.901 -0.2788 -0.5778 -0.7053
 2324TIP3    H228464   6.077   3.925  11.922 -0.6186 -0.6782  0.3412
 2325TIP3   OH228465   3.962   1.044   1.570  0.1388 -0.1895 -0.2468
 2325TIP3    H128466   4.032   1.054   1.505 -0.7418 -1.1244 -1.3767
 2325TIP3    H228467   3.965   1.126   1.620  0.6899  0.6796 -1.6276
 2326TIP3   OH228468   0.497   2.269  13.741  0.0300  0.4014 -0.6952
 2326TIP3    H128469   0.581   2.313  13.725  1.1470 -1.4087 -0.2236
 2326TIP3    H228470   0.432   2.339  13.738  1.7964  2.3011  1.3032
 2327TIP3   OH228471   6.256   5.625  16.877 -0.1383  0.0680  0.6080
 2327TIP3    H128472   6.229   5.701  16.825  0.1428 -0.6143 -0.5633
 2327TIP3    H228473   6.203   5.631  16.956 -0.9176  0.8867  0.0494
 2328TIP3   OH228474   5.233   2.948   5.863 -0.1113 -0.0703 -0.3805
 2328TIP3    H128475   5.287   2.884   5.908 -0.4211  0.4254  0.7139
 2328TIP3    H228476   5.239   3.027   5.916  1.1067  1.1642 -2.2485
 2329TIP3   OH228477   0.322   2.899  12.848  0.2672  0.3210 -0.5735
 2329TIP3    H128478   0.362   2.955  12.913 -0.1821 -0.6872  0.6148
 2329TIP3    H228479   0.369   2.816  12.855 -2.2184 -1.0643  1.2066
 2330TIP3   OH228480   2.592   0.470  14.346 -0.1298 -0.2337 -0.0839
 2330TIP3    H128481   2.574   0.564  14.358 -0.3625 -0.3858  0.8583
 2330TIP3    H228482   2.685   0.462  14.367  0.2997  0.0280 -1.7485
 2331TIP3   OH228483   4.058   3.636   3.310  0.2335  0.4101 -0.0110
 2331TIP3    H128484   4.005   3.658   3.234  0.1580  0.9985  0.2053
 2331TIP3    H228485   4.052   3.541   3.317 -1.3684  0.5043  0.3973
 2332TIP3   OH228486   0.627   6.059   4.588  0.6335  0.1761 -0.0019
 2332TIP3    H128487   0.602   6.119   4.659 -0.3280 -1.0737  0.7581
 2332TIP3    H228488   0.578   6.091   4.512 -0.8692 -0.3386  0.7011
 2333TIP3   OH228489   1.946   2.968   5.455  0.1558  0.1859  0.4674
 2333TIP3    H128490   1.890   3.010   5.519 -0.7310 -0.8383  0.3920
 2333TIP3    H228491   2.033   2.966   5.496  0.0654  1.4237  0.7459
 2334TIP3   OH228492   2.848   5.779  16.706  0.4815  0.2612  0.6647
 2334TIP3    H128493   2.875   5.744  16.791 -0.5793 -1.7878  0.2225
 2334TIP3    H228494   2.861   5.707  16.645 -1.0446  0.8903 -0.4610
 2335TIP3   OH228495   4.751   0.814   4.229 -0.2176 -0.2677  0.4158
 2335TIP3    H128496   4.834   0.767   4.219 -0.1868  0.1026 -1.3207
 2335TIP3    H228497   4.752   0.880   4.159 -1.4045  0.6104  1.1912
 2336TIP3   OH228498   3.241   5.785  15.987 -0.3270 -0.2018  0.0386
 2336TIP3    H128499   3.286   5.763  16.069  0.0305  0.0660 -0.0850
 2336TIP3    H228500   3.301   5.844  15.941 -1.2500  0.9917  0.3271
 2337TIP3   OH228501   3.087   2.650   4.601  0.2311  0.2309 -0.1681
 2337TIP3    H128502   3.067   2.582   4.536 -1.1213  0.1555  0.2967
 2337TIP3    H228503   3.004   2.665   4.646  1.0777  0.4677  1.3766
 2338TIP3   OH228504   3.612   6.434  11.337  0.0795  0.2947 -0.5653
 2338TIP3    H128505   3.646   6.523  11.331 -1.9372  1.1282 -0.3907
 2338TIP3    H228506   3.633   6.394  11.253  0.1994  1.2541 -1.0016
 2339TIP3   OH228507   0.620   5.955   2.459 -0.0216 -0.4899 -0.2562
 2339TIP3    H128508   0.682   5.893   2.498 -0.3026 -1.0747 -0.7207
 2339TIP3    H228509   0.551   5.900   2.422 -0.4292  0.1171 -0.4162
 2340TIP3   OH228510   0.233   0.604   1.440 -0.2243 -0.3226 -0.2546
 2340TIP3    H128511   0.286   0.655   1.501 -1.5844 -0.1515  0.8534
 2340TIP3    H228512   0.155   0.658   1.425 -0.1764 -0.6112 -1.7406
 2341TIP3   OH228513   5.000   4.324  16.389 -0.3113 -0.4896  0.1686
 2341TIP3    H128514   4.927   4.354  16.334 -0.0396 -0.4193 -0.1583
 2341TIP3    H228515   4.965   4.248  16.435 -0.3699 -0.9024 -0.5352
 2342TIP3   OH228516   5.002   5.943  11.667 -0.8064 -0.0959 -0.2809
 2342TIP3    H128517   5.011   5.903  11.580  0.1597  0.2085 -0.3365
 2342TIP3    H228518   4.962   5.875  11.721 -2.5198  0.0945 -1.2308
 2343TIP3   OH228519   0.614   0.106  13.930  0.0339 -0.4682 -0.1278
 2343TIP3    H128520   0.560   0.067  13.861 -1.4901  0.5689  0.4489
 2343TIP3    H228521   0.618   0.199  13.907 -3.2393  0.5967  2.7951
 2344TIP3   OH228522   5.071   0.689  14.127  0.2972  0.0960  0.4632
 2344TIP3    H128523   4.991   0.741  14.118  0.2551 -0.1541 -0.7988
 2344TIP3    H228524   5.132   0.748  14.172  0.2922  1.3121 -1.0414
 2345TIP3   OH228525   5.301   3.267   4.815 -0.4045  0.1801  0.4149
 2345TIP3    H128526   5.335   3.294   4.901 -2.5737  0.2715  1.3114
 2345TIP3    H228527   5.215   3.230   4.834  0.1596 -2.3591 -1.4238
 2346TIP3   OH228528   2.026   0.320   0.459 -0.2072 -0.1605 -0.1820
 2346TIP3    H128529   2.101   0.334   0.517  1.2134  1.4868 -2.2669
 2346TIP3    H228530   2.011   0.406   0.419 -2.1079 -0.8802 -1.1319
 2347TIP3   OH228531   3.792   0.123   5.904 -0.7219  0.6212 -0.1837
 2347TIP3    H128532   3.816   0.031   5.891  0.1282  1.0801 -2.1461
 2347TIP3    H228533   3.871   0.172   5.880 -0.3467  1.8636  3.0029
 2348TIP3   OH228534   6.744   2.307  15.918  0.4621  0.0011 -0.1839
 2348TIP3    H128535   6.826   2.268  15.887  0.1722  0.5033 -1.6537
 2348TIP3    H228536   6.676   2.263  15.868 -0.2828 -0.9444  1.5499
 2349TIP3   OH228537   0.670   6.818   3.053 -0.6602  0.6451 -0.6410
 2349TIP3    H128538   0.574   6.824   3.054 -0.7890 -0.9970  0.0919
 2349TIP3    H228539   0.695   6.858   2.970 -2.0911 -0.1290 -1.4890
 2350TIP3   OH228540   4.003   4.470  13.115 -0.3514  0.2723 -0.4034
 2350TIP3    H128541   3.988   4.387  13.070 -0.6573  0.8523 -1.3867
 2350TIP3    H228542   3.920   4.488  13.160 -1.0402  1.1104 -1.9591
 2351TIP3   OH228543   3.251   3.956  14.523 -0.1526 -0.1789 -0.5474
 2351TIP3    H128544   3.274   4.002  14.604 -0.1809 -0.2206 -0.5159
 2351TIP3    H228545   3.159   3.932  14.534 -0.5999  1.1466 -1.2138
 2352TIP3   OH228546   2.695   5.991   0.009 -0.2473 -0.5109 -0.1559
 2352TIP3    H128547   2.770   5.931   0.007 -2.2555 -3.1741  0.1006
 2352TIP3    H228548   2.629   5.950  -0.047 -2.5844  0.1933  1.9043
 2353TIP3   OH228549   0.758   1.402   1.001 -0.1539  0.6698  0.0903
 2353TIP3    H128550   0.841   1.356   1.009 -0.0292  0.9663  0.4971
 2353TIP3    H228551   0.701   1.360   1.066 -0.8969 -0.7521 -1.3843
 2354TIP3   OH228552   6.600   1.906  17.238 -0.1201 -0.4446  0.1826
 2354TIP3    H128553   6.616   1.818  17.204 -1.5867 -1.0549  0.9620
 2354TIP3    H228554   6.602   1.962  17.161 -1.0369 -1.4456 -0.6098
 2355TIP3   OH228555   5.753   3.665  12.699  0.0385  0.3938 -0.0311
 2355TIP3    H128556   5.771   3.727  12.769  0.9460 -1.6453  1.6321
 2355TIP3    H228557   5.658   3.651  12.704  0.1346  0.0294  1.0277
 2356TIP3   OH228558   1.199   5.116   3.153  0.3320 -0.0576 -0.2459
 2356TIP3    H128559   1.230   5.062   3.225 -0.1347 -1.3635 -0.9846
 2356TIP3    H228560   1.178   5.200   3.193  2.9368  0.2738  0.6114
 2357TIP3   OH228561   0.560   1.903   2.684 -0.3092  0.2262  0.5582
 2357TIP3    H128562   0.611   1.823   2.671 -0.1846  0.3099  0.5317
 2357TIP3    H228563   0.469   1.874   2.676 -0.2514  0.1882 -0.0145
 2358TIP3   OH228564   2.171   5.307   2.271 -0.4176  0.2174 -0.1272
 2358TIP3    H128565   2.220   5.290   2.351 -2.5754 -1.2320  0.9680
 2358TIP3    H228566   2.110   5.377   2.294  0.1564  1.0569 -1.0701
 2359TIP3   OH228567   5.918   3.600  11.293 -0.1418  0.2995 -0.0272
 2359TIP3    H128568   5.947   3.691  11.283 -2.0069  0.9842  0.3563
 2359TIP3    H228569   5.951   3.573  11.379  0.0744  0.7596  0.0361
 2360TIP3   OH228570   4.432   4.932  16.958 -0.1404 -0.1849  0.3555
 2360TIP3    H128571   4.407   4.841  16.939  0.3943 -0.1416 -0.5812
 2360TIP3    H228572   4.520   4.941  16.920 -0.4360  0.9053 -0.0859
 2361TIP3   OH228573   1.054   1.638   2.029 -0.3540 -0.0887 -0.3470
 2361TIP3    H128574   1.092   1.726   2.019 -1.3196  0.4273  0.3430
 2361TIP3    H228575   0.999   1.645   2.106 -0.4814 -1.3089 -0.3156
 2362TIP3   OH228576   2.803   0.097   4.464 -0.3338  0.3498  0.2323
 2362TIP3    H128577   2.750   0.173   4.440 -1.2510 -0.0925  0.7788
 2362TIP3    H228578   2.846   0.123   4.545 -1.8559 -0.2134  1.2813
 2363TIP3   OH228579   2.427   3.178  10.301  0.1358  0.0123 -0.5695
 2363TIP3    H128580   2.424   3.158  10.395  0.1425 -2.2800 -1.0085
 2363TIP3    H228581   2.352   3.132  10.264  1.2658 -0.7970 -1.9557
 2364TIP3   OH228582   3.490   6.741  12.669  0.1321  0.2326  0.0840
 2364TIP3    H128583   3.548   6.743  12.746  1.0265 -0.7013 -0.5361
 2364TIP3    H228584   3.520   6.813  12.614  0.7489 -0.2645 -0.2466
 2365TIP3   OH228585   2.824   3.575   5.389  0.7293  0.4785 -0.5722
 2365TIP3    H128586   2.913   3.610   5.381  0.2998  2.0750  0.8795
 2365TIP3    H228587   2.811   3.564   5.483 -0.8177  0.9461 -0.6947
 2366TIP3   OH228588   5.574   6.357  17.072 -0.2239 -0.2728  0.1571
 2366TIP3    H128589   5.656   6.395  17.042 -0.7110 -0.6607 -1.7837
 2366TIP3    H228590   5.575   6.267  17.039 -0.7673 -0.7857  1.4368
 2367TIP3   OH228591   4.246   3.627  13.799 -1.0088 -0.1015 -0.2311
 2367TIP3    H128592   4.191   3.623  13.721  0.2212 -1.3764 -1.0810
 2367TIP3    H228593   4.223   3.549  13.849 -0.6841 -0.1176 -0.1011
 2368TIP3   OH228594   0.396   4.296   3.162 -0.0167  0.7623  0.4949
 2368TIP3    H128595   0.390   4.292   3.067 -0.9202  2.2083  0.4537
 2368TIP3    H228596   0.488   4.319   3.179  1.3391 -3.6040  0.2400
 2369TIP3   OH228597   2.565   0.972  13.249 -0.4298 -0.2693 -0.6203
 2369TIP3    H128598   2.568   0.925  13.166  0.6254 -2.1397  0.4019
 2369TIP3    H228599   2.652   0.959  13.287 -0.0258  2.6625 -0.2755
 2370TIP3   OH228600   5.391   0.489  11.783 -0.5086  0.1598 -0.1990
 2370TIP3    H128601   5.432   0.500  11.697 -0.5619 -0.5037 -0.3179
 2370TIP3    H228602   5.300   0.466  11.764  0.0668 -2.5753 -0.0696
 2371TIP3   OH228603   1.699   4.071   2.179  0.1903  0.1570 -0.2503
 2371TIP3    H128604   1.741   4.148   2.215  1.2729 -1.5028  2.3294
 2371TIP3    H228605   1.763   4.035   2.118  0.3336  0.4654 -0.2830
 2372TIP3   OH228606   6.020   5.116  11.181  0.1002  0.5763 -0.5941
 2372TIP3    H128607   5.951   5.084  11.124 -1.1353 -0.9925  1.6309
 2372TIP3    H228608   6.097   5.065  11.157 -0.0095  0.8990 -1.7077
 2373TIP3   OH228609   5.397   4.926   2.982 -0.0541  0.1892 -0.3781
 2373TIP3    H128610   5.421   4.921   3.075  2.1968 -2.8048 -0.9532
 2373TIP3    H228611   5.462   4.986   2.944  0.8584 -0.8166 -0.4436
 2374TIP3   OH228612   5.008   1.868  14.743 -0.1035 -0.3078 -0.4936
 2374TIP3    H128613   4.954   1.906  14.811 -2.0575  0.2916 -2.2671
 2374TIP3    H228614   5.091   1.915  14.748 -1.1079  1.4944 -0.1364
 2375TIP3   OH228615   5.874   4.911   0.483 -0.2681 -0.0658  0.3460
 2375TIP3    H128616   5.822   4.942   0.409  0.3513  0.1048 -0.0323
 2375TIP3    H228617   5.919   4.989   0.515 -1.2149  0.0404  1.4887
 2376TIP3   OH228618   2.420   6.717   3.521  0.0353  0.2939  0.0078
 2376TIP3    H128619   2.511   6.700   3.498  0.5310  2.0462  0.5030
 2376TIP3    H228620   2.403   6.658   3.595  1.5206  1.4626  1.3735
 2377TIP3   OH228621   3.076   4.972  11.432  0.5967  0.2337 -0.0957
 2377TIP3    H128622   2.981   4.977  11.422  0.7852  1.3187 -1.9738
 2377TIP3    H228623   3.100   5.054  11.475  0.6482 -0.2455  0.7956
 2378TIP3   OH228624   2.319   3.080   5.445 -0.3529 -0.4005  0.0647
 2378TIP3    H128625   2.282   3.113   5.363 -0.0804 -2.0217 -0.7280
 2378TIP3    H228626   2.365   3.000   5.421  0.3022 -0.5500  1.7007
 2379TIP3   OH228627   2.793   6.236  13.775  0.5374 -0.2773  0.1030
 2379TIP3    H128628   2.713   6.208  13.819  1.4023 -0.8043  1.4146
 2379TIP3    H228629   2.770   6.238  13.682  0.0618 -4.4791 -0.0913
 2380TIP3   OH228630   2.541   1.970  13.731  0.1314 -0.2753  0.3071
 2380TIP3    H128631   2.577   2.039  13.677 -0.4220  3.0327  3.7782
 2380TIP3    H228632   2.598   1.895  13.716  3.1895  2.0870 -0.7554
 2381TIP3   OH228633   2.538   3.972  12.145 -0.3139 -0.2873 -0.9849
 2381TIP3    H128634   2.585   3.979  12.063 -1.4739  1.1302 -1.5740
 2381TIP3    H228635   2.445   3.980  12.121 -0.8372 -1.9689  0.2377
 2382TIP3   OH228636   3.945   6.387   2.811 -0.0005 -0.1267  0.1941
 2382TIP3    H128637   3.991   6.426   2.737 -0.9657 -0.8716 -0.8426
 2382TIP3    H228638   3.959   6.448   2.884 -0.8996  1.8271 -1.1804
 2383TIP3   OH228639   4.095   1.057  13.121  0.0109 -0.3182  0.0345
 2383TIP3    H128640   4.013   1.014  13.097 -0.2213  0.3412 -0.3815
 2383TIP3    H228641   4.073   1.150  13.128  0.7576 -0.1040 -0.2647
 2384TIP3   OH228642   4.036   1.136  16.333 -0.4342 -0.2983 -0.1006
 2384TIP3    H128643   4.080   1.189  16.267  0.0292 -0.5664 -0.0185
 2384TIP3    H228644   3.989   1.069  16.284 -2.1695  0.9881 -0.2848
 2385TIP3   OH228645   6.282   5.885  15.751  0.0484 -0.0288  0.5414
 2385TIP3    H128646   6.288   5.925  15.838 -1.3698  0.3039  0.5222
 2385TIP3    H228647   6.350   5.818  15.751  1.0055  0.8906  1.3881
 2386TIP3   OH228648   4.359   6.187   5.668 -0.6256 -0.5711  0.0831
 2386TIP3    H128649   4.433   6.247   5.663 -1.7211  0.7679 -0.7890
 2386TIP3    H228650   4.399   6.100   5.668  0.9237  0.0341 -2.2743
 2387TIP3   OH228651   5.966   5.195   2.531 -0.6563  0.3089 -0.1000
 2387TIP3    H128652   6.016   5.129   2.481  1.2619  1.9980 -0.5530
 2387TIP3    H228653   6.030   5.233   2.591 -0.8470  3.7416 -1.8326
 2388TIP3   OH228654   6.148   6.101   0.370 -0.2193  0.4495 -0.9216
 2388TIP3    H128655   6.095   6.152   0.308 -0.7747 -1.3768 -2.0275
 2388TIP3    H228656   6.139   6.148   0.453 -0.7462  2.0880 -1.8517
 2389TIP3   OH228657   3.326   6.035  15.264  0.0087 -0.3160  0.0881
 2389TIP3    H128658   3.396   6.002  15.208 -0.6779 -1.1872 -0.2845
 2389TIP3    H228659   3.249   6.039  15.207 -0.7070 -1.2322  0.9565
 2390TIP3   OH228660   2.871   0.315   5.737  0.7035 -0.0894 -0.6897
 2390TIP3    H128661   2.778   0.308   5.715 -0.0368  3.0259  0.9173
 2390TIP3    H228662   2.912   0.351   5.658  0.5189 -1.1096 -1.2694
 2391TIP3   OH228663   4.715   3.922  16.790 -0.2337 -0.3983 -0.2293
 2391TIP3    H128664   4.689   3.961  16.873 -0.2592 -0.4633 -0.2053
 2391TIP3    H228665   4.784   3.978  16.757  1.5193 -1.7328  1.0122
 2392TIP3   OH228666   2.075   2.943  12.560  0.4455 -0.2157 -0.1186
 2392TIP3    H128667   2.170   2.937  12.556  0.3996 -2.9899  0.7291
 2392TIP3    H228668   2.058   3.008  12.627  1.7801 -0.5315  0.5669
 2393TIP3   OH228669   4.875   0.442  11.864 -0.3627 -0.1671 -0.1970
 2393TIP3    H128670   4.857   0.536  11.874  0.5396  0.0912 -0.8277
 2393TIP3    H228671   4.820   0.415  11.790 -2.2741 -0.6572  1.3246
 2394TIP3   OH228672   2.440   4.929   1.155 -0.0156 -0.4365  0.2561
 2394TIP3    H128673   2.359   4.957   1.198 -1.9781 -1.0735 -2.7002
 2394TIP3    H228674   2.433   4.833   1.150 -0.8662 -0.3406 -2.9234
 2395TIP3   OH228675   1.415   2.020   4.644  0.1073 -0.5779  0.8921
 2395TIP3    H128676   1.390   1.927   4.645  0.4208 -0.6616  1.5287
 2395TIP3    H228677   1.405   2.048   4.735 -0.8991  0.2715  0.5415
 2396TIP3   OH228678   6.670   6.575   0.365 -0.1955  0.2178  0.6466
 2396TIP3    H128679   6.584   6.577   0.407 -1.0412 -2.1422 -0.7741
 2396TIP3    H228680   6.662   6.634   0.290 -1.1221 -1.0717 -0.3179
 2397TIP3   OH228681   4.981   2.585  16.067  0.0913  0.4107 -0.4925
 2397TIP3    H128682   5.075   2.600  16.064  0.3459 -0.8717  0.1611
 2397TIP3    H228683   4.963   2.567  16.159 -0.7547  0.4303 -0.6488
 2398TIP3   OH228684   4.343   5.333  13.215 -0.1996  0.1083 -0.0579
 2398TIP3    H128685   4.303   5.247  13.201 -1.5591  0.5531  0.9006
 2398TIP3    H228686   4.275   5.395  13.192  0.3275  0.9156  0.5002
 2399TIP3   OH228687   5.089   4.561   6.173 -0.1286  0.0664 -1.0004
 2399TIP3    H128688   5.010   4.529   6.216  0.1916  1.0464  0.3779
 2399TIP3    H228689   5.111   4.641   6.220  2.6171 -1.0339 -0.2213
 2400TIP3   OH228690   0.433   5.312   1.048  0.5543  0.1963 -0.0799
 2400TIP3    H128691   0.379   5.235   1.060 -1.4623  0.7337 -3.8881
 2400TIP3    H228692   0.512   5.295   1.099 -0.9544 -3.0602  1.4518
 2401TIP3   OH228693   0.469   3.182   2.211  0.4577 -0.3884 -0.4131
 2401TIP3    H128694   0.374   3.171   2.212  0.2129  1.1845 -1.6985
 2401TIP3    H228695   0.483   3.260   2.156  2.4953 -0.6918 -0.3849
 2402TIP3   OH228696   4.669   0.133  11.420  0.6508  0.1126  0.6702
 2402TIP3    H128697   4.633   0.088  11.496 -0.2562 -0.4067 -0.0484
 2402TIP3    H228698   4.597   0.186  11.386  1.4929  1.5943  1.0716
 2403TIP3   OH228699   5.069   3.181   4.508 -0.3157  0.1033  0.1292
 2403TIP3    H128700   5.079   3.275   4.527 -1.6983  0.7316 -1.9679
 2403TIP3    H228701   4.982   3.174   4.470  0.1567 -1.8919 -0.6713
 2404TIP3   OH228702   6.255   0.733   1.773 -0.0959 -0.1224 -0.2599
 2404TIP3    H128703   6.167   0.752   1.742 -0.5761 -0.7266  0.6737
 2404TIP3    H228704   6.275   0.646   1.739  0.4591  0.3169 -1.1016
 2405TIP3   OH228705   6.211   0.156  14.180 -0.2146 -0.3734  0.2687
 2405TIP3    H128706   6.169   0.194  14.257  0.0658 -1.7296  1.1368
 2405TIP3    H228707   6.166   0.071  14.168  1.1265 -1.0977  0.1930
 2406TIP3   OH228708   3.438   4.853  11.441 -1.0951  0.3317  0.1447
 2406TIP3    H128709   3.440   4.817  11.530 -1.5754  1.0573  0.4602
 2406TIP3    H228710   3.443   4.948  11.453 -3.2919  0.5993 -0.4640
 2407TIP3   OH228711   2.721   3.495  15.918  0.4516  0.3176 -0.0643
 2407TIP3    H128712   2.629   3.498  15.892  0.5002  1.6294 -0.1228
 2407TIP3    H228713   2.725   3.541  16.001  1.0544  0.2404 -0.0451
 2408TIP3   OH228714   3.189   5.007  13.530  0.1317  0.0258 -0.4265
 2408TIP3    H128715   3.206   5.086  13.479  0.6977  1.3369  1.6788
 2408TIP3    H228716   3.096   5.013  13.553  0.5905  1.1576  1.3429
 2409TIP3   OH228717   4.596   3.503   4.506 -0.0819  0.3940 -0.0158
 2409TIP3    H128718   4.670   3.538   4.457  0.5955 -0.9027  0.0301
 2409TIP3    H228719   4.622   3.511   4.598 -0.7069  1.4327  0.0820
 2410TIP3   OH228720   2.107   4.849   1.090 -0.5847  0.5549 -0.5990
 2410TIP3    H128721   2.036   4.844   1.026  0.0229  0.9939 -1.3175
 2410TIP3    H228722   2.174   4.789   1.056 -1.0430 -0.7554  0.6699
 2411TIP3   OH228723   5.634   5.312  16.928 -1.0667  0.0054 -0.1312
 2411TIP3    H128724   5.664   5.344  16.843 -1.9347 -1.5981 -1.1000
 2411TIP3    H228725   5.567   5.375  16.956 -0.5977  0.6790 -0.5080
 2412TIP3   OH228726   0.231   0.254  15.509 -0.1698 -0.1880  0.3787
 2412TIP3    H128727   0.237   0.299  15.593  0.1325 -0.0344  0.2785
 2412TIP3    H228728   0.137   0.238  15.497 -0.4043  1.2544 -0.0085
 2413TIP3   OH228729   0.291   0.017   3.521  0.3635  0.0524  0.0619
 2413TIP3    H128730   0.374   0.014   3.568  0.5919 -0.2281 -0.3511
 2413TIP3    H228731   0.310   0.071   3.444  0.5904 -1.2480 -0.8328
 2414TIP3   OH228732   1.455   4.249  15.440 -0.5903  0.4340  0.0435
 2414TIP3    H128733   1.406   4.195  15.502  2.2707 -2.2254  0.2517
 2414TIP3    H228734   1.437   4.209  15.354 -0.4850  0.7833 -0.1420
 2415TIP3   OH228735   4.036   5.503   0.424  0.1486  0.1541  0.0086
 2415TIP3    H128736   4.066   5.571   0.363  0.8901  0.1608  0.3640
 2415TIP3    H228737   4.116   5.455   0.446 -0.3857 -0.9097 -0.3290
 2416TIP3   OH228738   6.197   5.742   2.607  0.1231  0.6561 -0.3314
 2416TIP3    H128739   6.281   5.767   2.569  0.7731 -2.1249 -0.9852
 2416TIP3    H228740   6.180   5.655   2.571 -2.1749  0.3868  1.1933
 2417TIP3   OH228741   5.819   3.117   2.474 -0.1809 -0.0311  0.3330
 2417TIP3    H128742   5.902   3.163   2.487  0.2372 -0.7074  0.1213
 2417TIP3    H228743   5.806   3.066   2.554  0.4004 -1.1274 -0.2501
 2418TIP3   OH228744   3.676   3.551  12.345 -0.6166  0.1150  0.5220
 2418TIP3    H128745   3.608   3.618  12.345 -0.1753  0.5748  0.9107
 2418TIP3    H228746   3.758   3.600  12.341 -0.2190 -0.2881  2.5697
 2419TIP3   OH228747   5.402   6.314  11.521  0.4172  0.0950 -0.1101
 2419TIP3    H128748   5.420   6.223  11.497  1.1151 -0.3155  1.8261
 2419TIP3    H228749   5.416   6.317  11.616 -0.3724  2.0447 -0.0167
 2420TIP3   OH228750   4.567   1.323  14.703  0.1875 -0.0209 -0.1337
 2420TIP3    H128751   4.561   1.321  14.608  0.7933 -0.1743 -0.1668
 2420TIP3    H228752   4.508   1.394  14.729  1.0445  0.9205 -0.7077
 2421TIP3   OH228753   1.504   0.978  15.364 -0.3347  0.0294 -0.4335
 2421TIP3    H128754   1.412   0.951  15.360 -0.9686  1.8947  0.2756
 2421TIP3    H228755   1.519   1.025  15.282  0.7147 -2.1736 -1.5968
 2422TIP3   OH228756   4.339   0.132   4.613  0.2764 -0.2979 -0.1957
 2422TIP3    H128757   4.273   0.066   4.592  0.6860 -0.5374 -0.7616
 2422TIP3    H228758   4.407   0.085   4.660 -0.7156  0.2731  1.9257
 2423TIP3   OH228759   0.222   6.757  12.853 -0.3328  0.6723  0.1233
 2423TIP3    H128760   0.280   6.784  12.781 -1.0272 -1.6646 -1.4614
 2423TIP3    H228761   0.233   6.662  12.857  0.1498  0.7595  3.6175
 2424TIP3   OH228762   1.672   3.758   3.826  0.1029  0.4015  0.4320
 2424TIP3    H128763   1.716   3.673   3.816 -0.0469  0.6448 -5.1597
 2424TIP3    H228764   1.586   3.737   3.862  0.1758 -1.8495 -0.5460
 2425TIP3   OH228765   0.354   2.298  16.861  0.2422  0.3162 -0.1661
 2425TIP3    H128766   0.308   2.382  16.867 -1.5535 -0.7098  1.2895
 2425TIP3    H228767   0.317   2.245  16.931  0.1091 -2.2860 -2.0638
 2426TIP3   OH228768   0.460   4.603  11.713 -0.2310  0.0283  1.1990
 2426TIP3    H128769   0.545   4.564  11.734 -0.6256 -1.8048 -0.2775
 2426TIP3    H228770   0.401   4.569  11.781 -0.3232 -1.0241  0.6139
 2427TIP3   OH228771   6.443   2.001  10.852 -0.4990 -0.0096  0.1201
 2427TIP3    H128772   6.523   1.952  10.872 -0.5540  0.6999  2.3798
 2427TIP3    H228773   6.390   1.939  10.801  0.3679 -1.4871  0.9313
 2428TIP3   OH228774   5.566   2.858  13.109  0.1111  0.3338  0.0430
 2428TIP3    H128775   5.547   2.947  13.137 -0.3360  0.6327 -1.1624
 2428TIP3    H228776   5.553   2.805  13.188 -2.4675  0.9622  0.1286
 2429TIP3   OH228777   1.316   4.439   6.142  0.0839  0.0438  0.4712
 2429TIP3    H128778   1.406   4.418   6.116  0.0175  0.1049  0.1873
 2429TIP3    H228779   1.299   4.382   6.217  0.1011 -0.5110  0.0603
 2430TIP3   OH228780   5.021   4.291   4.046 -0.3384 -0.1437  0.4250
 2430TIP3    H128781   4.972   4.223   4.092  0.2844 -0.1352  1.1154
 2430TIP3    H228782   5.033   4.257   3.957 -1.4814 -0.1931  0.2787
 2431TIP3   OH228783   6.354   5.986  13.780 -0.0809 -0.1769 -0.2905
 2431TIP3    H128784   6.441   6.004  13.744 -0.0500  1.3723  0.4693
 2431TIP3    H228785   6.306   6.069  13.770 -0.1220  0.3238  3.0027
 2432TIP3   OH228786   5.691   4.325  13.300 -0.1445  0.2483 -0.4555
 2432TIP3    H128787   5.626   4.272  13.252 -1.1521  0.0217  1.0789
 2432TIP3    H228788   5.764   4.333  13.240 -1.2051 -0.3297 -1.8879
 2433TIP3   OH228789   4.313   1.240   1.643 -0.5188  0.7749  0.3503
 2433TIP3    H128790   4.361   1.320   1.665  0.9004  0.6426 -1.9272
 2433TIP3    H228791   4.356   1.172   1.696  1.2160  0.8401 -0.8784
 2434TIP3   OH228792   0.451   1.933   6.854  0.4709 -0.0980 -0.2477
 2434TIP3    H128793   0.420   1.922   6.945 -0.0731  0.7735 -0.3182
 2434TIP3    H228794   0.401   1.868   6.805 -1.0789  1.0721 -0.3028
 2435TIP3   OH228795   2.533   4.568   3.042  0.3993  0.0624  0.0711
 2435TIP3    H128796   2.540   4.488   3.094 -0.0193  0.2575  0.4268
 2435TIP3    H228797   2.552   4.539   2.952  1.2579 -0.2481  0.3413
 2436TIP3   OH228798   4.289   5.962   1.741 -0.4529  0.3126  0.3859
 2436TIP3    H128799   4.206   5.919   1.761  0.7724 -1.5695  1.7620
 2436TIP3    H228800   4.283   6.047   1.783 -2.0049  0.5810 -0.3051
 2437TIP3   OH228801   3.940   3.913  15.428 -0.3164 -0.3612  0.4913
 2437TIP3    H128802   3.956   3.847  15.495  2.2192 -0.4105 -0.0565
 2437TIP3    H228803   3.948   3.866  15.345  4.2638  0.8858 -0.0351
 2438TIP3   OH228804   3.420   2.551  11.380 -0.0309  0.2476  0.3103
 2438TIP3    H128805   3.386   2.640  11.371 -0.4443 -0.0636 -1.7090
 2438TIP3    H228806   3.474   2.538  11.302  0.3505 -1.1425  0.7778
 2439TIP3   OH228807   2.345   2.358  12.158 -0.2732  0.7671 -0.0875
 2439TIP3    H128808   2.295   2.403  12.226 -0.6667 -2.1702  1.7251
 2439TIP3    H228809   2.433   2.396  12.165 -0.7598  1.8095  0.7734
 2440TIP3   OH228810   1.018   4.736   5.289 -0.4569 -0.4420 -0.6624
 2440TIP3    H128811   1.039   4.732   5.195 -1.2032 -2.5665 -0.8062
 2440TIP3    H228812   0.928   4.770   5.292 -0.6323 -0.8816 -0.7804
 2441TIP3   OH228813   3.111   1.604  11.417 -0.0112  0.3360  0.1154
 2441TIP3    H128814   3.096   1.514  11.444 -0.7936 -0.3507 -2.3216
 2441TIP3    H228815   3.031   1.629  11.371  1.0409  1.4693 -1.2075
 2442TIP3   OH228816   3.561   0.576  13.799  0.8560  0.0500  0.2415
 2442TIP3    H128817   3.483   0.553  13.851  0.0523  0.1606 -0.8907
 2442TIP3    H228818   3.623   0.610  13.864 -0.3456  0.7701  1.0678
 2443TIP3   OH228819   2.230   3.628  16.075  0.4327 -0.0939 -0.4357
 2443TIP3    H128820   2.317   3.589  16.080  0.4984 -0.3818 -2.7455
 2443TIP3    H228821   2.178   3.566  16.024 -1.2027  0.0264  0.9575
 2444TIP3   OH228822   5.412   0.085  14.832  0.2956  0.2692 -0.0082
 2444TIP3    H128823   5.316   0.084  14.828  0.2753 -1.7276 -0.5299
 2444TIP3    H228824   5.432   0.118  14.919 -0.9397 -0.9260  0.7718
 2445TIP3   OH228825   1.956   0.172   0.727  0.5545  0.0032 -0.8489
 2445TIP3    H128826   2.028   0.211   0.678  0.4351 -0.5385 -1.4674
 2445TIP3    H228827   1.973   0.078   0.723 -0.6758 -0.1977 -1.7941
 2446TIP3   OH228828   0.355   1.578  13.892  0.0324  0.7242 -0.3689
 2446TIP3    H128829   0.297   1.550  13.963  1.9173 -0.6750  0.6723
 2446TIP3    H228830   0.317   1.538  13.814  0.0734 -0.9402  0.4265
 2447TIP3   OH228831   3.340   4.271  15.831  0.2907 -0.1102 -0.0014
 2447TIP3    H128832   3.316   4.358  15.861 -0.2513 -0.1196 -0.3954
 2447TIP3    H228833   3.345   4.278  15.736 -0.4035 -0.6592 -0.0856
 2448TIP3   OH228834   0.155   2.606   6.105 -0.1675 -0.8813  0.0337
 2448TIP3    H128835   0.078   2.636   6.152 -0.8146 -0.7900 -1.0647
 2448TIP3    H228836   0.215   2.681   6.105 -0.2106 -0.8464  0.5966
 2449TIP3   OH228837   5.958   0.119   4.670 -0.3023 -0.2279 -0.5355
 2449TIP3    H128838   5.983   0.031   4.642  0.4578 -0.1700 -0.0630
 2449TIP3    H228839   5.989   0.126   4.760  0.1670  0.7259 -0.7501
 2450TIP3   OH228840   1.189   4.390   5.309  0.0983  0.0548 -0.2279
 2450TIP3    H128841   1.185   4.344   5.224 -0.8831  1.4395 -0.9661
 2450TIP3    H228842   1.275   4.432   5.309  0.7160 -1.1633  0.1448
 2451TIP3   OH228843   0.880   2.863  14.195 -0.0865  0.9067 -0.2239
 2451TIP3    H128844   0.844   2.941  14.239  0.6983  0.9749  0.3325
 2451TIP3    H228845   0.826   2.852  14.117 -1.1862  1.1063  0.4874
 2452TIP3   OH228846   5.929   1.289   6.166  0.8129  0.2223  0.1931
 2452TIP3    H128847   6.020   1.260   6.164  0.8570  0.3538 -1.3981
 2452TIP3    H228848   5.919   1.329   6.252  1.9497 -0.7164  0.8025
 2453TIP3   OH228849   4.811   5.260   1.223  0.1134  0.5303  0.2439
 2453TIP3    H128850   4.879   5.245   1.157 -1.4014  0.7681 -1.4603
 2453TIP3    H228851   4.817   5.353   1.244 -1.2257  1.1541 -1.8155
 2454TIP3   OH228852   0.439   1.106  16.372 -0.1276 -0.8757  0.4225
 2454TIP3    H128853   0.499   1.150  16.432  0.1673  2.3789 -1.9575
 2454TIP3    H228854   0.467   1.014  16.373  2.3696 -0.2104  2.2632
 2455TIP3   OH228855   1.160   3.745   0.231  0.2934  0.0879 -0.4163
 2455TIP3    H128856   1.112   3.744   0.148 -0.7148 -0.7340  0.1411
 2455TIP3    H228857   1.252   3.735   0.206 -0.0249 -0.4670 -1.4208
 2456TIP3   OH228858   4.321   0.386  11.996  0.0912  0.0020  0.4951
 2456TIP3    H128859   4.330   0.394  12.091  0.1836 -0.1928  0.5027
 2456TIP3    H228860   4.313   0.292  11.980  2.8288 -0.2460  0.0796
 2457TIP3   OH228861   0.067   3.735  16.978 -0.2120 -0.2136  0.4078
 2457TIP3    H128862  -0.015   3.688  16.968 -0.3194 -0.2009  1.1932
 2457TIP3    H228863   0.057   3.785  17.059  0.7804 -0.6689  0.8297
 2458TIP3   OH228864   4.229   2.724   0.297  0.1164  0.2464  0.1970
 2458TIP3    H128865   4.278   2.644   0.278 -1.4247 -0.4115 -1.2211
 2458TIP3    H228866   4.261   2.751   0.383  3.8174  0.5360 -1.0728
 2459TIP3   OH228867   1.577   0.493  15.959  0.4409  0.1295  0.5125
 2459TIP3    H128868   1.591   0.563  15.895  0.9435  1.2458  1.8019
 2459TIP3    H228869   1.484   0.471  15.951  0.3096  0.8513 -0.0062
 2460TIP3   OH228870   5.123   0.771   5.292 -0.1223  0.0931  0.0445
 2460TIP3    H128871   5.097   0.697   5.237  0.7825  0.8572 -1.4957
 2460TIP3    H228872   5.041   0.799   5.334 -0.4704 -1.7891  0.7417
 2461TIP3   OH228873   5.297   2.259  13.751 -0.4682 -0.4210 -0.1610
 2461TIP3    H128874   5.239   2.186  13.727 -1.9648  0.6115  0.1450
 2461TIP3    H228875   5.241   2.317  13.803  0.7937  0.7510 -0.0629
 2462TIP3   OH228876   4.964   2.691  10.929 -0.2108  0.1806 -0.3412
 2462TIP3    H128877   4.870   2.694  10.912 -0.1035  0.1495 -0.9718
 2462TIP3    H228878   5.004   2.675  10.843  0.4013  0.7406 -0.1759
 2463TIP3   OH228879   3.442   3.120  16.892 -0.6773 -0.1944 -0.7160
 2463TIP3    H128880   3.414   3.212  16.895 -0.9569 -0.2671  2.4323
 2463TIP3    H228881   3.506   3.117  16.821 -0.0239  2.6484 -0.3847
 2464TIP3   OH228882   1.341   6.101  11.991 -0.3886 -0.4256  0.7742
 2464TIP3    H128883   1.322   6.181  12.040 -0.7643 -0.7846  1.2247
 2464TIP3    H228884   1.436   6.103  11.978 -0.5258  0.6562 -0.2084
 2465TIP3   OH228885   4.604   4.593   5.403 -0.1114  0.5593 -0.2005
 2465TIP3    H128886   4.604   4.497   5.402  0.2989  0.5537  0.4302
 2465TIP3    H228887   4.657   4.617   5.479 -0.4016  1.2877 -0.2212
 2466TIP3   OH228888   3.700   0.958   5.689 -0.4498 -0.4971 -0.6765
 2466TIP3    H128889   3.686   0.956   5.784  0.2737 -0.3920 -0.5580
 2466TIP3    H228890   3.613   0.968   5.652 -0.8281 -1.3455 -0.0520
 2467TIP3   OH228891   5.927   6.155   6.094  0.2834  0.1061  0.0413
 2467TIP3    H128892   5.981   6.111   6.160  0.4829 -2.9711 -1.9389
 2467TIP3    H228893   5.980   6.228   6.063  1.1962  0.1138  1.5735
 2468TIP3   OH228894   0.693   2.825   1.190 -0.1542 -0.2874 -0.3368
 2468TIP3    H128895   0.740   2.816   1.107  0.2982 -1.7105  0.0465
 2468TIP3    H228896   0.658   2.914   1.187  0.2922 -0.1172 -1.8168
 2469TIP3   OH228897   3.846   4.772  14.500 -0.2349 -0.5023 -0.2739
 2469TIP3    H128898   3.875   4.737  14.416 -0.0985 -0.8214 -0.0950
 2469TIP3    H228899   3.811   4.696  14.548 -2.7475  0.0706 -1.0326
 2470TIP3   OH228900   6.392   3.951   1.440  0.0637  0.2088  0.0879
 2470TIP3    H128901   6.462   3.942   1.375  1.0928 -0.6497  1.2715
 2470TIP3    H228902   6.431   4.004   1.510  0.4718 -2.3187  1.9315
 2471TIP3   OH228903   4.134   0.744  13.791  0.0128  0.7365  0.2788
 2471TIP3    H128904   4.209   0.690  13.766  0.6793  1.6230  0.3075
 2471TIP3    H228905   4.107   0.709  13.876  0.3052  0.3229  0.2068
 2472TIP3   OH228906   1.859   3.236  12.360  0.4267  0.3009  0.1035
 2472TIP3    H128907   1.865   3.300  12.289 -0.0241  1.3145  0.9404
 2472TIP3    H228908   1.890   3.154  12.322  1.2408  1.0677 -0.9416
 2473TIP3   OH228909   0.324   1.938  11.750  0.4568 -0.1513  0.0978
 2473TIP3    H128910   0.336   1.911  11.659  0.4575  0.7654 -0.1818
 2473TIP3    H228911   0.233   1.913  11.770  0.6244 -0.8340  0.0169
 2474TIP3   OH228912   5.347   0.662   0.132 -0.4106  0.0024 -0.2717
 2474TIP3    H128913   5.275   0.604   0.155  0.0138 -0.2544  0.4547
 2474TIP3    H228914   5.320   0.748   0.165 -0.0915 -0.2345  0.6487
 2475TIP3   OH228915   5.603   3.144   0.501  0.1989  0.0697  0.0220
 2475TIP3    H128916   5.557   3.165   0.420  0.5542  0.4567 -0.0814
 2475TIP3    H228917   5.688   3.109   0.472 -0.7022 -2.3801  0.1598
 2476TIP3   OH228918   0.850   0.272   3.570 -0.0440 -0.3500  0.0502
 2476TIP3    H128919   0.796   0.225   3.635  0.7145 -0.0585  0.9100
 2476TIP3    H228920   0.869   0.206   3.503 -1.5079 -0.4430 -0.3071
 2477TIP3   OH228921   2.853   6.787  13.219 -0.3856 -0.2307  0.2084
 2477TIP3    H128922   2.927   6.840  13.188 -1.3460  1.2745  0.4012
 2477TIP3    H228923   2.865   6.783  13.314 -1.2687  1.2178  0.4138
 2478TIP3   OH228924   4.861   5.279  13.959  0.0104  0.0515 -0.3087
 2478TIP3    H128925   4.830   5.202  13.912 -1.5693  1.0417 -0.9663
 2478TIP3    H228926   4.893   5.338  13.891  0.8901  0.1345  0.1623
 2479TIP3   OH228927   0.889   3.302   4.703  0.0819 -0.2672 -0.8027
 2479TIP3    H128928   0.801   3.282   4.734  0.8744 -0.6576  1.3996
 2479TIP3    H228929   0.888   3.396   4.684 -1.0742 -0.4750 -1.8510
 2480TIP3   OH228930   0.667   6.346   1.591 -0.2903 -0.4081 -0.0799
 2480TIP3    H128931   0.737   6.295   1.551  1.0161  0.2886  1.2088
 2480TIP3    H228932   0.713   6.409   1.647 -1.9212  0.9366 -0.1988
 2481TIP3   OH228933   5.391   1.575  12.407 -0.6215 -0.0021 -0.1656
 2481TIP3    H128934   5.466   1.538  12.362 -0.9399 -1.1097  0.1808
 2481TIP3    H228935   5.315   1.538  12.363 -1.0075  1.4912 -0.8382
 2482TIP3   OH228936   2.396   0.100   3.679 -0.0621  0.8486  0.0665
 2482TIP3    H128937   2.371   0.169   3.617 -0.9827  0.8179  0.3976
 2482TIP3    H228938   2.424   0.027   3.623 -1.6670  0.5179 -0.3588
 2483TIP3   OH228939   6.503   5.271   1.797 -0.5847  0.0981 -0.4459
 2483TIP3    H128940   6.562   5.340   1.765 -1.3501  0.8939 -0.1898
 2483TIP3    H228941   6.559   5.216   1.853 -0.6346  2.5102  2.2260
 2484TIP3   OH228942   3.488   0.913  13.623  0.1275 -0.2615 -0.1717
 2484TIP3    H128943   3.476   0.819  13.638  1.8279 -0.2921  1.2669
 2484TIP3    H228944   3.471   0.925  13.530 -0.0241 -2.0093 -0.3940
 2485TIP3   OH228945   4.331   4.774   1.526  0.3026 -0.0943  0.2825
 2485TIP3    H128946   4.346   4.680   1.519  0.3252 -0.2142  1.6442
 2485TIP3    H228947   4.394   4.813   1.466  0.5377 -0.9282 -0.0274
 2486TIP3   OH228948   0.766   5.944   4.795  0.5404  0.1633  0.0149
 2486TIP3    H128949   0.741   5.981   4.711 -0.1440  2.3790  1.1138
 2486TIP3    H228950   0.857   5.917   4.783  1.0733  2.1851 -0.9322
 2487TIP3   OH228951   4.887   3.032   2.981  0.1314  0.4012  0.5177
 2487TIP3    H128952   4.857   2.945   3.010  1.0645  0.2482  1.0650
 2487TIP3    H228953   4.814   3.090   3.000 -0.3340 -0.1836  0.5683
 2488TIP3   OH228954   6.489   0.988  12.030  0.4408  0.1136  0.8267
 2488TIP3    H128955   6.458   0.952  11.947  3.3755  0.0902 -0.3910
 2488TIP3    H228956   6.447   0.934  12.097 -0.8793 -0.8242 -0.6880
 2489TIP3   OH228957   0.040   6.219   2.629  0.0203 -0.6040  0.1163
 2489TIP3    H128958   0.051   6.268   2.710  2.4212 -2.5437  1.1117
 2489TIP3    H228959  -0.006   6.279   2.570  0.9138  2.0054  1.8865
 2490TIP3   OH228960   5.142   0.283   1.527 -0.6337  0.3331  0.3364
 2490TIP3    H128961   5.080   0.356   1.524  0.6418  1.5742  2.3621
 2490TIP3    H228962   5.228   0.324   1.532  0.1656 -1.3192  0.8646
 2491TIP3   OH228963   6.517   3.975   5.376 -0.0751 -1.0659 -0.1332
 2491TIP3    H128964   6.525   4.068   5.352  0.2633 -0.5459  1.8233
 2491TIP3    H228965   6.602   3.937   5.354 -0.2828 -0.9660 -1.1320
 2492TIP3   OH228966   1.118   3.740   4.243 -0.0426 -0.1317 -0.3717
 2492TIP3    H128967   1.108   3.712   4.153  1.4525  1.0273 -0.9473
 2492TIP3    H228968   1.196   3.694   4.275 -0.4256 -0.3605  0.2573
 2493TIP3   OH228969   0.624   2.051  12.341 -0.2896 -0.0049 -1.2181
 2493TIP3    H128970   0.579   1.987  12.286  0.7425 -0.1433 -1.9354
 2493TIP3    H228971   0.561   2.073  12.409 -0.6815 -1.7620 -0.9718
 2494TIP3   OH228972   4.269   5.724  12.454 -0.0141 -0.0663 -0.5205
 2494TIP3    H128973   4.274   5.640  12.501  2.3926 -0.0938 -0.7341
 2494TIP3    H228974   4.292   5.790  12.519  0.5615  0.1696 -0.9505
 2495TIP3   OH228975   6.508   6.165  16.326  0.2713 -0.5895  0.4872
 2495TIP3    H128976   6.548   6.208  16.251 -0.9000  0.8501  0.6476
 2495TIP3    H228977   6.507   6.231  16.395  1.7009 -1.9991  1.9737
 2496TIP3   OH228978   4.474   0.538   5.438 -0.1461 -0.3367 -0.5265
 2496TIP3    H128979   4.553   0.502   5.398  0.3529  0.6323 -0.4515
 2496TIP3    H228980   4.429   0.581   5.366 -0.2293 -0.2589 -0.4279
 2497TIP3   OH228981   6.536   1.843   4.465  0.3741  0.9628  0.6692
 2497TIP3    H128982   6.470   1.883   4.521  0.0613  0.3280  0.7711
 2497TIP3    H228983   6.487   1.778   4.414  1.0489 -0.1664  1.3926
 2498TIP3   OH228984   1.711   6.590  15.412  0.2116  0.3531  0.3685
 2498TIP3    H128985   1.733   6.657  15.347  1.3883  0.4782  0.8726
 2498TIP3    H228986   1.664   6.524  15.362 -0.9755  1.5367 -0.1412
 2499TIP3   OH228987   0.994   4.588  15.714 -0.4694 -0.5673 -0.4181
 2499TIP3    H128988   1.039   4.659  15.759 -0.9466 -0.8192  0.4743
 2499TIP3    H228989   1.060   4.549  15.657  0.7082 -1.5028  1.5078
 2500TIP3   OH228990   0.330   1.324  16.855  0.5554 -0.5061  0.7619
 2500TIP3    H128991   0.375   1.251  16.899  0.8980 -0.7249  0.0631
 2500TIP3    H228992   0.259   1.282  16.807 -0.6276 -0.1299  2.1146
 2501TIP3   OH228993   3.139   0.522   0.986  0.1521 -0.3033  0.1048
 2501TIP3    H128994   3.107   0.450   0.932 -0.0995 -0.5221  0.5390
 2501TIP3    H228995   3.096   0.510   1.070  1.4632 -0.6807  0.7594
 2502TIP3   OH228996   5.429   3.651   2.911  0.0169 -0.0523 -0.7903
 2502TIP3    H128997   5.364   3.659   2.981  1.4576 -0.4497  0.6545
 2502TIP3    H228998   5.458   3.741   2.895  0.0424 -0.0114 -0.5169
 2503TIP3   OH228999   5.056   1.062   3.128  0.8133  0.2331 -0.8356
 2503TIP3    H129000   5.093   0.981   3.093 -1.3285 -1.4715  0.5314
 2503TIP3    H229001   5.003   1.098   3.057  0.7166 -0.3186 -1.0483
 2504TIP3   OH229002   1.793   6.793  11.476  0.6595  0.2960 -0.1421
 2504TIP3    H129003   1.752   6.877  11.455 -0.0917  0.1001  0.5031
 2504TIP3    H229004   1.723   6.741  11.513  0.8062 -1.0840 -1.7078
 2505TIP3   OH229005   5.944   0.772   2.474  0.4774 -0.1713 -0.2132
 2505TIP3    H129006   5.979   0.798   2.389 -0.0176 -1.1561 -0.7344
 2505TIP3    H229007   5.858   0.812   2.478  0.7988  0.4943  0.1550
 2506TIP3   OH229008   4.927   4.423   1.447 -0.2609 -0.2057  0.1741
 2506TIP3    H129009   4.940   4.365   1.523  1.7599 -0.0939 -0.0355
 2506TIP3    H229010   4.944   4.511   1.481 -0.9252  0.0152 -0.0595
 2507TIP3   OH229011   1.820   1.885  11.173 -0.1756  0.7186 -0.1557
 2507TIP3    H129012   1.752   1.818  11.167 -0.3808  0.9508 -0.5156
 2507TIP3    H229013   1.900   1.841  11.144 -0.1444  0.4115  0.3831
 2508TIP3   OH229014   4.872   1.780   4.926 -0.4504 -0.0363  0.5893
 2508TIP3    H129015   4.789   1.788   4.880 -1.2615  0.2407  2.0497
 2508TIP3    H229016   4.901   1.870   4.940 -0.2137 -0.1165  0.6237
 2509TIP3   OH229017   5.615   2.674  16.795  0.4113  0.1276 -0.4907
 2509TIP3    H129018   5.653   2.587  16.786 -1.7160 -1.0772  1.1913
 2509TIP3    H229019   5.654   2.709  16.876  0.6677  0.4140 -0.7367
 2510TIP3   OH229020   0.450   3.865  14.586 -0.6448 -0.1703 -0.3724
 2510TIP3    H129021   0.472   3.957  14.570  0.1397  0.2437  2.5530
 2510TIP3    H229022   0.523   3.817  14.547 -0.0381  0.5803 -0.2006
 2511TIP3   OH229023   1.543   2.397   1.178  0.0473  0.2065 -0.0936
 2511TIP3    H129024   1.630   2.411   1.216  0.3721 -0.7875 -0.4423
 2511TIP3    H229025   1.489   2.466   1.216  0.9801  0.8095  0.1592
 2512TIP3   OH229026   5.423   4.543   4.134  0.2285 -0.1569  0.4488
 2512TIP3    H129027   5.370   4.605   4.185 -2.3269 -1.1640 -0.7901
 2512TIP3    H229028   5.400   4.561   4.043  0.9869 -1.5761 -0.0473
 2513TIP3   OH229029   1.930   4.885   5.174  0.1555  0.3087  0.0731
 2513TIP3    H129030   2.025   4.900   5.178  0.0476  0.8643  0.5421
 2513TIP3    H229031   1.903   4.875   5.265 -0.0003 -1.4226 -0.1275
 2514TIP3   OH229032   6.414   6.798  16.759  0.2711  0.2929 -0.2539
 2514TIP3    H129033   6.388   6.713  16.723  0.4442 -0.7679  1.9684
 2514TIP3    H229034   6.335   6.851  16.756 -0.2447 -0.4651 -0.2126
 2515TIP3   OH229035   0.771   0.187  13.551 -0.1449  0.5899  0.7958
 2515TIP3    H129036   0.770   0.108  13.604 -0.2597  0.3823  0.4804
 2515TIP3    H229037   0.691   0.234  13.576 -0.5115  0.2032  0.3696
 2516TIP3   OH229038   3.336   5.576   3.446 -0.0868 -0.3734  0.8737
 2516TIP3    H129039   3.310   5.491   3.412  3.7685 -1.2980 -0.2739
 2516TIP3    H229040   3.416   5.598   3.398 -1.4325  4.5027  0.2618
 2517TIP3   OH229041   6.316   0.090   0.618 -0.2317  0.2169 -0.3058
 2517TIP3    H129042   6.274   0.053   0.540 -0.1843  0.7022 -0.5671
 2517TIP3    H229043   6.252   0.152   0.652 -0.6167 -0.6402  0.5607
 2518TIP3   OH229044   0.824   6.702  13.262  0.0456  0.0532 -0.1638
 2518TIP3    H129045   0.859   6.624  13.306 -1.4288  0.2499  1.4810
 2518TIP3    H229046   0.902   6.754  13.241  0.8820 -0.0604  2.2800
 2519TIP3   OH229047   4.614   5.936  14.655  0.3192 -0.1932  0.2579
 2519TIP3    H129048   4.611   5.945  14.750  2.2078  0.8895  0.2676
 2519TIP3    H229049   4.707   5.938  14.633 -0.0794 -0.2489 -1.6311
 2520TIP3   OH229050   5.875   2.881  13.194 -0.0905 -0.1575  0.3135
 2520TIP3    H129051   5.841   2.880  13.105  1.3623  1.5767 -0.3375
 2520TIP3    H229052   5.845   2.799  13.233  0.7838 -1.8986 -2.3819
 2521TIP3   OH229053   2.544   6.239   4.187 -0.0153 -0.5015 -0.0169
 2521TIP3    H129054   2.617   6.178   4.179  0.1769 -0.4673  1.3171
 2521TIP3    H229055   2.538   6.281   4.101  2.7746  0.8750  0.3553
 2522TIP3   OH229056   5.211   4.378   2.461 -0.5690  0.0609 -0.6032
 2522TIP3    H129057   5.252   4.460   2.490  0.2609  0.0466 -1.6701
 2522TIP3    H229058   5.243   4.312   2.523 -1.6195  0.6106  0.5456
 2523TIP3   OH229059   4.312   4.004   3.265 -0.0484 -0.5142 -0.4081
 2523TIP3    H129060   4.355   3.922   3.241  0.3654 -0.7081  0.9236
 2523TIP3    H229061   4.331   4.015   3.358  0.2468  1.2973 -0.6388
 2524TIP3   OH229062   2.171   1.935   4.477 -0.5757 -0.4000 -0.1425
 2524TIP3    H129063   2.214   1.851   4.462 -1.7559 -1.5329  2.3526
 2524TIP3    H229064   2.078   1.917   4.463 -0.7405  0.8243 -0.7852
 2525TIP3   OH229065   0.478   2.685   0.249  0.1666 -0.1355 -0.4275
 2525TIP3    H129066   0.505   2.593   0.246 -1.0759 -0.5326 -0.4008
 2525TIP3    H229067   0.450   2.698   0.340 -0.8605 -0.1146 -0.7321
 2526TIP3   OH229068   0.477   2.123  16.395 -0.0172  0.4472  0.7522
 2526TIP3    H129069   0.428   2.181  16.452 -2.5200 -0.9452  0.1619
 2526TIP3    H229070   0.413   2.058  16.366  1.5353  0.1078 -2.2993
 2527TIP3   OH229071   4.459   4.004  13.685  0.2207  0.3135 -0.4870
 2527TIP3    H129072   4.488   4.075  13.742  0.8401  0.9487 -1.5693
 2527TIP3    H229073   4.382   4.038  13.641  0.2759  0.1684 -0.6987
 2528TIP3   OH229074   3.766   4.896   2.005 -0.2322  0.0321  0.1433
 2528TIP3    H129075   3.705   4.968   2.017 -0.2090  0.1939 -0.6758
 2528TIP3    H229076   3.769   4.881   1.911 -0.0229 -0.8584  0.2775
 2529TIP3   OH229077   1.044   6.100  11.136  0.9515 -0.0578  0.0833
 2529TIP3    H129078   1.050   6.116  11.230  1.9952  1.0832 -0.1408
 2529TIP3    H229079   0.970   6.155  11.107 -0.2826 -1.4721  0.4047
 2530TIP3   OH229080   6.688   1.402  14.250 -0.1309 -0.4184  0.0560
 2530TIP3    H129081   6.761   1.396  14.311 -0.4977  0.1775  0.5675
 2530TIP3    H229082   6.653   1.313  14.246  1.0047 -0.8382 -0.6886
 2531TIP3   OH229083   6.238   6.677   3.542 -0.1222  0.0481  0.4986
 2531TIP3    H129084   6.257   6.770   3.529 -1.1125  0.2946  0.7713
 2531TIP3    H229085   6.146   6.674   3.566  0.1057 -0.9378  1.3198
 2532TIP3   OH229086   6.620   0.024   1.344 -0.3677 -0.2290  0.2712
 2532TIP3    H129087   6.686   0.068   1.291  0.0834  0.7409  1.5866
 2532TIP3    H229088   6.548   0.006   1.284  0.8401 -0.7872 -1.0604
 2533TIP3   OH229089   5.501   5.756  17.202 -0.9637 -0.1435  0.5227
 2533TIP3    H129090   5.511   5.666  17.233 -0.5526 -0.1196  0.4611
 2533TIP3    H229091   5.482   5.807  17.281 -0.2305 -0.1334  0.7016
 2534TIP3   OH229092   3.428   2.806  16.014  0.4815 -1.0686  0.6424
 2534TIP3    H129093   3.352   2.751  16.030  0.3063 -1.2819 -0.8084
 2534TIP3    H229094   3.437   2.807  15.919  0.9383  0.7900  0.6716
 2535TIP3   OH229095   6.119   4.287  17.225 -0.3761  0.3180 -0.1074
 2535TIP3    H129096   6.115   4.279  17.130 -0.4015 -2.5977  0.0568
 2535TIP3    H229097   6.062   4.218  17.257 -1.1424  1.8689  2.0629
 2536TIP3   OH229098   3.316   6.274  15.971  0.5128  0.4474 -0.5507
 2536TIP3    H129099   3.382   6.326  16.018  0.4040  0.4828 -0.4373
 2536TIP3    H229100   3.289   6.207  16.034  0.6958  0.2166 -0.7167
 2537TIP3   OH229101   1.685   3.936   1.005  0.0566 -0.0639 -0.2795
 2537TIP3    H129102   1.663   3.843   1.007 -1.0675  0.1828  2.4393
 2537TIP3    H229103   1.765   3.943   1.057 -1.8488  0.8336  2.7477
 2538TIP3   OH229104   2.231   0.595   4.857 -0.0193  0.0490 -0.0663
 2538TIP3    H129105   2.316   0.637   4.847  0.7083 -1.4665 -0.5964
 2538TIP3    H229106   2.169   0.668   4.862  1.0756  1.1889 -1.7406
 2539TIP3   OH229107   4.553   5.995  11.948  0.3462 -0.0960 -0.1181
 2539TIP3    H129108   4.458   5.991  11.942  0.2901  1.2802 -0.3837
 2539TIP3    H229109   4.572   5.988  12.042  0.0250 -0.8852 -0.1060
 2540TIP3   OH229110   2.718   1.880   0.223 -1.3720  0.1026  0.0248
 2540TIP3    H129111   2.791   1.931   0.189 -0.7913  0.6261  1.9538
 2540TIP3    H229112   2.662   1.943   0.267 -1.3050 -0.7080  1.3439
 2541TIP3   OH229113   5.181   2.686  16.703  0.8999 -0.2986  0.1612
 2541TIP3    H129114   5.149   2.700  16.792 -0.0356 -3.0983  0.3749
 2541TIP3    H229115   5.110   2.720  16.647  0.4266 -0.6629  0.5328
 2542TIP3   OH229116   0.267   6.779  13.814  0.1640 -0.2220 -0.4695
 2542TIP3    H129117   0.327   6.714  13.851 -1.7928 -0.9209  1.6618
 2542TIP3    H229118   0.276   6.768  13.719  0.9950 -2.5770 -0.1886
 2543TIP3   OH229119   0.240   0.644  16.709  0.1271 -0.1355 -0.7597
 2543TIP3    H129120   0.243   0.552  16.681  0.8255 -0.1519 -0.6586
 2543TIP3    H229121   0.192   0.642  16.792 -0.3953 -0.3268 -1.0646
 2544TIP3   OH229122   4.468   2.807  11.640  0.3309  0.3457 -0.3595
 2544TIP3    H129123   4.526   2.837  11.570  0.6648 -0.5560 -0.4859
 2544TIP3    H229124   4.382   2.844  11.618  0.4869  0.2831 -1.1042
 2545TIP3   OH229125   2.639   4.648   3.756 -0.3677 -0.2402  0.0466
 2545TIP3    H129126   2.679   4.710   3.696  1.6895 -1.2728  0.2614
 2545TIP3    H229127   2.608   4.701   3.829 -1.1272  0.8022 -0.9894
 2546TIP3   OH229128   6.145   1.143  12.211 -0.0306  0.4023 -0.2697
 2546TIP3    H129129   6.205   1.195  12.264 -1.4206  0.8133  0.9766
 2546TIP3    H229130   6.118   1.072  12.269  0.7011 -0.9099 -1.4616
 2547TIP3   OH229131   2.445   4.082   3.903  0.4729  0.3602  0.3491
 2547TIP3    H129132   2.465   4.127   3.985  1.3659  0.8036 -0.1026
 2547TIP3    H229133   2.501   4.124   3.838  1.4192 -1.4812 -0.0844
 2548TIP3   OH229134   6.755   4.855  13.550 -0.3853  0.3372  0.1673
 2548TIP3    H129135   6.679   4.909  13.573  0.0333 -0.1225  2.8987
 2548TIP3    H229136   6.828   4.896  13.596  0.7445 -0.1524 -1.1394
 2549TIP3   OH229137   5.530   4.545  13.261 -0.1092  0.7117  0.7192
 2549TIP3    H129138   5.599   4.496  13.306 -0.2319  0.5169  0.6950
 2549TIP3    H229139   5.449   4.499  13.283 -0.0586 -0.0663 -0.6173
 2550TIP3   OH229140   3.705   6.670  11.244  0.3587  0.0862 -0.4411
 2550TIP3    H129141   3.760   6.730  11.193 -0.5153 -0.3298 -1.9369
 2550TIP3    H229142   3.618   6.677  11.204 -0.2670 -0.5864  0.7413
 2551TIP3   OH229143   6.618   6.044   3.943 -0.3229  0.4049 -0.1178
 2551TIP3    H129144   6.698   6.069   3.989 -1.2964 -0.1801  2.0373
 2551TIP3    H229145   6.596   6.121   3.891  1.1031  0.9383  0.0111
 2552TIP3   OH229146   0.442   1.190   4.722  0.0222 -0.1937 -0.1814
 2552TIP3    H129147   0.437   1.199   4.627 -1.0366 -1.7481 -0.3043
 2552TIP3    H229148   0.501   1.261   4.750  1.2582 -0.4163 -2.0853
 2553TIP3   OH229149   0.729   3.166  11.152  0.1908 -0.3484  0.1090
 2553TIP3    H129150   0.734   3.098  11.219  0.5468  0.1983  0.6442
 2553TIP3    H229151   0.681   3.125  11.080  0.0564 -1.0354  0.5811
 2554TIP3   OH229152   2.654   5.814  12.177 -0.0016  0.1235  0.3265
 2554TIP3    H129153   2.726   5.773  12.130 -2.0107 -0.8129 -2.2145
 2554TIP3    H229154   2.625   5.747  12.239  0.1865 -0.1889  0.0796
 2555TIP3   OH229155   4.165   5.975  13.048 -0.1557  0.5190  0.1966
 2555TIP3    H129156   4.085   5.923  13.044 -0.1942  0.4705  1.2412
 2555TIP3    H229157   4.158   6.037  12.975 -1.7570  1.3856  1.0327
 2556TIP3   OH229158   5.919   1.802   6.808  0.2805 -0.0719  0.2441
 2556TIP3    H129159   5.905   1.890   6.843 -1.0792 -0.0868 -0.2321
 2556TIP3    H229160   5.831   1.766   6.796  0.6784 -0.3429 -2.4615
 2557TIP3   OH229161   1.960   3.812  12.131 -0.5841  0.0260  0.0034
 2557TIP3    H129162   1.967   3.738  12.071  1.6627  1.5570 -1.8258
 2557TIP3    H229163   1.871   3.844  12.119 -1.0045 -1.2930 -0.5479
 2558TIP3   OH229164   3.600   4.062   3.965  0.5860 -0.2277  0.2839
 2558TIP3    H129165   3.663   4.135   3.970  0.7762 -0.4237  0.8514
 2558TIP3    H229166   3.643   3.991   4.012 -0.3239 -0.1658  1.2234
 2559TIP3   OH229167   0.306   0.721   3.554 -0.0954  0.4239 -0.2597
 2559TIP3    H129168   0.399   0.741   3.569 -0.1300  0.4877 -0.1220
 2559TIP3    H229169   0.283   0.663   3.626 -0.6202  1.8167  0.7593
 2560TIP3   OH229170   2.046   2.718   1.774 -0.0761  0.3254 -0.3372
 2560TIP3    H129171   2.029   2.688   1.863  2.9527 -0.3770  0.1167
 2560TIP3    H229172   1.990   2.663   1.719 -0.5194 -0.6288  1.0028
 2561TIP3   OH229173   3.591   4.332  15.407  0.0722 -0.0933  0.2213
 2561TIP3    H129174   3.513   4.309  15.457 -1.2146  1.3005 -1.0512
 2561TIP3    H229175   3.664   4.298  15.459 -1.4093 -3.0734  0.5668
 2562TIP3   OH229176   6.817   0.296   5.826 -0.1861  0.2323  0.1774
 2562TIP3    H129177   6.788   0.228   5.887 -1.3135 -0.5685 -1.1922
 2562TIP3    H229178   6.898   0.262   5.789 -0.9951 -0.6419 -0.8610
 2563TIP3   OH229179   5.546   6.188  15.392  0.1438  0.2036 -0.0513
 2563TIP3    H129180   5.546   6.283  15.384  2.6029  0.2229 -0.5142
 2563TIP3    H229181   5.579   6.158  15.307 -2.2943 -1.1989 -0.5942
 2564TIP3   OH229182   1.091   1.991  16.706 -0.3659 -0.5150  0.2482
 2564TIP3    H129183   1.132   1.918  16.659 -1.6845 -0.9192 -0.3067
 2564TIP3    H229184   1.020   2.020  16.649 -0.2436  0.8264  0.7367
 2565TIP3   OH229185   1.686   2.523  12.807  0.2872 -0.3238  0.0602
 2565TIP3    H129186   1.651   2.610  12.786  2.9417  1.7766  3.3087
 2565TIP3    H229187   1.613   2.463  12.789 -2.6342  2.8550  0.1814
 2566TIP3   OH229188   2.091   6.471   1.221 -0.1711  0.7123  0.2587
 2566TIP3    H129189   2.156   6.468   1.151  0.6149  0.7522  0.9708
 2566TIP3    H229190   2.044   6.389   1.213 -1.0388  1.3222 -1.1910
 2567TIP3   OH229191   3.763   4.413  13.248  0.0870 -0.2991 -0.3376
 2567TIP3    H129192   3.690   4.476  13.244  0.6916  0.3584 -2.4615
 2567TIP3    H229193   3.731   4.343  13.305 -0.5696  1.9394  2.2369
 2568TIP3   OH229194   3.073   3.524  13.500 -0.0166  0.4437  0.3063
 2568TIP3    H129195   3.075   3.542  13.406  0.5737 -0.2931  0.1628
 2568TIP3    H229196   3.070   3.610  13.541 -0.3964  0.7699 -0.3870
 2569TIP3   OH229197   1.716   0.298   2.909 -0.0580 -0.6153 -0.7928
 2569TIP3    H129198   1.765   0.308   2.991 -0.4643  1.2049 -0.7401
 2569TIP3    H229199   1.634   0.258   2.935 -0.3540  0.3288 -0.2210
 2570TIP3   OH229200   6.620   2.934   6.005  0.2751 -0.2924  0.8415
 2570TIP3    H129201   6.628   2.991   6.082  0.6805  0.0636  0.5358
 2570TIP3    H229202   6.709   2.925   5.972 -0.0508  0.6073 -0.3480
 2571TIP3   OH229203   3.353   0.402   2.345 -0.2579  0.3841  0.0227
 2571TIP3    H129204   3.401   0.346   2.285 -2.8797  0.1929 -2.0725
 2571TIP3    H229205   3.284   0.347   2.380 -1.0712  1.5161  0.2576
 2572TIP3   OH229206   4.527   0.151   2.210 -0.4248 -0.0939  0.2930
 2572TIP3    H129207   4.570   0.110   2.284 -2.6950  0.0438  1.7808
 2572TIP3    H229208   4.461   0.087   2.181 -2.3857  1.4432  1.1304
 2573TIP3   OH229209   4.933   6.315   2.998  0.3994  0.0502  0.4587
 2573TIP3    H129210   4.960   6.237   2.950  0.1106 -0.5971  1.3243
 2573TIP3    H229211   4.852   6.289   3.043  0.6237  0.6588  1.2439
 2574TIP3   OH229212   4.752   3.718  11.992 -0.0145  0.0692  0.5622
 2574TIP3    H129213   4.841   3.742  11.965 -0.4450  0.0654 -0.9987
 2574TIP3    H229214   4.713   3.678  11.914 -1.3254 -0.1118  1.2690
 2575TIP3   OH229215   1.144   5.839  11.226  0.2699  0.1892  0.6741
 2575TIP3    H129216   1.146   5.805  11.315 -1.7945  2.3604  1.6741
 2575TIP3    H229217   1.094   5.920  11.233  0.7928  0.8839 -2.3399
 2576TIP3   OH229218   2.128   1.503   1.786  0.0298 -0.0605  0.3543
 2576TIP3    H129219   2.085   1.497   1.701  0.6428 -3.0434  0.1755
 2576TIP3    H229220   2.163   1.592   1.788 -0.7807  0.3960 -2.0903
 2577TIP3   OH229221   4.857   2.356  13.500 -0.2250 -0.7538  0.4669
 2577TIP3    H129222   4.830   2.447  13.494  0.4466 -0.3320  3.0811
 2577TIP3    H229223   4.827   2.317  13.417 -2.2733  1.3447  0.1256
 2578TIP3   OH229224   1.764   5.376   4.368  0.2342 -0.2416  0.4069
 2578TIP3    H129225   1.756   5.281   4.379  1.2340 -0.4346 -0.3131
 2578TIP3    H229226   1.847   5.398   4.410  1.4031 -0.1588 -1.8078
 2579TIP3   OH229227   0.719   1.236  13.367  0.0794  0.2003  0.5911
 2579TIP3    H129228   0.637   1.202  13.403 -0.1554  0.5309  0.3721
 2579TIP3    H229229   0.776   1.246  13.443  0.3970 -1.3195  0.5980
 2580TIP3   OH229230   0.962   5.165  16.523 -0.1599 -0.1383 -0.3699
 2580TIP3    H129231   0.944   5.073  16.503 -1.2684 -0.2421  0.9562
 2580TIP3    H229232   1.034   5.163  16.586 -1.0888 -0.1957  0.7139
 2581TIP3   OH229233   1.803   2.624  11.754 -0.1341  0.5887 -0.1182
 2581TIP3    H129234   1.887   2.609  11.796 -0.2275 -0.3627 -0.2659
 2581TIP3    H229235   1.819   2.609  11.661 -1.2223 -3.2207  0.1645
 2582TIP3   OH229236   4.244   3.961   1.746 -0.9597 -0.0892  0.2332
 2582TIP3    H129237   4.223   3.947   1.654  2.0286 -0.9516 -0.4341
 2582TIP3    H229238   4.210   3.883   1.790 -1.5839 -0.1193 -0.2914
 2583TIP3   OH229239   6.663   3.100  16.250  0.4714 -0.0629  0.7021
 2583TIP3    H129240   6.681   3.091  16.157  2.2131 -0.8949  1.0715
 2583TIP3    H229241   6.671   3.193  16.267  0.3668  0.0672  0.0577
 2584TIP3   OH229242   0.200   5.045  11.622  0.4372 -0.2926  0.4805
 2584TIP3    H129243   0.251   5.112  11.668 -1.1126  2.1681 -1.1389
 2584TIP3    H229244   0.264   4.978  11.600  2.6350  1.7624  0.1202
 2585TIP3   OH229245   1.170   3.150   4.639 -0.3779  0.1938 -0.2005
 2585TIP3    H129246   1.206   3.077   4.690  1.5252 -0.7724 -2.7285
 2585TIP3    H229247   1.138   3.212   4.705  0.2017 -1.7920  2.0842
 2586TIP3   OH229248   6.131   5.313   1.354  0.4351 -0.1305  0.0720
 2586TIP3    H129249   6.185   5.256   1.300  0.8486  0.2058  0.1278
 2586TIP3    H229250   6.055   5.333   1.300  0.7107 -0.0241 -0.2727
 2587TIP3   OH229251   6.636   4.549   4.456  0.2519 -0.5549 -0.0625
 2587TIP3    H129252   6.553   4.571   4.498  0.4355  0.7813 -0.3493
 2587TIP3    H229253   6.615   4.477   4.396 -1.0602  0.8140 -1.3204
 2588TIP3   OH229254   4.238   1.156   0.477 -0.4151 -0.3092  0.0050
 2588TIP3    H129255   4.148   1.146   0.507 -1.3329  3.0705 -1.0691
 2588TIP3    H229256   4.234   1.141   0.383 -0.2937  1.4116 -0.3208
 2589TIP3   OH229257   2.171   6.136   0.426  0.3910 -0.3318  0.6437
 2589TIP3    H129258   2.102   6.149   0.491 -1.7852  1.3038 -1.7915
 2589TIP3    H229259   2.151   6.053   0.385  0.8223 -0.6004  0.9671
 2590TIP3   OH229260   5.404   5.530   5.418  0.9384 -0.9578 -0.4385
 2590TIP3    H129261   5.351   5.465   5.373  1.8374 -2.2964  0.3878
 2590TIP3    H229262   5.433   5.487   5.497  0.8577  0.7534  0.5812
 2591TIP3   OH229263   0.040   1.465   6.153  0.3479  0.7377  0.6192
 2591TIP3    H129264   0.026   1.378   6.192 -2.6620 -0.1764 -2.0270
 2591TIP3    H229265   0.119   1.455   6.099  0.3115 -0.2238  0.7242
 2592TIP3   OH229266   5.822   0.330  12.273  0.3396 -0.5425  0.1727
 2592TIP3    H129267   5.798   0.275  12.348  2.7551 -1.1726  0.5841
 2592TIP3    H229268   5.859   0.269  12.209 -0.4864  0.1582 -1.0061
 2593TIP3   OH229269   5.084   4.754  14.600  0.4515  0.0962  0.0682
 2593TIP3    H129270   5.055   4.817  14.666  2.2571 -0.2503  1.2655
 2593TIP3    H229271   5.007   4.741  14.544 -0.2962  2.5137  0.4112
 2594TIP3   OH229272   6.119   2.906   0.710 -0.3105  0.1533 -0.4286
 2594TIP3    H129273   6.168   2.980   0.676  1.7627 -0.6848  0.5721
 2594TIP3    H229274   6.185   2.838   0.724 -1.7933 -1.1132  0.7656
 2595TIP3   OH229275   3.892   1.142  15.223 -0.4339 -0.2601  0.5893
 2595TIP3    H129276   3.826   1.074  15.208  0.0389 -0.6096  0.0475
 2595TIP3    H229277   3.855   1.196  15.293  0.5835 -2.9389  3.3963
 2596TIP3   OH229278   5.200   4.103  16.131 -0.7865  0.0859 -0.2916
 2596TIP3    H129279   5.194   4.008  16.138 -0.1914  0.1541  1.8088
 2596TIP3    H229280   5.290   4.123  16.156 -1.0439  1.2405 -0.2519
 2597TIP3   OH229281   4.842   6.502   1.163  0.1550  0.2500  0.0428
 2597TIP3    H129282   4.847   6.527   1.256  1.1305  1.6746 -0.3620
 2597TIP3    H229283   4.927   6.527   1.128 -0.8366  1.4279 -1.6428
 2598TIP3   OH229284   6.288   0.364  15.426  0.2311 -0.8676 -0.5438
 2598TIP3    H129285   6.307   0.399  15.339  1.4060 -0.8748 -0.3089
 2598TIP3    H229286   6.329   0.277  15.426 -2.5588 -2.3281 -1.0969
 2599TIP3   OH229287   4.173   1.934  16.158 -0.0882  0.1268 -0.0807
 2599TIP3    H129288   4.109   1.995  16.195 -0.7492 -1.6943  2.0273
 2599TIP3    H229289   4.123   1.884  16.092 -0.3106  0.0137  0.1709
 2600TIP3   OH229290   6.316   3.440   6.018 -0.1770 -0.3468 -0.7222
 2600TIP3    H129291   6.254   3.480   6.079  1.4601 -1.1321  1.6142
 2600TIP3    H229292   6.351   3.513   5.967  0.2052  0.7615  1.0463
 2601TIP3   OH229293   2.852   5.678   3.187 -0.3536 -0.1809 -0.1028
 2601TIP3    H129294   2.847   5.752   3.126 -1.0687  0.1396  0.3327
 2601TIP3    H229295   2.893   5.608   3.136  0.1766  0.4555 -0.5727
 2602TIP3   OH229296   4.736   1.621  12.591  0.3614  0.5185  0.3332
 2602TIP3    H129297   4.666   1.684  12.577  0.1275 -0.0701 -1.3604
 2602TIP3    H229298   4.810   1.673  12.622 -0.6186  1.2207  1.6021
 2603TIP3   OH229299   3.451   4.874   0.923 -0.1099  0.1923  0.2349
 2603TIP3    H129300   3.424   4.801   0.868  0.2986  0.8302 -0.8565
 2603TIP3    H229301   3.370   4.917   0.948 -0.3353 -0.4820  0.6893
 2604TIP3   OH229302   4.312   1.437   4.487  0.0832  0.4095  0.4335
 2604TIP3    H129303   4.373   1.465   4.419  0.3074  1.1891  0.9410
 2604TIP3    H229304   4.296   1.516   4.539 -0.6805  0.0082  0.8269
 2605TIP3   OH229305   5.849   2.272  12.820  0.4870 -0.2273 -0.2227
 2605TIP3    H129306   5.881   2.361  12.832 -0.9709 -0.0024  3.0229
 2605TIP3    H229307   5.756   2.283  12.800  0.8239 -1.0290 -2.5152
 2606TIP3   OH229308   6.008   3.549   2.956  0.2584  0.2129  0.0946
 2606TIP3    H129309   6.005   3.643   2.976  1.2741  0.2381  0.1952
 2606TIP3    H229310   6.005   3.546   2.860 -2.1949  0.2078  0.1233
 2607TIP3   OH229311   2.998   4.832   5.330  0.2785 -0.1413  0.5953
 2607TIP3    H129312   3.021   4.923   5.313 -2.4399  0.7718  1.2730
 2607TIP3    H229313   2.953   4.834   5.415  0.0884 -2.0871  0.5812
 2608TIP3   OH229314   6.296   2.708   0.734  0.1154 -0.6821 -0.3354
 2608TIP3    H129315   6.354   2.677   0.664 -1.0866 -0.8806 -1.2741
 2608TIP3    H229316   6.292   2.636   0.796  2.9112  0.2833  1.1078
 2609TIP3   OH229317   2.763   5.847   1.114  0.2673  0.0425 -0.2648
 2609TIP3    H129318   2.819   5.925   1.120 -0.3682  0.4507  0.5956
 2609TIP3    H229319   2.738   5.829   1.205 -2.3136  0.8718 -0.7249
 2610TIP3   OH229320   5.831   5.693   0.158 -0.1250 -0.1031 -0.7830
 2610TIP3    H129321   5.742   5.660   0.173 -0.3607  0.5676 -0.6583
 2610TIP3    H229322   5.883   5.615   0.138 -0.8076 -0.4631 -1.1753
 2611TIP3   OH229323   1.386   1.473   5.353  0.6371  0.4121  0.6036
 2611TIP3    H129324   1.444   1.487   5.279  0.3142  2.4441  0.6762
 2611TIP3    H229325   1.298   1.477   5.315  0.4636  1.6718  1.0868
 2612TIP3   OH229326   0.997   0.490  17.006  0.2466  0.1725  0.2775
 2612TIP3    H129327   1.016   0.401  17.038 -0.1099 -0.1017 -0.2540
 2612TIP3    H229328   1.081   0.535  17.011  0.3148 -0.0151  1.0925
 2613TIP3   OH229329   1.356   2.821  10.806  0.0884 -0.4255 -0.5846
 2613TIP3    H129330   1.385   2.763  10.736 -0.6349 -0.8889 -0.5194
 2613TIP3    H229331   1.280   2.776  10.844 -0.6320  0.6776 -0.6786
 2614TIP3   OH229332   0.837   0.161  11.495  0.5114  0.6361 -0.6169
 2614TIP3    H129333   0.869   0.197  11.578 -0.4006 -0.0988  0.0697
 2614TIP3    H229334   0.844   0.235  11.433 -1.1393  1.9884  0.7137
 2615TIP3   OH229335   3.406   0.929   0.106  0.3049  0.3780 -0.3549
 2615TIP3    H129336   3.404   0.837   0.132  0.4939  0.5661  0.3299
 2615TIP3    H229337   3.394   0.978   0.187  1.2698  0.9850 -0.5576
 2616TIP3   OH229338   1.159   2.427  12.324 -0.2496  0.5468 -0.7211
 2616TIP3    H129339   1.104   2.348  12.322 -1.2539  1.2197 -2.0198
 2616TIP3    H229340   1.096   2.499  12.313  0.8829  1.3284 -2.6842
 2617TIP3   OH229341   6.399   4.671  17.070 -0.1601 -0.3633 -0.2349
 2617TIP3    H129342   6.363   4.746  17.023  0.6922  0.6407  0.6681
 2617TIP3    H229343   6.339   4.599  17.049 -0.3945  0.2925 -1.9760
 2618TIP3   OH229344   1.014   0.944   2.326  0.4430 -0.1846 -0.0449
 2618TIP3    H129345   1.050   0.900   2.403 -2.1358 -1.8334  0.3224
 2618TIP3    H229346   0.996   0.873   2.265 -0.2014  0.8156 -1.0416
 2619TIP3   OH229347   4.716   4.009  14.586 -0.4924  0.0762  0.2382
 2619TIP3    H129348   4.632   4.038  14.623 -1.0197  0.1044 -0.9395
 2619TIP3    H229349   4.781   4.039  14.649 -1.2577  1.2352  0.5122
 2620TIP3   OH229350   1.837   3.832   5.334 -0.4509 -0.0856 -0.6027
 2620TIP3    H129351   1.798   3.788   5.410 -0.3508  0.3425 -0.3024
 2620TIP3    H229352   1.874   3.760   5.282  2.7326 -0.2031  1.5283
 2621TIP3   OH229353   0.481   6.393  15.768  0.3875  0.1022 -0.1325
 2621TIP3    H129354   0.388   6.374  15.775 -0.6507  3.7669 -1.7379
 2621TIP3    H229355   0.485   6.482  15.735  4.5158  0.1289 -0.0744
 2622TIP3   OH229356   1.123   6.752  16.544 -0.0729 -0.2190 -0.3267
 2622TIP3    H129357   1.206   6.710  16.566  0.8136  1.2165 -0.7964
 2622TIP3    H229358   1.089   6.700  16.471 -0.1242 -1.4403  0.5430
 2623TIP3   OH229359   4.800   1.491  14.466  0.1687  0.2864  0.4461
 2623TIP3    H129360   4.777   1.541  14.388 -0.1264 -0.3929  0.0960
 2623TIP3    H229361   4.719   1.447  14.491  1.1178 -2.5855 -1.1202
 2624TIP3   OH229362   1.243   1.250   2.441 -0.2250 -0.1820  0.0369
 2624TIP3    H129363   1.227   1.225   2.532 -0.6436 -0.8852 -0.2204
 2624TIP3    H229364   1.335   1.230   2.426  0.4060  1.8443  0.8902
 2625TIP3   OH229365   6.546   3.255   5.790  0.0134 -0.1372 -0.2562
 2625TIP3    H129366   6.559   3.348   5.810  1.1352 -0.3093 -0.1253
 2625TIP3    H229367   6.500   3.221   5.867 -0.7988  0.3900 -0.4944
 2626TIP3   OH229368   3.237   4.995   0.205 -0.0371 -0.6803  0.0625
 2626TIP3    H129369   3.288   5.039   0.138 -1.6095  2.0321  0.5121
 2626TIP3    H229370   3.225   4.906   0.171  2.2525 -0.4952 -1.4734
 2627TIP3   OH229371   6.697   1.779  14.295  0.5524 -0.5268  0.1639
 2627TIP3    H129372   6.708   1.799  14.202  1.7519  1.1739  0.6101
 2627TIP3    H229373   6.776   1.730  14.319  1.6112  1.3714  0.8096
 2628TIP3   OH229374   2.189   5.527  15.043  0.7855 -0.3755 -0.1500
 2628TIP3    H129375   2.116   5.471  15.017  1.0371  0.7134 -3.6116
 2628TIP3    H229376   2.150   5.590  15.104 -0.7221 -0.9427 -0.4718
 2629TIP3   OH229377   1.161   5.947  14.251 -0.1801 -0.0233 -0.0150
 2629TIP3    H129378   1.146   6.039  14.228 -0.6934 -0.2579 -0.6378
 2629TIP3    H229379   1.074   5.911  14.266  0.0632 -0.2208  1.0119
 2630TIP3   OH229380   1.116   6.138  13.108 -0.0876 -0.2130  0.0027
 2630TIP3    H129381   1.131   6.060  13.054 -1.6001  1.3103 -2.8732
 2630TIP3    H229382   1.199   6.152  13.154  0.9198 -2.2826 -1.0543
 2631TIP3   OH229383   2.789   3.453  14.004  0.2492  0.0007 -0.4748
 2631TIP3    H129384   2.701   3.479  14.033  0.5860  1.6778 -0.8322
 2631TIP3    H229385   2.843   3.461  14.082  0.3490  0.4068 -0.5803
 2632TIP3   OH229386   1.384   3.829   6.730 -0.0882  0.0055  0.2853
 2632TIP3    H129387   1.321   3.770   6.770 -0.4706  0.0625 -0.2168
 2632TIP3    H229388   1.331   3.887   6.674 -0.1765  2.9849  3.1654
 2633TIP3   OH229389   0.327   6.586   5.486 -0.1481  0.4637  0.5656
 2633TIP3    H129390   0.370   6.654   5.538  0.3126 -0.1720  1.0439
 2633TIP3    H229391   0.368   6.591   5.400 -0.9002  1.5110  0.2589
 2634TIP3   OH229392   4.933   1.895   3.862  0.2525  0.7120  0.3408
 2634TIP3    H129393   5.013   1.941   3.839  0.0747  1.0228  0.3407
 2634TIP3    H229394   4.863   1.946   3.821 -0.0238  0.9669  1.1107
 2635TIP3   OH229395   5.573   1.577  16.030 -0.1617  0.1363 -0.2086
 2635TIP3    H129396   5.643   1.618  16.080 -0.3505 -0.7493  0.8129
 2635TIP3    H229397   5.522   1.651  15.996  1.3862  0.7946 -1.1969
 2636TIP3   OH229398   0.515   2.724   5.338 -0.0000 -0.2115 -0.1302
 2636TIP3    H129399   0.480   2.641   5.371 -0.4678 -0.3901 -1.0507
 2636TIP3    H229400   0.438   2.775   5.314  0.2312  0.9042  1.3255
 2637TIP3   OH229401   0.441   1.266   4.456 -0.3727  0.0583  0.3007
 2637TIP3    H129402   0.508   1.228   4.400 -0.3476  0.0996  0.3029
 2637TIP3    H229403   0.359   1.252   4.409 -0.4013 -0.2747  0.4436
 2638TIP3   OH229404   5.111   2.270  13.503  0.7084  0.0352 -0.0048
 2638TIP3    H129405   5.030   2.265  13.553  0.6383 -2.8923 -0.2528
 2638TIP3    H229406   5.157   2.189  13.523  2.0610  0.1044 -2.4048
 2639TIP3   OH229407   3.449   5.192  12.830 -0.2971  0.1165 -0.0533
 2639TIP3    H129408   3.491   5.162  12.750  0.6322  2.2763 -0.4390
 2639TIP3    H229409   3.358   5.209  12.805 -0.4654 -0.9113 -0.1787
 2640TIP3   OH229410   3.567   4.401   0.259 -0.4050  0.3619 -0.3818
 2640TIP3    H129411   3.531   4.475   0.307 -1.1981 -0.6764  0.6838
 2640TIP3    H229412   3.587   4.336   0.326  1.0034 -0.1208 -1.2111
 2641TIP3   OH229413   6.457   4.411  16.471 -0.0436  0.0081  0.4185
 2641TIP3    H129414   6.502   4.495  16.458  1.1104 -0.9407 -2.6006
 2641TIP3    H229415   6.525   4.354  16.507  0.5261 -0.7165 -1.6570
 2642TIP3   OH229416   3.902   0.561   3.231 -0.4363 -0.3352  0.1937
 2642TIP3    H129417   3.822   0.580   3.280  0.8534  1.3947  1.7339
 2642TIP3    H229418   3.905   0.627   3.162  0.3533  0.5022  1.0131
 2643TIP3   OH229419   1.966   1.894   2.467 -0.5650 -0.6854  0.0059
 2643TIP3    H129420   1.972   1.971   2.410  1.8475  0.2892  1.4302
 2643TIP3    H229421   2.043   1.841   2.444 -0.4911 -1.1138  1.1595
 2644TIP3   OH229422   5.396   0.742   1.377  0.3092  0.1168 -0.3728
 2644TIP3    H129423   5.405   0.820   1.431 -0.1575 -0.7026  0.9349
 2644TIP3    H229424   5.484   0.726   1.342  1.2175 -0.6090  2.0152
 2645TIP3   OH229425   5.127   5.241   4.786  0.2772 -0.8222  0.7194
 2645TIP3    H129426   5.181   5.316   4.808  1.6324 -1.3043 -0.7238
 2645TIP3    H229427   5.051   5.247   4.844  0.9845  0.9126  1.5203
 2646TIP3   OH229428   6.606   3.015  12.149 -0.4238  0.4267 -0.2339
 2646TIP3    H129429   6.633   2.944  12.207 -0.5563  1.6986  1.4630
 2646TIP3    H229430   6.511   3.004  12.141 -0.6042  0.9926  0.8968
 2647TIP3   OH229431   0.591   2.003   4.709  0.1972 -0.1279 -0.1519
 2647TIP3    H129432   0.586   2.000   4.614 -0.2568 -0.6458 -0.1143
 2647TIP3    H229433   0.626   2.090   4.728 -0.0592  0.1181 -0.7771
 2648TIP3   OH229434   1.456   0.162  10.323 -0.4283 -0.8126  0.1495
 2648TIP3    H129435   1.537   0.128  10.285 -0.3810 -1.4156  0.7758
 2648TIP3    H229436   1.435   0.239  10.269  0.4284 -0.7831 -0.1624
 2649TIP3   OH229437   0.328   6.137  16.503  0.2115  0.3449 -0.4441
 2649TIP3    H129438   0.355   6.069  16.443  0.6022 -1.1787  1.3689
 2649TIP3    H229439   0.410   6.173  16.538 -0.0106  1.0697 -0.6450
 2650TIP3   OH229440   1.401   6.819  13.294 -0.2493  0.5959 -0.1134
 2650TIP3    H129441   1.394   6.762  13.371  2.4444 -0.5420 -0.5896
 2650TIP3    H229442   1.445   6.898  13.327 -0.8862  0.9761 -0.1424
 2651TIP3   OH229443   1.802   0.589  14.298  0.3707 -0.6065 -1.1301
 2651TIP3    H129444   1.772   0.663  14.352  2.2342 -1.6245  1.5167
 2651TIP3    H229445   1.730   0.526  14.301  0.1663 -0.3513 -0.3999
 2652TIP3   OH229446   3.903   3.130   2.268 -0.7716  0.1498 -0.2454
 2652TIP3    H129447   3.948   3.052   2.299  0.1675  0.8561  0.2429
 2652TIP3    H229448   3.850   3.101   2.194 -1.2272 -1.1317  0.5604
 2653TIP3   OH229449   4.418   1.036  16.176  0.5263 -0.6744  0.4480
 2653TIP3    H129450   4.461   1.006  16.256  1.7990 -3.0530 -1.0027
 2653TIP3    H229451   4.479   1.099  16.137  0.7670 -0.9305  0.4162
 2654TIP3   OH229452   5.318   5.248  16.048  0.0438 -0.4000  0.2330
 2654TIP3    H129453   5.284   5.168  16.089  1.0780 -0.4675  0.9864
 2654TIP3    H229454   5.388   5.217  15.991 -0.2953 -0.1301 -0.3421
 2655TIP3   OH229455   5.497   6.156  14.173 -0.2214  0.5080 -0.1362
 2655TIP3    H129456   5.513   6.191  14.261  3.3219 -0.8195 -0.0630
 2655TIP3    H229457   5.582   6.165  14.129 -1.4126 -0.5467 -2.8004
 2656TIP3   OH229458   6.662   5.127  16.915 -0.0805 -0.0523  0.7660
 2656TIP3    H129459   6.701   5.210  16.944 -0.7195  0.7741 -0.6038
 2656TIP3    H229460   6.715   5.100  16.840 -1.1086  0.2277 -0.0879
 2657TIP3   OH229461   5.799   5.147   2.017  0.3694  0.2230  0.2534
 2657TIP3    H129462   5.859   5.187   1.953  0.4807 -2.2721 -1.3919
 2657TIP3    H229463   5.763   5.071   1.970 -0.8133 -0.7953  2.6552
 2658TIP3   OH229464   3.171   4.296  16.556 -0.1205 -0.3697  0.3640
 2658TIP3    H129465   3.092   4.273  16.604 -1.2290 -1.5728 -1.8754
 2658TIP3    H229466   3.242   4.283  16.619 -1.5269 -0.9864  1.9042
 2659TIP3   OH229467   0.246   5.352  12.563 -0.0035 -0.5471  0.0873
 2659TIP3    H129468   0.151   5.347  12.555 -0.4304  3.4059  0.3080
 2659TIP3    H229469   0.263   5.339  12.656 -0.4013 -0.6067  0.1533
 2660TIP3   OH229470   1.143   5.084  13.340  0.3515 -0.1364  0.3370
 2660TIP3    H129471   1.067   5.028  13.352 -0.5378  0.3963 -2.1789
 2660TIP3    H229472   1.216   5.035  13.378 -1.0602 -1.0555  2.0081
 2661TIP3   OH229473   2.338   3.429   1.852 -0.4425  0.1192  0.3532
 2661TIP3    H129474   2.308   3.446   1.763  0.0845  0.4147  0.2289
 2661TIP3    H229475   2.428   3.400   1.842 -0.8740 -1.4183  0.6741
 2662TIP3   OH229476   6.553   0.894  10.942  0.2768  0.4784  0.1060
 2662TIP3    H129477   6.469   0.931  10.914  0.1858 -0.9644 -1.7426
 2662TIP3    H229478   6.604   0.888  10.861  1.5334 -0.2186  0.9206
 2663TIP3   OH229479   4.552   2.472   2.369  0.2555  0.1030  0.1911
 2663TIP3    H129480   4.474   2.524   2.384  0.0992  0.0767 -0.4774
 2663TIP3    H229481   4.552   2.456   2.275  0.2035 -1.2640  0.4102
 2664TIP3   OH229482   2.249   5.880  14.144 -0.2091  0.0518 -0.0179
 2664TIP3    H129483   2.158   5.907  14.154 -0.2227  0.2400 -0.5804
 2664TIP3    H229484   2.264   5.816  14.214 -0.8682 -0.2153 -0.1179
 2665TIP3   OH229485   5.272   0.784   4.691 -0.1377  0.2989  0.2192
 2665TIP3    H129486   5.334   0.780   4.618 -1.2860  0.6493 -0.8161
 2665TIP3    H229487   5.253   0.692   4.711 -0.0680  0.2021 -0.1534
 2666TIP3   OH229488   0.773   6.320  16.939 -0.1545 -0.3767  0.5841
 2666TIP3    H129489   0.810   6.318  16.851 -2.9539  0.0001 -0.7095
 2666TIP3    H229490   0.817   6.249  16.985  0.3949 -1.5221 -1.5568
 2667TIP3   OH229491   5.619   0.047  12.300  0.3817  0.1501  0.9170
 2667TIP3    H129492   5.688   0.012  12.243 -0.0804  1.9713 -0.8847
 2667TIP3    H229493   5.665   0.082  12.376  1.5508  1.6202 -0.3886
 2668TIP3   OH229494   6.189   4.386  15.783  0.0711  0.0798  0.4221
 2668TIP3    H129495   6.221   4.469  15.750 -0.1484  0.1002  0.2659
 2668TIP3    H229496   6.119   4.409  15.844  0.7791  0.0708  1.2702
 2669TIP3   OH229497   5.678   6.662  16.355  0.2971 -0.0132  0.1583
 2669TIP3    H129498   5.764   6.657  16.315  0.9341 -0.3263  1.5106
 2669TIP3    H229499   5.633   6.732  16.307  2.1410  1.8027  0.9507
 2670TIP3   OH229500   5.909   5.457  12.111  0.3657  0.1338  0.5780
 2670TIP3    H129501   5.995   5.474  12.150  0.8630 -0.4992 -0.2268
 2670TIP3    H229502   5.847   5.474  12.182  1.2633 -1.1654  1.7170
 2671TIP3   OH229503   1.675   3.939  14.776 -0.5889 -0.5265 -0.3453
 2671TIP3    H129504   1.607   3.998  14.809  0.9202  0.7359  0.6983
 2671TIP3    H229505   1.655   3.855  14.815 -1.5241 -0.1713 -0.0260
 2672TIP3   OH229506   5.103   5.126   4.539  0.1398  0.1742 -0.0806
 2672TIP3    H129507   5.083   5.126   4.632  0.4583  0.2014 -0.0132
 2672TIP3    H229508   5.076   5.213   4.509 -4.4418 -1.3078 -0.9806
 2673TIP3   OH229509   0.978   0.588  10.668  0.6820  0.2619  0.4387
 2673TIP3    H129510   1.064   0.552  10.691  0.6981  0.1006  0.1328
 2673TIP3    H229511   0.971   0.574  10.574  0.0308 -0.3575  0.5648
 2674TIP3   OH229512   4.092   1.331  11.422  0.1654  0.2936 -0.3921
 2674TIP3    H129513   4.065   1.324  11.331  0.8498 -2.0879 -0.4724
 2674TIP3    H229514   4.187   1.322  11.421  0.2943  1.2832  0.4911
 2675TIP3   OH229515   2.909   3.229   2.007 -0.0832  0.3046 -0.1995
 2675TIP3    H129516   2.931   3.273   2.089  2.3880  1.1602 -1.2332
 2675TIP3    H229517   2.823   3.189   2.023 -0.6300  2.1963  2.0808
 2676TIP3   OH229518   1.575   2.165   3.326  0.0628  0.1054 -0.6813
 2676TIP3    H129519   1.601   2.114   3.250  0.5572  0.5803 -0.8339
 2676TIP3    H229520   1.602   2.254   3.306  0.0670  0.2594 -0.0113
 2677TIP3   OH229521   4.686   6.477   3.347  0.2722 -0.2338 -0.2724
 2677TIP3    H129522   4.643   6.551   3.305  1.9113  1.0691  0.2146
 2677TIP3    H229523   4.650   6.400   3.303  0.2587  0.9496 -2.4969
 2678TIP3   OH229524   4.021   2.715   2.570  0.1698 -0.4460 -0.4460
 2678TIP3    H129525   4.080   2.787   2.592 -0.6932  0.6527 -1.5618
 2678TIP3    H229526   4.078   2.639   2.562  1.0174 -0.0513  1.4177
 2679TIP3   OH229527   0.498   6.663  10.726  0.2898  0.2051  0.3799
 2679TIP3    H129528   0.472   6.639  10.637 -1.1357  0.4239  0.7151
 2679TIP3    H229529   0.587   6.630  10.735  0.3163 -0.1475 -1.0037
 2680TIP3   OH229530   0.274   2.014   4.438 -0.1527 -0.2526 -0.0314
 2680TIP3    H129531   0.239   2.025   4.527 -1.9133  1.9093 -0.8862
 2680TIP3    H229532   0.254   1.923   4.416 -0.8745 -0.4546  1.3121
 2681TIP3   OH229533   2.821   6.166   2.957  0.6313  0.0878 -0.1495
 2681TIP3    H129534   2.893   6.160   3.019  3.3752  1.5932 -2.9033
 2681TIP3    H229535   2.777   6.248   2.978  1.3043  0.4005  0.0513
 2682TIP3   OH229536   2.873   6.078  15.321 -0.0147 -0.8925  0.0735
 2682TIP3    H129537   2.843   6.027  15.396 -1.6143  0.2990  0.2958
 2682TIP3    H229538   2.800   6.076  15.259  1.2125 -1.7098 -1.4137
 2683TIP3   OH229539   4.818   5.609   6.410  0.3220 -0.1048  0.1818
 2683TIP3    H129540   4.777   5.590   6.325  0.7825 -0.2834 -0.0025
 2683TIP3    H229541   4.777   5.547   6.471  0.4293 -0.3899 -0.0341
 2684TIP3   OH229542   0.813   5.570  14.242 -0.0265  0.1997 -0.8112
 2684TIP3    H129543   0.721   5.571  14.267 -0.5906  0.9024 -2.6976
 2684TIP3    H229544   0.860   5.554  14.323 -1.7890  0.1894  0.2620
 2685TIP3   OH229545   1.918   4.635   0.870  0.2756  0.5819 -0.2574
 2685TIP3    H129546   1.949   4.584   0.795 -0.9518 -0.5140 -0.0460
 2685TIP3    H229547   1.936   4.726   0.845 -1.8777  0.4409 -2.8159
 2686TIP3   OH229548   2.760   2.731  16.388  0.5227 -0.5226  0.1641
 2686TIP3    H129549   2.750   2.731  16.293  1.5115  1.4273  0.0084
 2686TIP3    H229550   2.682   2.688  16.421 -0.1469 -0.6468 -1.5061
 2687TIP3   OH229551   0.028   5.926   0.675 -0.1255 -0.2313 -0.0289
 2687TIP3    H129552  -0.022   5.997   0.715  1.7532 -0.2961  2.7003
 2687TIP3    H229553   0.072   5.966   0.600 -1.3601  0.6949 -0.2825
 2688TIP3   OH229554   5.219   6.457   3.677  0.9925  0.2935  0.1904
 2688TIP3    H129555   5.306   6.492   3.699  1.5836 -0.8456 -0.2588
 2688TIP3    H229556   5.162   6.491   3.745  2.2673 -0.9802  1.9820
 2689TIP3   OH229557   1.145   0.432   4.015  0.0895  0.1447  0.4935
 2689TIP3    H129558   1.230   0.473   4.030 -0.5976  2.5878 -1.5774
 2689TIP3    H229559   1.147   0.404   3.924 -1.9976  2.3335 -0.3371
 2690TIP3   OH229560   2.191   2.535  11.191 -0.0538  0.0745 -0.7249
 2690TIP3    H129561   2.167   2.510  11.280  0.5717  1.9310  0.0172
 2690TIP3    H229562   2.287   2.535  11.192 -0.0432 -0.2544 -1.5050
 2691TIP3   OH229563   6.684   3.822   2.788  0.1306 -0.0091 -0.5639
 2691TIP3    H129564   6.775   3.792   2.795  0.3183  0.4266 -1.0199
 2691TIP3    H229565   6.661   3.806   2.696  0.8847  2.9517 -1.3761
 2692TIP3   OH229566   6.753   5.816  16.683  0.5610  0.2792 -0.6819
 2692TIP3    H129567   6.837   5.853  16.654 -1.4643  3.4951 -3.2026
 2692TIP3    H229568   6.689   5.854  16.623 -2.6587 -2.8552  0.4522
 2693TIP3   OH229569   1.250   5.427  11.608  0.3826 -0.2464 -1.3678
 2693TIP3    H129570   1.281   5.438  11.518  0.5937  0.4894 -1.2142
 2693TIP3    H229571   1.242   5.516  11.642  1.4262 -0.5369 -0.2768
 2694TIP3   OH229572   5.247   6.306   3.960 -0.0341 -0.0459 -0.3397
 2694TIP3    H129573   5.152   6.304   3.950  0.0588  2.7372 -3.4181
 2694TIP3    H229574   5.265   6.392   3.998  1.2966 -0.4358 -0.0401
 2695TIP3   OH229575   0.665   6.465   3.975 -0.0532 -0.3023  0.0540
 2695TIP3    H129576   0.674   6.386   3.921 -3.5454 -1.1955  0.5254
 2695TIP3    H229577   0.664   6.537   3.912 -0.4469 -0.9843 -0.7389
 2696TIP3   OH229578   2.128   1.090  12.838  0.9576  0.3060 -0.4900
 2696TIP3    H129579   2.173   1.154  12.892 -0.3878 -0.4404  1.6506
 2696TIP3    H229580   2.081   1.142  12.773  0.1227  1.5040  1.0169
 2697TIP3   OH229581   5.176   4.721   3.851  0.0074 -0.3527  0.1399
 2697TIP3    H129582   5.238   4.706   3.780  0.7080 -0.2905  0.7266
 2697TIP3    H229583   5.095   4.681   3.821  1.0310 -2.7912  0.4439
 2698TIP3   OH229584   6.123   3.090  16.898  1.0877 -0.1769  0.4256
 2698TIP3    H129585   6.187   3.153  16.865  1.0781 -1.1692 -1.6487
 2698TIP3    H229586   6.146   3.008  16.855 -0.9337 -0.8109  0.4533
 2699TIP3   OH229587   2.558   4.543  14.936  0.1504 -0.2634  0.7450
 2699TIP3    H129588   2.565   4.639  14.933  5.5383 -0.3725 -0.6543
 2699TIP3    H229589   2.551   4.517  14.844 -2.2242 -1.3067  1.1654
 2700TIP3   OH229590   5.000   5.363  14.629 -0.0807 -0.4929  0.3534
 2700TIP3    H129591   4.922   5.419  14.627 -0.1495 -0.5918 -1.1650
 2700TIP3    H229592   5.073   5.425  14.622 -0.0835 -0.4777  0.4627
 2701TIP3   OH229593   4.271   0.001  12.514 -0.2794  0.2272  0.1929
 2701TIP3    H129594   4.240   0.091  12.522  1.2256  1.1248 -2.6969
 2701TIP3    H229595   4.249  -0.024  12.424  0.3522 -1.8986  0.5834
 2702TIP3   OH229596   5.246   2.507   2.150 -0.0873  0.0945  0.3526
 2702TIP3    H129597   5.300   2.443   2.103  0.1360  0.3426  0.2736
 2702TIP3    H229598   5.229   2.466   2.235  0.1395 -0.0253  0.3408
 2703TIP3   OH229599   5.408   3.899  15.213 -0.0046  0.2642 -0.2824
 2703TIP3    H129600   5.381   3.990  15.203  0.2787  0.4342  0.4608
 2703TIP3    H229601   5.497   3.903  15.246 -0.7334 -0.2419  1.9243
 2704TIP3   OH229602   6.380   2.154  11.110 -0.4638  0.4497  0.3915
 2704TIP3    H129603   6.356   2.187  11.196 -0.9593 -0.6455  0.6941
 2704TIP3    H229604   6.411   2.064  11.126  2.7613  1.3414 -0.1203
 2705TIP3   OH229605   2.063   1.949  13.056  0.2269  0.2446 -0.6870
 2705TIP3    H129606   1.998   2.017  13.037 -1.0047 -1.1791 -1.8125
 2705TIP3    H229607   2.086   1.963  13.147  1.1718  3.0937 -1.2454
 2706TIP3   OH229608   5.457   5.478   0.001  0.3298  0.7505  0.9237
 2706TIP3    H129609   5.466   5.388  -0.031  0.4598  0.3733  1.9653
 2706TIP3    H229610   5.416   5.468   0.087  1.7070  1.5648  1.7139
 2707TIP3   OH229611   0.763   0.863   6.734  0.3714 -0.1069  0.6425
 2707TIP3    H129612   0.760   0.837   6.826  2.4464 -0.2423  0.7188
 2707TIP3    H229613   0.708   0.941   6.729  0.1128 -0.1777  1.9662
 2708TIP3   OH229614   1.931   5.755   2.202  0.0378 -0.0150  0.5151
 2708TIP3    H129615   1.871   5.806   2.148  1.3574  0.8074 -0.2465
 2708TIP3    H229616   2.018   5.777   2.168  0.7299 -1.9010  0.9161
 2709TIP3   OH229617   2.013   3.844  12.578  0.4329 -0.1370  0.0694
 2709TIP3    H129618   1.941   3.826  12.517 -0.6223 -0.6188  1.4248
 2709TIP3    H229619   2.068   3.765  12.573 -0.4151 -0.7881  0.7745
 2710TIP3   OH229620   6.696   4.698  12.494  0.0176 -0.0647  0.0628
 2710TIP3    H129621   6.727   4.650  12.417  0.2410  1.0414 -0.5547
 2710TIP3    H229622   6.602   4.707  12.480  0.0605  0.1506 -0.0944
 2711TIP3   OH229623   5.178   6.257   2.063  0.8155 -0.2508  0.0611
 2711TIP3    H129624   5.109   6.216   2.115 -0.8082  1.8943 -0.2651
 2711TIP3    H229625   5.249   6.274   2.126 -0.3071  0.4781  1.1798
 2712TIP3   OH229626   2.781   1.368   1.513 -0.1289  0.5131  0.2578
 2712TIP3    H129627   2.822   1.326   1.589  0.8867  1.8168  0.4657
 2712TIP3    H229628   2.785   1.302   1.444 -0.3624 -0.4164  1.1075
 2713TIP3   OH229629   1.760   2.821  16.731  0.1951 -0.3909  0.1154
 2713TIP3    H129630   1.735   2.902  16.687 -0.7199  0.5888  2.2968
 2713TIP3    H229631   1.685   2.799  16.786  0.6509 -2.4377  0.0241
 2714TIP3   OH229632   0.588   5.793   4.980  0.0978  0.3761 -0.0761
 2714TIP3    H129633   0.624   5.854   5.045  1.0704  1.7659 -1.8333
 2714TIP3    H229634   0.632   5.816   4.899 -0.5952 -1.7480 -1.1271
 2715TIP3   OH229635   4.483   3.336   4.322  0.0049 -0.4695 -0.0974
 2715TIP3    H129636   4.519   3.413   4.365  0.5638  1.3277 -3.3918
 2715TIP3    H229637   4.503   3.263   4.380 -1.8967  1.9115  3.9752
 2716TIP3   OH229638   0.707   6.580   4.850 -0.3939 -0.0806 -0.3640
 2716TIP3    H129639   0.650   6.648   4.815 -0.1707  0.7102  0.7455
 2716TIP3    H229640   0.763   6.626   4.913  1.4136 -0.8307 -1.3210
 2717TIP3   OH229641   3.339   5.728  11.970  0.7398 -0.6242 -0.1240
 2717TIP3    H129642   3.418   5.676  11.955  0.0801 -1.6090 -0.3024
 2717TIP3    H229643   3.319   5.767  11.885  1.6692  0.5875  0.1841
 2718TIP3   OH229644   6.721   0.254  12.262  0.3374 -0.4733  0.4220
 2718TIP3    H129645   6.634   0.244  12.300 -0.1334 -1.6481 -0.8624
 2718TIP3    H229646   6.776   0.284  12.334 -1.4029  1.7156  0.9357
 2719TIP3   OH229647   1.984   6.592  14.597  0.3954  0.0802  0.1054
 2719TIP3    H129648   1.920   6.531  14.560  0.6673 -1.6794  2.2808
 2719TIP3    H229649   2.063   6.579  14.546 -0.6912  1.8429 -2.2282
 2720TIP3   OH229650   2.847   3.787  15.000  0.2990 -0.3316 -0.1666
 2720TIP3    H129651   2.895   3.855  14.953  0.2203 -0.6058 -0.6495
 2720TIP3    H229652   2.831   3.720  14.935  1.5172 -1.4193  0.6059
 2721TIP3   OH229653   0.930   6.493  15.728 -0.3310  0.2039 -0.3286
 2721TIP3    H129654   0.870   6.421  15.745  0.5228 -0.1161  1.5541
 2721TIP3    H229655   0.976   6.507  15.811 -0.4799  2.9559 -0.6055
 2722TIP3   OH229656   4.281   1.651   6.150  0.1135  0.0570  0.1407
 2722TIP3    H129657   4.233   1.721   6.195  1.2170  0.4004  0.8276
 2722TIP3    H229658   4.363   1.692   6.123 -0.7196  0.0352 -2.7520
 2723TIP3   OH229659   4.474   2.854   0.750  0.0282 -0.5314 -0.2957
 2723TIP3    H129660   4.447   2.762   0.753  0.3697 -0.6169  2.1870
 2723TIP3    H229661   4.464   2.879   0.658 -0.6984 -2.8504 -0.9118
 2724TIP3   OH229662   3.723   5.877  11.105 -0.0532  0.0679 -0.0572
 2724TIP3    H129663   3.639   5.864  11.061  0.2847  1.0594 -1.0359
 2724TIP3    H229664   3.705   5.939  11.175 -0.3246 -0.4726  0.3560
 2725TIP3   OH229665   5.739   0.561  13.414 -0.8409  0.7136 -0.3960
 2725TIP3    H129666   5.672   0.601  13.471 -1.3316  0.2549 -0.6416
 2725TIP3    H229667   5.756   0.628  13.347 -2.0412  0.3486 -1.1066
 2726TIP3   OH229668   1.057   6.568   4.234 -0.5757  0.3400  0.8958
 2726TIP3    H129669   1.084   6.499   4.295 -0.5192  1.1966  1.8667
 2726TIP3    H229670   1.136   6.621   4.221 -0.5524  0.0791 -0.0421
 2727TIP3   OH229671   4.019   6.466  12.674  0.0807  0.2199  0.6642
 2727TIP3    H129672   4.024   6.512  12.758  0.7224  1.6410 -0.1178
 2727TIP3    H229673   4.110   6.451  12.650 -0.1056 -0.3767  0.3129
 2728TIP3   OH229674   5.113   1.185  13.475 -0.4058 -0.1844 -0.4064
 2728TIP3    H129675   5.085   1.154  13.561  1.2789 -0.9858 -0.1072
 2728TIP3    H229676   5.108   1.109  13.419 -0.8500  0.1741 -0.8569
 2729TIP3   OH229677   3.040   5.563  14.505 -0.0556  0.1629 -0.1239
 2729TIP3    H129678   3.107   5.569  14.436  0.5038  0.7224  0.4565
 2729TIP3    H229679   2.968   5.616  14.472  0.3206  0.6597 -0.1586
 2730TIP3   OH229680   0.266   1.471  16.595 -0.8759 -0.0930  0.5015
 2730TIP3    H129681   0.231   1.505  16.677 -0.1975  1.6533  0.1007
 2730TIP3    H229682   0.355   1.506  16.589 -0.5289 -1.0625 -0.4748
 2731TIP3   OH229683   5.338   1.649   2.959  0.0256 -0.0793  0.4602
 2731TIP3    H129684   5.415   1.698   2.929  0.2155 -1.5177 -1.6488
 2731TIP3    H229685   5.266   1.712   2.953  0.1745 -0.0399 -2.6394
 2732TIP3   OH229686   3.149   1.175   1.698 -0.1643  0.0870 -0.1820
 2732TIP3    H129687   3.157   1.173   1.794  0.2797  0.8701 -0.1919
 2732TIP3    H229688   3.068   1.223   1.682  0.4160  1.0688 -0.2100
 2733TIP3   OH229689   0.765   3.663  14.097 -0.2318 -0.0874  0.3217
 2733TIP3    H129690   0.723   3.606  14.032  1.5279 -0.8298 -0.2428
 2733TIP3    H229691   0.774   3.748  14.053 -1.8637  0.3393  0.7641
 2734TIP3   OH229692   2.611   6.236   6.580 -0.7583  0.6626  1.0089
 2734TIP3    H129693   2.594   6.306   6.516  1.5665 -1.4160 -2.1884
 2734TIP3    H229694   2.552   6.165   6.555  2.9400 -1.7423 -1.8428
 2735TIP3   OH229695   4.648   2.517  16.669  0.9654  0.1202 -0.2506
 2735TIP3    H129696   4.719   2.536  16.608  0.9049  1.3129  0.0216
 2735TIP3    H229697   4.575   2.491  16.614  0.5554  2.3012 -0.8234
 2736TIP3   OH229698   3.989   4.804  14.011 -0.3601 -0.8748 -0.4578
 2736TIP3    H129699   3.963   4.793  13.920 -0.0852 -1.6485 -0.4519
 2736TIP3    H229700   4.037   4.887  14.012 -0.2537 -0.9230 -1.0451
 2737TIP3   OH229701   6.112   4.726  13.470 -0.1549  0.4186  0.0016
 2737TIP3    H129702   6.140   4.742  13.560 -2.4761  0.1704  0.8244
 2737TIP3    H229703   6.155   4.796  13.419  1.0638  0.6522  1.2784
 2738TIP3   OH229704   0.014   0.177   0.367 -0.3202 -0.2732 -0.5950
 2738TIP3    H129705   0.029   0.108   0.433 -2.6328 -0.4458 -0.1832
 2738TIP3    H229706   0.053   0.142   0.287  1.6887 -0.4807  0.4048
 2739TIP3   OH229707   5.037   3.282   3.217  1.0323  0.0585 -0.4475
 2739TIP3    H129708   4.964   3.280   3.279  1.3498 -0.9288 -0.0850
 2739TIP3    H229709   5.024   3.362   3.166 -1.7178 -1.3280 -2.1104
 2740TIP3   OH229710   2.321   6.487   5.370  0.2149 -0.2833 -0.5977
 2740TIP3    H129711   2.291   6.415   5.425  0.7969  0.0650  0.2145
 2740TIP3    H229712   2.375   6.541   5.429  0.7471  0.1816 -1.4792
 2741TIP3   OH229713   5.716   2.045   4.873  0.2811  0.9418 -0.2916
 2741TIP3    H129714   5.797   1.995   4.881 -2.0167 -3.2198 -0.2132
 2741TIP3    H229715   5.716   2.104   4.948  2.8077  0.5202  0.1220
 2742TIP3   OH229716   4.755   2.357  14.915  0.0204  0.0627 -0.1159
 2742TIP3    H129717   4.849   2.339  14.907  0.3375  2.1443 -2.0523
 2742TIP3    H229718   4.715   2.271  14.926  2.2154 -0.7827  2.0854
 2743TIP3   OH229719   5.522   4.564  14.276  0.3963  0.1702  0.0193
 2743TIP3    H129720   5.594   4.509  14.246 -0.6088 -1.0978 -0.1706
 2743TIP3    H229721   5.527   4.559  14.372 -1.3595 -2.6604  0.0660
 2744TIP3   OH229722   2.542   2.760   6.005 -0.2673 -0.1893 -0.3692
 2744TIP3    H129723   2.562   2.844   5.965 -0.1642  0.0149  0.1041
 2744TIP3    H229724   2.512   2.782   6.093  0.9072 -0.7174  0.1840
 2745TIP3   OH229725   1.787   0.448   2.699 -0.1030  0.4067 -0.6285
 2745TIP3    H129726   1.700   0.456   2.660  0.1158 -2.0470 -1.8062
 2745TIP3    H229727   1.772   0.410   2.786 -0.3137  2.2200  0.1745
 2746TIP3   OH229728   3.344   4.220  12.509 -0.5604 -0.5142 -0.4548
 2746TIP3    H129729   3.320   4.129  12.494 -0.0314 -0.8939  0.8862
 2746TIP3    H229730   3.396   4.219  12.589  0.0024  0.8880 -0.7644
 2747TIP3   OH229731   0.197   0.461  12.472 -0.3659  0.1439  0.0913
 2747TIP3    H129732   0.290   0.476  12.491 -0.3548 -1.5326  1.5798
 2747TIP3    H229733   0.154   0.543  12.496  0.4456  0.1403  1.6704
 2748TIP3   OH229734   4.348   6.014   2.144  0.4950 -0.0600  0.3896
 2748TIP3    H129735   4.308   5.927   2.137  1.9024 -0.6188 -1.8092
 2748TIP3    H229736   4.436   5.997   2.178  1.3782  0.2265 -1.5872
 2749TIP3   OH229737   2.481   3.765  11.024 -0.1439  0.5923 -0.0145
 2749TIP3    H129738   2.561   3.803  11.060 -0.4879  0.2300  1.1785
 2749TIP3    H229739   2.412   3.794  11.084 -0.7865  0.2188 -0.5651
 2750TIP3   OH229740   6.304   1.328  10.676  0.2747  0.0349  0.1387
 2750TIP3    H129741   6.356   1.349  10.754 -0.5484  1.6583  0.2916
 2750TIP3    H229742   6.230   1.277  10.709  1.2910 -1.5569  0.0333
 2751TIP3   OH229743   1.164   1.450   2.842 -0.0727 -0.4972 -0.2869
 2751TIP3    H129744   1.242   1.478   2.890  0.0282  0.0946 -0.7784
 2751TIP3    H229745   1.092   1.471   2.901 -0.0026  0.8693 -0.6430
 2752TIP3   OH229746   4.118   5.240  14.214  0.3437 -0.7800 -0.4285
 2752TIP3    H129747   4.119   5.328  14.176  2.4787 -1.2935 -1.6828
 2752TIP3    H229748   4.170   5.187  14.154 -0.6214 -2.8644  0.4731
 2753TIP3   OH229749   3.068   4.585   5.450  0.2644 -0.1243 -0.1994
 2753TIP3    H129750   3.086   4.648   5.380  0.0042  0.2470  0.0618
 2753TIP3    H229751   2.973   4.586   5.459  0.1740 -1.2964 -0.8582
 2754TIP3   OH229752   4.418   4.423  14.007 -0.8186  0.0664 -0.4676
 2754TIP3    H129753   4.330   4.430  14.043 -0.6777 -1.5029  0.2818
 2754TIP3    H229754   4.407   4.433  13.913 -1.5321  1.6832 -0.2572
 2755TIP3   OH229755   1.040   1.878   1.536 -0.1083  0.2860  0.0083
 2755TIP3    H129756   1.102   1.924   1.593  1.3297 -0.7892 -0.6368
 2755TIP3    H229757   0.978   1.946   1.509  1.0281  1.4873  0.3377
 2756TIP3   OH229758   6.554   0.359   4.592 -0.0514 -0.0650 -0.3854
 2756TIP3    H129759   6.512   0.444   4.602 -0.2829  0.0213 -1.8089
 2756TIP3    H229760   6.496   0.310   4.533 -0.1708 -1.3923  0.7718
 2757TIP3   OH229761   3.532   1.160   5.222  0.1378  0.2665 -0.0969
 2757TIP3    H129762   3.520   1.252   5.246  0.0713  0.0326  0.8030
 2757TIP3    H229763   3.625   1.153   5.200 -0.1116  0.8144 -1.3894
 2758TIP3   OH229764   3.880   1.415  12.806  0.4298  0.0508 -0.0481
 2758TIP3    H129765   3.875   1.479  12.877  0.2718 -0.8680  0.7902
 2758TIP3    H229766   3.797   1.424  12.759 -0.0235 -0.2347  0.6874
 2759TIP3   OH229767   3.678   3.119   5.624  0.4167 -0.5439 -0.7639
 2759TIP3    H129768   3.766   3.156   5.618  0.4827 -0.7043 -0.7740
 2759TIP3    H229769   3.627   3.169   5.560  0.1321  0.5921  0.3035
 2760TIP3   OH229770   0.527   0.506  10.772  0.0847 -0.1900  0.3686
 2760TIP3    H129771   0.541   0.413  10.757  1.2821 -0.1469  1.1040
 2760TIP3    H229772   0.473   0.510  10.850 -0.1378 -0.2697  0.2191
 2761TIP3   OH229773   3.059   3.416   3.566 -0.7095 -0.3028 -0.4805
 2761TIP3    H129774   3.086   3.505   3.588  0.3492 -0.8081  0.4025
 2761TIP3    H229775   3.017   3.383   3.645 -0.5704 -0.7777 -0.5970
 2762TIP3   OH229776   3.298   1.457  12.911 -0.3008 -0.6158 -0.2637
 2762TIP3    H129777   3.224   1.486  12.858  0.4769 -0.1334 -1.1050
 2762TIP3    H229778   3.258   1.427  12.993 -1.5153 -1.2401 -1.0457
 2763TIP3   OH229779   6.786   4.419   1.968  0.6506  0.1296  0.0228
 2763TIP3    H129780   6.751   4.506   1.986  0.7497  0.3046 -0.5885
 2763TIP3    H229781   6.724   4.359   2.008 -1.0155  0.3789 -1.9946
 2764TIP3   OH229782   6.775   2.418   2.298  0.1414  0.8037  0.6544
 2764TIP3    H129783   6.793   2.443   2.208 -4.0614  2.8184  0.1705
 2764TIP3    H229784   6.708   2.350   2.292  0.9838 -0.2677  2.3286
 2765TIP3   OH229785   1.015   4.294   3.246 -0.1593 -0.0643 -0.4716
 2765TIP3    H129786   0.920   4.301   3.234  0.0089  2.1472 -0.7727
 2765TIP3    H229787   1.049   4.286   3.157 -0.1253 -2.9529 -0.2972
 2766TIP3   OH229788   5.827   2.949   5.384 -0.0461  0.4381  0.4645
 2766TIP3    H129789   5.833   2.934   5.479  1.7694  0.6009  0.3988
 2766TIP3    H229790   5.883   3.025   5.368  1.4352 -0.8889 -1.0183
 2767TIP3   OH229791   6.317   0.515   4.890 -0.2209 -0.2614 -0.4350
 2767TIP3    H129792   6.403   0.511   4.932  0.7732  0.4702 -2.2592
 2767TIP3    H229793   6.255   0.530   4.962  1.1376 -1.0243  0.9419
 2768TIP3   OH229794   2.821   3.183  12.967  0.1279  0.2315 -0.1446
 2768TIP3    H129795   2.806   3.138  13.050  0.8150 -1.0429 -0.6835
 2768TIP3    H229796   2.835   3.113  12.903  1.3242  1.2012 -1.0040
 2769TIP3   OH229797   2.339   5.012  13.443  0.0620  0.0400 -0.2982
 2769TIP3    H129798   2.383   4.954  13.380  0.9742  2.7885 -2.3870
 2769TIP3    H229799   2.395   5.011  13.520  0.6191 -1.0135 -0.7025
 2770TIP3   OH229800   0.566   5.993   1.545  0.3031  0.8065 -0.8566
 2770TIP3    H129801   0.518   6.069   1.577  0.3627  0.7206 -0.5562
 2770TIP3    H229802   0.510   5.918   1.567  0.9642  0.6285  0.2941
 2771TIP3   OH229803   1.121   0.639   5.397  0.5769  0.2953  0.6568
 2771TIP3    H129804   1.120   0.706   5.328 -0.5584 -0.5602 -0.1998
 2771TIP3    H229805   1.175   0.677   5.467 -0.8876  2.5599  0.6517
 2772TIP3   OH229806   2.599   0.291   6.023 -0.1466  0.1152  0.5750
 2772TIP3    H129807   2.689   0.291   5.992 -0.0658 -0.0674  0.8082
 2772TIP3    H229808   2.594   0.217   6.083 -0.8772 -0.8770 -0.6677
 2773TIP3   OH229809   6.431   6.753  15.372  0.1142 -0.2449  0.2502
 2773TIP3    H129810   6.366   6.710  15.427  0.5017  0.0633  0.9776
 2773TIP3    H229811   6.492   6.683  15.347 -0.2644 -0.4548 -0.0945
 2774TIP3   OH229812   4.769   0.190   2.067 -0.2270  0.5415 -0.2452
 2774TIP3    H129813   4.688   0.176   2.117  0.1128  0.7442  0.3627
 2774TIP3    H229814   4.830   0.126   2.102 -0.1871  0.2264 -0.8694
 2775TIP3   OH229815   0.880   5.430  13.237  0.5446  0.2560 -0.1954
 2775TIP3    H129816   0.879   5.381  13.155  1.1946 -0.1339  0.0302
 2775TIP3    H229817   0.944   5.500  13.223  1.0090 -0.0964  0.1424
 2776TIP3   OH229818   3.239   3.653   4.433 -0.5233 -0.1884  0.1772
 2776TIP3    H129819   3.171   3.598   4.470 -0.7030  0.6410  1.1087
 2776TIP3    H229820   3.232   3.736   4.480  0.6385  0.1649 -0.2292
 2777TIP3   OH229821   5.860   6.309   4.173 -0.0279 -0.0365 -0.0412
 2777TIP3    H129822   5.796   6.247   4.208  0.3210 -0.6518 -0.4533
 2777TIP3    H229823   5.935   6.254   4.149  0.5081  0.6226  0.0959
 2778TIP3   OH229824   2.699   4.488   6.090  0.3060  0.2899  0.0238
 2778TIP3    H129825   2.646   4.488   6.170 -0.6313  1.1474 -0.5796
 2778TIP3    H229826   2.773   4.431   6.111 -0.4535 -0.3293  1.1510
 2779TIP3   OH229827   3.873   4.508   1.374 -0.0493  0.5354 -0.1892
 2779TIP3    H129828   3.928   4.430   1.380 -0.5956  0.1208 -0.4412
 2779TIP3    H229829   3.804   4.484   1.312 -0.9524  0.7731  0.6956
 2780TIP3   OH229830   0.700   5.809  13.667 -0.4233 -0.2516  0.6214
 2780TIP3    H129831   0.724   5.879  13.728 -0.5863 -0.6115  1.1032
 2780TIP3    H229832   0.656   5.854  13.595  2.9473  0.6418 -1.0549
 2781TIP3   OH229833   5.702   5.644  13.694  0.8410  0.1664 -0.1309
 2781TIP3    H129834   5.623   5.623  13.745  0.1374  0.0725 -1.2091
 2781TIP3    H229835   5.707   5.739  13.696  0.3993  0.2007 -0.4730
 2782TIP3   OH229836   3.633   1.721  14.259 -0.0075 -0.7707 -0.5947
 2782TIP3    H129837   3.604   1.643  14.308 -0.2815 -1.2274 -1.4682
 2782TIP3    H229838   3.728   1.710  14.253  0.4266  0.6185  2.0817
 2783TIP3   OH229839   1.889   0.371   4.624 -0.2448  0.1701  0.2193
 2783TIP3    H129840   1.833   0.445   4.649 -0.6593 -0.5253  1.4081
 2783TIP3    H229841   1.828   0.303   4.596  0.0077 -0.4208  1.0591
 2784TIP3   OH229842   5.821   0.281   1.008  0.2366  0.1967  0.0725
 2784TIP3    H129843   5.901   0.259   1.055  0.8622 -0.1794 -1.1336
 2784TIP3    H229844   5.842   0.266   0.916 -0.5436  2.1178 -0.4649
 2785TIP3   OH229845   0.971   0.276  17.169 -0.1990  0.4259  0.1115
 2785TIP3    H129846   1.032   0.206  17.146  1.0945  1.7768 -0.7674
 2785TIP3    H229847   1.010   0.319  17.245 -0.8007  0.4107  0.4337
 2786TIP3   OH229848   2.078   0.035  15.493 -0.2885 -0.1066  0.0669
 2786TIP3    H129849   2.057  -0.057  15.505 -1.2655  0.0776 -0.1127
 2786TIP3    H229850   2.028   0.080  15.562 -0.0081  0.3095  0.0067
 2787TIP3   OH229851   1.493   0.086   3.240 -0.2366 -0.2266 -0.4219
 2787TIP3    H129852   1.515  -0.007   3.251 -1.8393 -0.6498 -0.4932
 2787TIP3    H229853   1.520   0.126   3.323  0.5103 -0.7355 -0.4043
 2788TIP3   OH229854   0.169   0.659  15.527 -0.3467  0.0881 -0.0852
 2788TIP3    H129855   0.081   0.665  15.563 -0.3132  0.7279 -0.1050
 2788TIP3    H229856   0.198   0.571  15.550 -2.0022 -1.1568 -2.3984
 2789TIP3   OH229857   4.529   0.737  11.919 -0.9490 -0.4596  0.1119
 2789TIP3    H129858   4.458   0.732  11.983  0.1679 -0.8309  1.3647
 2789TIP3    H229859   4.506   0.811  11.863 -1.0193  1.0938  2.1092
 2790TIP3   OH229860   5.264   3.804  13.984  0.2198 -0.1076  0.1298
 2790TIP3    H129861   5.307   3.831  14.065 -0.0729 -1.6112  0.8071
 2790TIP3    H229862   5.243   3.712  13.996 -1.5553  0.1024 -0.9098
 2791TIP3   OH229863   3.448   6.787  11.137  0.1697  0.2126  0.0348
 2791TIP3    H129864   3.412   6.785  11.048  1.5306 -0.9461 -0.5398
 2791TIP3    H229865   3.470   6.878  11.152  0.7305  0.2932 -1.1703
 2792TIP3   OH229866   0.063   0.971   6.582 -0.6834  0.5324  0.4369
 2792TIP3    H129867   0.139   0.990   6.637 -0.7403  1.7497  0.1218
 2792TIP3    H229868   0.009   1.050   6.587 -2.1090 -0.4164  0.9127
 2793TIP3   OH229869   5.360   3.861   4.609  0.4195 -0.0835 -0.6058
 2793TIP3    H129870   5.410   3.853   4.528  0.2715  0.3879 -0.7439
 2793TIP3    H229871   5.289   3.796   4.600 -0.0564  0.5057 -1.1947
 2794TIP3   OH229872   2.471   3.951  13.435  0.1021  0.1951 -0.3678
 2794TIP3    H129873   2.463   4.045  13.448 -0.1225  0.3636 -1.5608
 2794TIP3    H229874   2.431   3.912  13.512  1.1042  1.0704  0.6234
 2795TIP3   OH229875   3.292   0.413  13.339  0.1760  0.4397 -0.8179
 2795TIP3    H129876   3.356   0.485  13.335 -1.6661  2.4203  1.8238
 2795TIP3    H229877   3.237   0.435  13.413 -0.6906 -3.6764 -0.0394
 2796TIP3   OH229878   2.923   5.360  16.381 -0.3598  0.7030  0.1960
 2796TIP3    H129879   2.890   5.281  16.424 -0.8292  0.1400 -1.1511
 2796TIP3    H229880   3.018   5.350  16.383 -0.4425 -0.4291 -0.9115
 2797TIP3   OH229881   5.173   5.648   3.750 -0.3690  0.1009  0.0329
 2797TIP3    H129882   5.078   5.660   3.742 -0.1142  2.1320 -0.3737
 2797TIP3    H229883   5.186   5.626   3.842 -1.3226 -1.5453 -0.1776
 2798TIP3   OH229884   2.211   4.943   2.287  0.3197 -0.1588 -0.2137
 2798TIP3    H129885   2.188   4.861   2.331 -0.6892  0.1524 -0.1285
 2798TIP3    H229886   2.218   5.007   2.358  1.1920 -0.1704 -0.2700
 2799TIP3   OH229887   6.061   1.813  17.046  0.3044  0.6517 -0.4882
 2799TIP3    H129888   6.053   1.843  17.137 -0.2958  2.0152 -0.9626
 2799TIP3    H229889   6.156   1.811  17.030  0.4350 -0.0274  0.2871
 2800TIP3   OH229890   1.023   6.662  16.290  0.2350 -0.1471 -0.0214
 2800TIP3    H129891   0.947   6.604  16.289  0.8744 -1.1310  2.1682
 2800TIP3    H229892   1.072   6.638  16.210 -1.0882 -0.3791 -0.7930
 2801TIP3   OH229893   2.584   6.405   3.650  0.3068  0.3703 -0.6288
 2801TIP3    H129894   2.651   6.343   3.622 -0.4115  0.2715 -2.2673
 2801TIP3    H229895   2.610   6.488   3.609  2.0084  1.5875  2.6273
 2802TIP3   OH229896   0.471   2.723   0.903 -0.3688  0.7595 -0.4471
 2802TIP3    H129897   0.529   2.648   0.907  0.7513  1.5523 -1.2419
 2802TIP3    H229898   0.405   2.707   0.972  0.9665  0.0019  0.6999
 2803TIP3   OH229899   6.004   0.570   4.545 -0.2784  0.2629 -0.0469
 2803TIP3    H129900   6.053   0.488   4.556 -1.1148 -0.3321 -0.6411
 2803TIP3    H229901   5.912   0.542   4.541 -0.4546  1.0168 -2.2845
 2804TIP3   OH229902   0.283   0.437   4.576  0.0806  0.1202  0.0796
 2804TIP3    H129903   0.197   0.478   4.567  1.3194  2.7873 -0.7863
 2804TIP3    H229904   0.322   0.480   4.652  0.4762 -1.4231  0.7690
 2805TIP3   OH229905   4.659   0.757  10.019 -0.1897  0.2559  0.4051
 2805TIP3    H129906   4.569   0.745   9.989  0.2709  0.2033 -1.0408
 2805TIP3    H229907   4.664   0.707  10.101 -1.3568 -0.0656  0.2981
 2806TIP3   OH229908   4.795   2.614  15.043  0.1659 -0.1490  0.2140
 2806TIP3    H129909   4.712   2.662  15.044 -0.1669 -0.7125  0.9531
 2806TIP3    H229910   4.777   2.535  14.992  0.4448  0.0499 -0.1985
 2807TIP3   OH229911   5.020   6.491   0.804  0.1635 -0.2866 -0.0230
 2807TIP3    H129912   5.057   6.422   0.749 -1.7109 -0.7425 -0.8059
 2807TIP3    H229913   5.096   6.537   0.840  1.4512 -1.6925 -0.8260
 2808TIP3   OH229914   4.735   0.473   2.175 -0.1002  0.1037 -0.0893
 2808TIP3    H129915   4.822   0.506   2.195  0.0034  0.6316 -1.3175
 2808TIP3    H229916   4.749   0.382   2.147  0.1674  0.4403 -1.0783
 2809TIP3   OH229917   0.745   4.529  16.648 -0.0069  0.2116  0.4960
 2809TIP3    H129918   0.839   4.544  16.654 -0.1244  1.7455 -0.7964
 2809TIP3    H229919   0.705   4.604  16.692 -0.6234 -0.2165  0.6830
 2810TIP3   OH229920   2.427   5.807  12.433  0.3626 -0.2308  0.1715
 2810TIP3    H129921   2.390   5.892  12.411  1.9542  0.2261 -0.9723
 2810TIP3    H229922   2.519   5.826  12.453  1.0120 -1.7970 -1.1283
 2811TIP3   OH229923   6.304   4.927  11.262 -0.0957 -0.0232 -0.3836
 2811TIP3    H129924   6.274   4.973  11.184 -0.1208  1.0423  0.2322
 2811TIP3    H229925   6.356   4.854  11.229 -0.8719 -0.1313 -1.4012
 2812TIP3   OH229926   0.977   5.782   1.118  0.4351 -0.0669 -0.1879
 2812TIP3    H129927   0.970   5.692   1.087  0.5492 -0.2706  0.3700
 2812TIP3    H229928   0.928   5.783   1.200  0.2963  0.4202 -0.2728
 2813TIP3   OH229929   3.565   6.262  16.306  0.5661  0.3934 -0.4401
 2813TIP3    H129930   3.520   6.346  16.297  0.8629  0.6006 -0.0273
 2813TIP3    H229931   3.590   6.257  16.398 -0.3548 -0.6218 -0.2200
 2814TIP3   OH229932   4.894   2.115  16.546  0.7358  0.4673 -0.6718
 2814TIP3    H129933   4.835   2.139  16.617  1.2448 -3.0997  1.1753
 2814TIP3    H229934   4.981   2.138  16.579  0.8832 -0.2806 -0.5100
 2815TIP3   OH229935   3.401   4.778   3.850  0.2666 -0.3718 -0.2743
 2815TIP3    H129936   3.312   4.771   3.883 -1.5431 -0.9712 -4.5487
 2815TIP3    H229937   3.449   4.708   3.894 -1.8144 -1.0600  1.0213
 2816TIP3   OH229938   0.333   4.966   0.504 -0.2876 -0.5539 -0.0763
 2816TIP3    H129939   0.372   5.046   0.539 -0.7909 -0.5159  0.4079
 2816TIP3    H229940   0.264   4.943   0.566 -1.4318 -0.2991 -1.2008
 2817TIP3   OH229941   3.702   1.902   5.177  0.2801 -0.2643  0.3883
 2817TIP3    H129942   3.775   1.863   5.129  0.0107 -1.3027  0.7960
 2817TIP3    H229943   3.726   1.994   5.187  1.5283 -0.5822  0.4964
 2818TIP3   OH229944   3.209   2.520   4.828 -0.1503 -0.1709  0.1879
 2818TIP3    H129945   3.179   2.557   4.745  2.0014  2.3878  0.3900
 2818TIP3    H229946   3.136   2.532   4.888 -0.7854  0.4734 -0.6905
 2819TIP3   OH229947   1.458   3.734  17.050 -0.1084 -0.3717 -0.2506
 2819TIP3    H129948   1.482   3.827  17.043 -1.6146  0.1594  1.0216
 2819TIP3    H229949   1.541   3.689  17.064  0.6901  0.7281 -1.1838
 2820TIP3   OH229950   0.746   1.648   3.502  0.4506 -0.3665 -0.0743
 2820TIP3    H129951   0.754   1.630   3.596 -0.8063  0.8580  0.2995
 2820TIP3    H229952   0.654   1.633   3.483  0.4559  0.5016 -0.8581
 2821TIP3   OH229953   3.918   5.195  14.600 -0.1928 -0.1554 -0.4360
 2821TIP3    H129954   3.831   5.164  14.578  0.0709 -1.6772  0.5404
 2821TIP3    H229955   3.973   5.117  14.601  0.4531  0.2087  2.2973
 2822TIP3   OH229956   4.159   1.901  17.279  0.0253  0.2947  0.3393
 2822TIP3    H129957   4.247   1.927  17.306 -0.4673  1.5378  0.8554
 2822TIP3    H229958   4.144   1.817  17.324  1.0158 -0.0329  0.0707
 2823TIP3   OH229959   0.978   2.074   2.177  0.4400 -0.0500 -0.3367
 2823TIP3    H129960   0.899   2.020   2.174  0.2064  0.1715  1.2768
 2823TIP3    H229961   0.952   2.152   2.226  1.6237  0.0897  0.0890
 2824TIP3   OH229962   1.821   2.437   6.779 -0.1654  0.4589 -0.2167
 2824TIP3    H129963   1.779   2.423   6.864 -0.5860  0.8673 -0.3526
 2824TIP3    H229964   1.895   2.376   6.779 -0.2112  0.3919  0.4034
 2825TIP3   OH229965   0.100   3.050  11.233  0.1511  0.5247  0.3491
 2825TIP3    H129966   0.027   3.037  11.173  0.6437  1.3394 -0.4602
 2825TIP3    H229967   0.067   3.108  11.301 -0.1505  0.3178  0.3787
 2826TIP3   OH229968   6.460   5.317  13.347 -0.3383  0.6050 -0.2959
 2826TIP3    H129969   6.404   5.246  13.375  1.4422 -1.2614 -1.2008
 2826TIP3    H229970   6.515   5.336  13.423  0.4800 -0.3510 -0.6317
 2827TIP3   OH229971   4.510   4.943  16.594 -1.0172 -0.2375 -0.3655
 2827TIP3    H129972   4.461   4.963  16.514 -0.6763  0.3743 -0.4324
 2827TIP3    H229973   4.464   4.992  16.662 -0.8632 -0.1520 -0.3222
 2828TIP3   OH229974   5.951   2.548   4.670  0.0306  0.2664  0.1655
 2828TIP3    H129975   5.908   2.507   4.745  0.3525 -0.0835  0.1595
 2828TIP3    H229976   5.938   2.642   4.684 -0.1378  0.1927  0.5240
 2829TIP3   OH229977   1.815   3.374  12.098  0.2610 -0.6254 -0.4760
 2829TIP3    H129978   1.867   3.382  12.018  0.7030  2.2673 -0.0078
 2829TIP3    H229979   1.727   3.399  12.072  0.2197 -0.5355 -0.2509
 2830TIP3   OH229980   2.521   3.245  12.660 -0.3697  0.8677  0.5112
 2830TIP3    H129981   2.455   3.313  12.644 -0.7830  0.3124 -0.2302
 2830TIP3    H229982   2.501   3.211  12.747 -2.2633 -0.5627 -0.3992
 2831TIP3   OH229983   3.237   3.675   4.149  0.5139 -0.2143 -0.0717
 2831TIP3    H129984   3.155   3.719   4.127 -0.4699 -2.3801 -1.0038
 2831TIP3    H229985   3.218   3.629   4.231  1.1309  0.0499  0.2265
 2832TIP3   OH229986   0.918   1.786   2.930 -0.0022  0.4136  0.1249
 2832TIP3    H129987   0.895   1.876   2.904 -0.3877  0.0415 -0.8860
 2832TIP3    H229988   1.011   1.790   2.952 -0.4001  1.4336  1.8822
 2833TIP3   OH229989   5.201   3.459  11.586  0.0111 -0.3737  0.2336
 2833TIP3    H129990   5.204   3.386  11.648  0.2442 -0.2897  0.3233
 2833TIP3    H229991   5.212   3.537  11.640  0.9848 -0.3387  0.0207
 2834TIP3   OH229992   5.281   3.619  11.381 -0.2690 -0.4348 -1.1371
 2834TIP3    H129993   5.210   3.612  11.316 -0.5522 -0.3993 -0.8319
 2834TIP3    H229994   5.253   3.563  11.453  1.0659 -2.2698 -1.9570
 2835TIP3   OH229995   0.612   0.969   0.465  0.1092  0.0066  0.0769
 2835TIP3    H129996   0.674   0.915   0.418  0.0956  0.0502  0.0083
 2835TIP3    H229997   0.577   0.912   0.534 -0.1012 -0.1536 -0.1601
 2836TIP3   OH229998   3.830   3.112  14.254  0.1508  0.4356  0.6151
 2836TIP3    H129999   3.737   3.090  14.260  0.6535 -1.5754  2.5244
 2836TIP3    H230000   3.851   3.103  14.161 -1.0742 -1.4190  0.4655
 2837TIP3   OH230001   0.091   3.341   4.805 -0.2242 -0.0486 -0.2759
 2837TIP3    H130002   0.146   3.385   4.740  0.1918 -0.0528  0.0661
 2837TIP3    H230003   0.041   3.276   4.756  1.0688 -0.9837 -0.4055
 2838TIP3   OH230004   0.207   1.308   1.565  0.1841 -0.6567 -0.6685
 2838TIP3    H130005   0.208   1.221   1.603 -0.5783 -0.3116  0.1760
 2838TIP3    H230006   0.139   1.305   1.498 -0.2491 -0.5606 -0.2406
 2839TIP3   OH230007   6.585   3.703  12.024 -0.5055 -0.7475 -0.6927
 2839TIP3    H130008   6.648   3.664  11.963  0.6168 -0.8703  0.5070
 2839TIP3    H230009   6.567   3.790  11.988  2.4768  0.4149  0.3134
 2840TIP3   OH230010   5.465   3.341   1.049 -0.3009 -0.2892  0.0946
 2840TIP3    H130011   5.558   3.319   1.054  0.3505  2.1871 -0.1209
 2840TIP3    H230012   5.428   3.304   1.129  1.0998 -0.3248  0.7577
 2841TIP3   OH230013   3.732   2.771  14.818 -0.2572 -0.1333  0.0897
 2841TIP3    H130014   3.756   2.686  14.780  0.4182  0.1345 -0.1006
 2841TIP3    H230015   3.641   2.784  14.791  0.2805  0.1852 -1.7156
 2842TIP3   OH230016   4.892   1.801   5.800  0.1857 -0.1683  0.6940
 2842TIP3    H130017   4.924   1.791   5.889  0.5397 -1.7136  0.4166
 2842TIP3    H230018   4.916   1.720   5.756 -0.3235  0.4043 -0.7100
 2843TIP3   OH230019   5.032   4.825  11.837  0.1073  0.1605 -0.0342
 2843TIP3    H130020   4.978   4.869  11.902 -0.0635  0.2698 -0.2491
 2843TIP3    H230021   4.973   4.762  11.795  0.1789  0.1902 -0.1810
 2844TIP3   OH230022   1.614   3.900   6.054  0.0134 -0.0208  0.1867
 2844TIP3    H130023   1.610   3.977   6.111  0.8116 -0.0930  0.3435
 2844TIP3    H230024   1.634   3.936   5.968 -0.2041 -0.0036  0.1422
 2845TIP3   OH230025   6.779   6.330  13.551 -0.2315  0.2965  0.1888
 2845TIP3    H130026   6.827   6.249  13.568 -0.2921  0.0258 -0.8698
 2845TIP3    H230027   6.828   6.397  13.599 -0.0281 -0.3223  0.8570
 2846TIP3   OH230028   4.572   4.686  16.500  0.2861 -0.1193 -0.5101
 2846TIP3    H130029   4.564   4.775  16.532 -0.0018 -0.2088 -0.3248
 2846TIP3    H230030   4.636   4.691  16.429 -0.7027  0.4659 -1.3791
 2847TIP3   OH230031   3.261   6.300   2.574 -0.3539 -0.0065  0.2447
 2847TIP3    H130032   3.199   6.241   2.618  2.2865 -2.9338  0.3596
 2847TIP3    H230033   3.290   6.360   2.643 -1.0410 -0.3273  0.8327
 2848TIP3   OH230034   0.547   3.677  15.564 -0.3943 -0.0802 -0.2589
 2848TIP3    H130035   0.608   3.648  15.631 -1.4576 -0.8873  0.3974
 2848TIP3    H230036   0.557   3.772  15.561  1.3619 -0.2541 -0.6598
 2849TIP3   OH230037   6.727   5.747  14.824 -0.1164  0.0046 -0.3263
 2849TIP3    H130038   6.794   5.800  14.869 -1.0903  0.5292  0.5507
 2849TIP3    H230039   6.758   5.657  14.833 -0.5559  0.0061  1.9949
 2850TIP3   OH230040   2.762   3.694   5.915  0.2124  0.0672  0.3532
 2850TIP3    H130041   2.689   3.756   5.925  0.1435 -0.2744  2.5762
 2850TIP3    H230042   2.770   3.653   6.001  0.5675 -2.6987 -0.8951
 2851TIP3   OH230043   1.795   4.641   2.659 -0.1554  0.1365  0.3243
 2851TIP3    H130044   1.876   4.596   2.683 -0.2857 -1.2909 -1.6425
 2851TIP3    H230045   1.816   4.734   2.667  1.4452 -0.2159  0.5690
 2852TIP3   OH230046   6.602   4.938   6.429 -0.6424  0.1482 -0.3128
 2852TIP3    H130047   6.685   4.925   6.384 -1.0705 -1.6761 -0.6631
 2852TIP3    H230048   6.579   4.851   6.462 -1.5709  0.9540  1.2873
 2853TIP3   OH230049   3.176   5.869   3.147 -0.4152  0.8158  0.2395
 2853TIP3    H130050   3.179   5.779   3.113  1.4113  1.3956 -1.2693
 2853TIP3    H230051   3.165   5.924   3.069 -0.7018  1.9704  1.0623
 2854TIP3   OH230052   3.295   1.238   2.106 -0.2559  0.3224 -0.0686
 2854TIP3    H130053   3.267   1.320   2.065  1.2743  0.0307 -1.8138
 2854TIP3    H230054   3.386   1.229   2.081 -0.1912 -1.5710  0.7156
 2855TIP3   OH230055   2.043   0.864   0.082 -0.0648 -0.7718 -0.5385
 2855TIP3    H130056   2.034   0.955   0.053 -0.1082 -0.3964  0.6100
 2855TIP3    H230057   2.013   0.812   0.007 -0.2779  0.1596 -1.1148
 2856TIP3   OH230058   4.432   3.110  15.333 -0.4383  0.0821  0.1363
 2856TIP3    H130059   4.382   3.101  15.414  0.6881 -2.2654  0.6460
 2856TIP3    H230060   4.498   3.176  15.353 -0.9502  0.4331  0.7135
 2857TIP3   OH230061   4.967   0.671  13.196  0.7787 -0.1794 -0.4751
 2857TIP3    H130062   4.927   0.719  13.123 -3.0251  0.4657  1.7434
 2857TIP3    H230063   4.937   0.581  13.184  0.7560 -0.2164 -0.1398
 2858TIP3   OH230064   0.610   3.149  16.389  0.0429  0.0733  0.0663
 2858TIP3    H130065   0.552   3.197  16.329 -0.7398 -1.3753 -0.4041
 2858TIP3    H230066   0.608   3.059  16.356  0.8016 -0.4514  1.3877
 2859TIP3   OH230067   3.224   2.993  10.699  0.6738  0.3724 -0.4864
 2859TIP3    H130068   3.138   2.970  10.665  0.1370  0.6969  0.6201
 2859TIP3    H230069   3.285   2.962  10.632 -0.2230 -1.0130 -0.7045
 2860TIP3   OH230070   1.783   4.034  12.919 -0.3057 -0.4681 -0.3143
 2860TIP3    H130071   1.709   4.076  12.963 -0.2879 -0.5936 -0.1634
 2860TIP3    H230072   1.769   3.940  12.930  1.0997 -0.5080  1.8575
 2861TIP3   OH230073   4.394   1.653  15.922 -0.3179  0.4611  0.0930
 2861TIP3    H130074   4.327   1.630  15.857 -1.4907 -2.8426  2.2162
 2861TIP3    H230075   4.346   1.661  16.004  1.6039  0.1695  1.3029
 2862TIP3   OH230076   3.760   0.570   5.036 -0.1921 -0.0637 -0.6021
 2862TIP3    H130077   3.705   0.629   4.985 -1.4899 -0.4639  0.2803
 2862TIP3    H230078   3.746   0.597   5.127 -0.9093 -1.7655 -0.1728
 2863TIP3   OH230079   0.160   5.144   3.798 -0.4100 -0.0038 -0.1727
 2863TIP3    H130080   0.142   5.238   3.803 -0.7146 -0.1147  1.7941
 2863TIP3    H230081   0.256   5.138   3.802 -0.4247  0.2156  1.0568
 2864TIP3   OH230082   4.025   0.584   4.268 -0.0299 -0.3833 -0.0174
 2864TIP3    H130083   3.933   0.597   4.291 -0.2161 -0.5405 -0.6393
 2864TIP3    H230084   4.048   0.661   4.216  0.2790 -0.2041  0.3757
 2865TIP3   OH230085   4.915   2.557  16.589  0.1203 -0.1238 -0.8634
 2865TIP3    H130086   4.947   2.507  16.665 -1.8423 -2.7030 -1.5645
 2865TIP3    H230087   4.930   2.648  16.612  0.0055 -0.8122  2.4715
 2866TIP3   OH230088   3.408   3.115  15.155 -0.4827 -0.4055 -0.1977
 2866TIP3    H130089   3.374   3.202  15.177  2.2295  0.2087  2.1557
 2866TIP3    H230090   3.444   3.125  15.067 -0.2047  0.8761  0.0375
 2867TIP3   OH230091   4.107   4.908   1.470 -0.7371  0.7796 -0.1574
 2867TIP3    H130092   4.134   4.926   1.380  0.4554  0.2980  0.0848
 2867TIP3    H230093   4.185   4.870   1.511 -1.0459  1.6231  1.2707
 2868TIP3   OH230094   5.877   5.167   4.312  0.3731 -0.1536  0.4125
 2868TIP3    H130095   5.893   5.172   4.406  0.0622  1.4343  0.4009
 2868TIP3    H230096   5.964   5.160   4.273  0.4947 -1.0053  0.8077
 2869TIP3   OH230097   2.938   2.268   1.856  0.0450 -0.6628 -0.0932
 2869TIP3    H130098   3.006   2.319   1.899  0.4282 -1.0244 -0.2598
 2869TIP3    H230099   2.960   2.177   1.876 -0.7402 -0.7559  0.3613
 2870TIP3   OH230100   3.671   4.956   3.497 -0.2887 -0.7421  0.4204
 2870TIP3    H130101   3.708   4.981   3.581  0.0904 -0.2545  0.1120
 2870TIP3    H230102   3.577   4.971   3.506 -0.1182  0.4341  0.3746
 2871TIP3   OH230103   2.531   3.961  17.042  0.3486 -0.6382 -0.8428
 2871TIP3    H130104   2.561   3.933  17.129 -0.1389 -1.2258 -0.8604
 2871TIP3    H230105   2.597   3.926  16.982 -0.5589 -2.3134 -0.9199
 2872TIP3   OH230106   6.528   5.161  14.096 -0.4079  0.4598 -0.2008
 2872TIP3    H130107   6.600   5.223  14.099  0.0126  0.0024 -0.5493
 2872TIP3    H230108   6.534   5.112  14.178  1.9221 -2.0026 -1.6674
 2873TIP3   OH230109   1.503   6.734  15.868  0.3252 -0.0432 -0.7746
 2873TIP3    H130110   1.590   6.761  15.895 -0.2975  1.9037 -0.5755
 2873TIP3    H230111   1.518   6.666  15.802  1.9813  0.2180 -0.7036
 2874TIP3   OH230112   1.557   5.809   5.337 -0.1325  0.2838 -0.4540
 2874TIP3    H130113   1.514   5.731   5.372  0.6635  0.5485  1.2062
 2874TIP3    H230114   1.628   5.827   5.399  0.9868  1.1415 -1.9084
 2875TIP3   OH230115   2.828   3.431   2.672 -0.1816  0.3226  0.4066
 2875TIP3    H130116   2.778   3.397   2.598 -1.7568 -1.0949  2.0299
 2875TIP3    H230117   2.782   3.511   2.697 -0.4823  0.0699  0.6768
 2876TIP3   OH230118   5.237   6.404  14.306  0.6663 -0.6262 -0.1327
 2876TIP3    H130119   5.212   6.476  14.248  2.3274  1.0674  1.1548
 2876TIP3    H230120   5.231   6.326  14.251  0.5661  0.6945 -2.0956
 2877TIP3   OH230121   4.560   5.809   0.098 -0.0511  0.4582 -0.2080
 2877TIP3    H130122   4.469   5.829   0.121 -0.1740 -0.2083 -0.0836
 2877TIP3    H230123   4.555   5.774   0.009  0.1320  0.7793 -0.3457
 2878TIP3   OH230124   3.657   3.960   6.200 -0.0392  0.2384  0.1248
 2878TIP3    H130125   3.657   4.035   6.260  2.0545  0.5865 -0.2237
 2878TIP3    H230126   3.740   3.915   6.219 -1.1562 -1.8973  0.1892
 2879TIP3   OH230127   3.689   2.530  17.121 -0.0102 -0.1860  0.4676
 2879TIP3    H130128   3.635   2.453  17.106 -0.0172 -0.5028  1.9101
 2879TIP3    H230129   3.769   2.495  17.161  0.7820  0.3930 -0.5639
 2880TIP3   OH230130   6.714   5.152  13.070 -0.0177 -0.1967  0.0129
 2880TIP3    H130131   6.646   5.207  13.110  0.6627  1.0904 -0.5230
 2880TIP3    H230132   6.666   5.080  13.030 -0.8526 -0.6229  1.6909
 2881TIP3   OH230133   6.462   1.494  16.050  0.2289  0.3750 -0.2653
 2881TIP3    H130134   6.540   1.485  15.995 -0.4993 -2.1707 -1.0282
 2881TIP3    H230135   6.479   1.438  16.126 -0.4212  0.6568  0.0991
 2882TIP3   OH230136   5.935   3.334  15.849  0.3231 -0.2026  0.1311
 2882TIP3    H130137   5.988   3.399  15.894  0.4625 -0.1914 -0.0510
 2882TIP3    H230138   5.936   3.258  15.908  2.2088 -0.9336 -0.7797
 2883TIP3   OH230139   4.492   0.013  11.580  0.3148 -0.1446 -0.6236
 2883TIP3    H130140   4.518  -0.023  11.665  0.6016  0.1838 -0.5696
 2883TIP3    H230141   4.476  -0.064  11.526 -2.1919 -0.4398  0.3846
 2884TIP3   OH230142   3.394   0.613   2.504  0.1108  0.2742 -0.0470
 2884TIP3    H130143   3.400   0.559   2.425 -1.0385  1.1065 -0.7322
 2884TIP3    H230144   3.461   0.577   2.562  1.3244 -0.0765 -1.5683
 2885TIP3   OH230145   3.132   0.629  15.415  0.4778  0.2673  0.1622
 2885TIP3    H130146   3.208   0.648  15.470  1.1427  0.8261 -0.9097
 2885TIP3    H230147   3.061   0.613  15.477  1.5314 -0.5844  1.1987
 2886TIP3   OH230148   0.984   5.736   3.636  0.2275 -0.4298 -0.5371
 2886TIP3    H130149   0.989   5.732   3.731  0.3776 -0.6767 -0.5531
 2886TIP3    H230150   0.992   5.644   3.608 -0.4421 -0.4251 -0.7597
 2887TIP3   OH230151   2.424   6.563  15.100 -0.3042 -0.2715  0.4105
 2887TIP3    H130152   2.358   6.631  15.091  0.2896  0.0544 -2.8225
 2887TIP3    H230153   2.379   6.491  15.144 -1.8307  1.0835  1.1622
 2888TIP3   OH230154   4.134   1.778  13.501  0.4597  0.3439 -0.0720
 2888TIP3    H130155   4.156   1.716  13.570  1.0362  1.1825  0.5188
 2888TIP3    H230156   4.063   1.830  13.538 -0.1811 -0.0964 -0.6527
 2889TIP3   OH230157   3.125   4.026  16.303 -0.2166  0.1443  0.7794
 2889TIP3    H130158   3.131   3.936  16.335  0.4164  0.3068  1.1225
 2889TIP3    H230159   3.214   4.059  16.304 -0.4244  0.7414  0.5323
 2890TIP3   OH230160   4.070   6.044   0.976  0.9864 -0.6429 -0.0003
 2890TIP3    H130161   4.120   6.125   0.988 -0.6791  0.6337 -1.1462
 2890TIP3    H230162   4.066   6.005   1.063 -1.0819  2.3444  1.4113
 2891TIP3   OH230163   3.619   0.191  13.754  0.0311  0.1862 -0.1396
 2891TIP3    H130164   3.682   0.119  13.760 -0.9465 -0.6428  0.5932
 2891TIP3    H230165   3.534   0.148  13.743 -0.3622  1.2987 -1.8741
 2892TIP3   OH230166   2.264   0.623   2.937  0.0424 -0.0036  0.0835
 2892TIP3    H130167   2.245   0.712   2.968 -1.0726 -0.6159  1.2875
 2892TIP3    H230168   2.190   0.600   2.882  0.8030  0.1365 -1.0423
 2893TIP3   OH230169   0.380   2.006  14.198 -0.0326  0.7719 -0.9905
 2893TIP3    H130170   0.400   1.915  14.223  0.6053  0.2796 -3.0378
 2893TIP3    H230171   0.462   2.038  14.159  0.7546  3.3112  2.2724
 2894TIP3   OH230172   4.620   5.936   4.740 -0.0247  0.1761  1.0581
 2894TIP3    H130173   4.685   6.005   4.751  1.6639 -0.9359 -1.1037
 2894TIP3    H230174   4.560   5.970   4.673 -0.1707  0.1847  1.1916
 2895TIP3   OH230175   3.297   3.201  15.397 -0.4522  0.3979  0.0294
 2895TIP3    H130176   3.238   3.227  15.327 -1.3287 -1.6281 -0.0599
 2895TIP3    H230177   3.307   3.106  15.387  2.9265  0.6426  0.0012
 2896TIP3   OH230178   4.159   6.540   2.926  0.0400 -0.2236 -0.4700
 2896TIP3    H130179   4.218   6.614   2.938 -0.0471 -0.3226  0.7267
 2896TIP3    H230180   4.174   6.485   3.003 -2.7846  0.6001  0.8107
 2897TIP3   OH230181   5.062   4.309   2.194  0.9093  0.4155 -0.0263
 2897TIP3    H130182   5.071   4.313   2.289 -0.7802 -1.4719  0.2869
 2897TIP3    H230183   5.091   4.395   2.163  0.2103  1.5628  2.2921
 2898TIP3   OH230184   6.340   6.410  15.747 -0.3316 -0.4844  0.1627
 2898TIP3    H130185   6.285   6.332  15.756  2.4347 -2.4109  2.8456
 2898TIP3    H230186   6.350   6.441  15.837  0.2420  1.8215 -0.6503
 2899TIP3   OH230187   5.223   3.596   3.087 -0.2533  0.3323  0.0025
 2899TIP3    H130188   5.178   3.654   3.147  0.1217  0.4255  0.1988
 2899TIP3    H230189   5.154   3.555   3.035 -0.4768  2.0147 -1.1220
 2900TIP3   OH230190   3.519   4.712  15.022  1.0730 -0.0073 -0.3648
 2900TIP3    H130191   3.471   4.662  15.088 -4.9573  0.2118 -3.8360
 2900TIP3    H230192   3.511   4.803  15.051 -0.2352 -0.0337 -0.5876
 2901TIP3   OH230193   6.018   1.351   3.465  0.0241  0.2238 -0.8594
 2901TIP3    H130194   6.026   1.438   3.426  0.3845 -0.6799 -2.9594
 2901TIP3    H230195   6.106   1.331   3.497 -0.6062  1.6116  2.0809
 2902TIP3   OH230196   1.087   3.755   3.402  0.1670  0.1376 -0.5497
 2902TIP3    H130197   1.032   3.713   3.336  0.9952 -0.3309 -0.9587
 2902TIP3    H230198   1.074   3.849   3.389 -1.0860  0.0291 -0.1593
 2903TIP3   OH230199   0.281   3.716   0.979 -0.3024 -0.4554  0.0907
 2903TIP3    H130200   0.240   3.767   1.049  0.4855 -1.6002  1.4225
 2903TIP3    H230201   0.238   3.630   0.984 -0.4929 -0.4471 -1.0878
 2904TIP3   OH230202   2.967   5.804   4.297  0.1613  0.5221 -0.3977
 2904TIP3    H130203   3.018   5.818   4.377  0.5140  2.8016 -0.9508
 2904TIP3    H230204   2.877   5.823   4.322 -0.2063 -1.6252  0.1082
 2905TIP3   OH230205   5.735   6.180   5.866 -0.7806  0.0851 -0.0350
 2905TIP3    H130206   5.793   6.165   5.941  1.2105  0.7889 -1.3653
 2905TIP3    H230207   5.673   6.247   5.896 -1.1608 -0.8996  1.5168
 2906TIP3   OH230208   3.135   6.056  15.606 -0.1280  0.0283 -0.4775
 2906TIP3    H130209   3.055   6.078  15.559 -0.1290 -0.0011 -0.4896
 2906TIP3    H230210   3.149   5.963  15.588 -0.9390 -0.3690  0.7556
 2907TIP3   OH230211   0.912   6.772   5.466 -0.1953 -0.2529  0.5653
 2907TIP3    H130212   0.988   6.828   5.450 -1.6406  1.6190 -0.0613
 2907TIP3    H230213   0.868   6.812   5.541 -0.6908 -1.1854  0.7893
 2908TIP3   OH230214   4.903   2.871  11.457 -0.0339  0.4663  0.2791
 2908TIP3    H130215   4.892   2.961  11.426  0.7761  0.5740  0.2716
 2908TIP3    H230216   4.889   2.875  11.551  0.0661  0.6156  0.2880
 2909TIP3   OH230217   6.369   4.317  13.284  0.4298  0.7364  0.3250
 2909TIP3    H130218   6.318   4.372  13.224 -0.8650  0.7413  1.3729
 2909TIP3    H230219   6.402   4.378  13.350  0.7774  0.5554  0.3197
 2910TIP3   OH230220   2.263   2.797   0.975  0.2193 -0.1901  0.0794
 2910TIP3    H130221   2.169   2.780   0.983 -0.0723  1.3026  0.0695
 2910TIP3    H230222   2.275   2.828   0.886  0.4268  1.2458  0.5781
 2911TIP3   OH230223   1.893   4.197   3.858  0.4654  0.1283 -0.3922
 2911TIP3    H130224   1.835   4.135   3.814 -0.5738  1.5088 -1.0525
 2911TIP3    H230225   1.979   4.155   3.855 -0.1000 -1.0330 -1.2940
 2912TIP3   OH230226   1.141   0.784   6.754  0.4152  0.4143 -0.7523
 2912TIP3    H130227   1.047   0.802   6.743 -0.0628 -0.6282  1.1730
 2912TIP3    H230228   1.178   0.799   6.667 -1.3017  2.1261 -1.2706
 2913TIP3   OH230229   5.277   0.943   3.426  0.3445  0.1187 -0.0276
 2913TIP3    H130230   5.349   0.998   3.459  1.2467 -0.8253 -0.3493
 2913TIP3    H230231   5.199   0.977   3.469  1.2348  0.0084  1.7653
 2914TIP3   OH230232   2.190   5.786   5.323 -0.2508 -0.4291 -0.0037
 2914TIP3    H130233   2.274   5.763   5.283 -0.2677 -1.1338  0.3534
 2914TIP3    H230234   2.185   5.882   5.315  1.8606 -0.0155  2.4297
 2915TIP3   OH230235   5.399   3.976   2.039 -0.1410  0.3222  0.0754
 2915TIP3    H130236   5.468   3.988   1.974 -1.3959  1.6814 -1.0594
 2915TIP3    H230237   5.405   3.883   2.063 -0.0429 -0.3952 -2.4788
 2916TIP3   OH230238   4.762   4.378  16.252  0.0868  0.1219  0.2900
 2916TIP3    H130239   4.777   4.378  16.158  0.0371  0.9866  0.2770
 2916TIP3    H230240   4.688   4.319  16.265  1.3337 -1.5984  0.0135
 2917TIP3   OH230241   2.573   5.632   3.997 -0.4098 -0.1485  0.2466
 2917TIP3    H130242   2.615   5.657   4.079  0.6851 -2.3640  0.4520
 2917TIP3    H230243   2.630   5.563   3.961 -1.0840  0.4590 -2.1672
 2918TIP3   OH230244   3.629   1.268  15.664 -0.0169 -0.4253 -0.0817
 2918TIP3    H130245   3.606   1.232  15.749  1.3212  1.4879  1.1700
 2918TIP3    H230246   3.555   1.324  15.640 -0.1738 -0.5723  0.0622
 2919TIP3   OH230247   6.535   0.036   0.459 -0.8510  0.4883  0.2031
 2919TIP3    H130248   6.520  -0.025   0.532 -0.1536  0.1651  0.0874
 2919TIP3    H230249   6.451   0.080   0.447 -1.1453  0.1092  0.8066
 2920TIP3   OH230250   4.266   3.417   1.259 -0.2753 -0.5112 -0.4770
 2920TIP3    H130251   4.350   3.457   1.279 -1.5813  1.3000  2.0042
 2920TIP3    H230252   4.286   3.326   1.237  2.4270  0.2838 -1.6827
 2921TIP3   OH230253   2.482   0.496  13.449 -0.2256  0.7666 -0.2506
 2921TIP3    H130254   2.496   0.590  13.438 -0.5725  0.8455 -0.0550
 2921TIP3    H230255   2.466   0.485  13.542  0.6590  0.3901 -0.1325
 2922TIP3   OH230256   2.839   6.449   0.818  0.4680  0.5776  0.1926
 2922TIP3    H130257   2.889   6.395   0.756 -0.6748 -0.7074  0.3361
 2922TIP3    H230258   2.846   6.402   0.901  2.0060  2.2980  1.1080
 2923TIP3   OH230259   1.144   1.076  16.331  0.8552  0.3264  0.5982
 2923TIP3    H130260   1.151   1.062  16.425  2.1436 -1.1486  0.3287
 2923TIP3    H230261   1.115   0.991  16.297  1.4685  0.5111 -0.4309
 2924TIP3   OH230262   2.429   0.958  11.547  0.7327 -0.0339 -0.2965
 2924TIP3    H130263   2.367   1.029  11.565  0.3861 -0.0072 -1.5319
 2924TIP3    H230264   2.493   0.963  11.619 -0.8507 -0.2688  1.1817
 2925TIP3   OH230265   1.106   2.448   2.293  0.0546  0.4353  0.2468
 2925TIP3    H130266   1.033   2.427   2.236  0.9797 -1.2230 -0.4046
 2925TIP3    H230267   1.068   2.452   2.381 -0.6855 -1.3837  0.0481
 2926TIP3   OH230268   3.943   3.718  15.992  0.3710  0.0230  0.0760
 2926TIP3    H130269   3.882   3.733  16.064  0.4059 -0.3999  0.1983
 2926TIP3    H230270   3.888   3.682  15.922  0.8549 -2.9570  1.0919
 2927TIP3   OH230271   5.278   1.866   3.659 -0.3266 -0.5770  0.2876
 2927TIP3    H130272   5.235   1.914   3.730  0.1755 -0.1162  0.2860
 2927TIP3    H230273   5.286   1.930   3.588  1.9520 -0.0904  0.9010
 2928TIP3   OH230274   5.936   3.414   4.417 -0.5989 -0.0022 -0.0315
 2928TIP3    H130275   6.013   3.359   4.434 -0.3296  0.2085 -0.5433
 2928TIP3    H230276   5.900   3.432   4.504  0.3449  0.4752  0.2810
 2929TIP3   OH230277   1.935   5.552   0.042 -0.0873 -0.2701  0.0071
 2929TIP3    H130278   1.886   5.487  -0.008  0.0194 -1.2547  1.1370
 2929TIP3    H230279   2.026   5.542   0.012 -0.1084 -0.4818  0.0123
 2930TIP3   OH230280   2.589   3.038  11.386 -0.0084 -0.3699 -0.5384
 2930TIP3    H130281   2.592   2.978  11.460 -0.7197  0.7911  0.4829
 2930TIP3    H230282   2.496   3.044  11.364  0.0882  0.1024 -0.8324
 2931TIP3   OH230283   6.253   6.062  16.296  0.4468  0.0593  0.4140
 2931TIP3    H130284   6.347   6.078  16.303  0.8121 -1.8502  0.4743
 2931TIP3    H230285   6.235   6.068  16.202  0.6557  0.2776  0.3882
 2932TIP3   OH230286   0.242   1.616  10.712  0.0760 -0.0753 -0.0195
 2932TIP3    H130287   0.199   1.694  10.748  0.8897 -0.3745  1.6899
 2932TIP3    H230288   0.325   1.649  10.678  0.5647 -0.2338  1.0014
 2933TIP3   OH230289   5.570   5.114  14.744 -0.0665 -0.0972 -0.4576
 2933TIP3    H130290   5.656   5.071  14.739 -0.9656 -2.0182 -0.4459
 2933TIP3    H230291   5.523   5.083  14.666 -1.3716 -0.6059  0.4909
 2934TIP3   OH230292   0.890   4.667  13.676  0.1211 -0.1965  0.4172
 2934TIP3    H130293   0.822   4.728  13.647 -0.3765  0.5012  2.8258
 2934TIP3    H230294   0.962   4.681  13.614 -1.0682  0.6989 -0.8322
 2935TIP3   OH230295   0.868   0.876  15.182  0.6445  0.1540  0.1575
 2935TIP3    H130296   0.940   0.836  15.133 -0.7124 -1.4163 -0.6408
 2935TIP3    H230297   0.821   0.802  15.220 -2.4018  0.8439 -1.9549
 2936TIP3   OH230298   3.025   3.892  13.228 -0.0989 -0.1377  0.2938
 2936TIP3    H130299   2.982   3.912  13.311  1.4191 -0.3324  1.1633
 2936TIP3    H230300   2.955   3.857  13.172 -1.1958  0.2512  1.3857
 2937TIP3   OH230301   2.885   3.277  12.298 -0.1489 -0.3050  0.4608
 2937TIP3    H130302   2.952   3.210  12.289  0.3369  0.2918 -0.4578
 2937TIP3    H230303   2.840   3.255  12.380  0.7949 -1.0296  0.7981
 2938TIP3   OH230304   2.541   4.666  12.884 -0.0718 -0.0356 -0.3046
 2938TIP3    H130305   2.555   4.629  12.971  0.8672 -0.0175 -0.4327
 2938TIP3    H230306   2.619   4.720  12.868 -0.2482 -0.0107 -1.1386
 2939TIP3   OH230307   4.174   6.363  14.169 -1.2986 -0.7361  0.0366
 2939TIP3    H130308   4.223   6.406  14.098 -1.8261  0.5938  0.4524
 2939TIP3    H230309   4.130   6.435  14.214 -0.4915 -1.4677  2.0998
 2940TIP3   OH230310   2.777   1.878   3.276  0.1289  0.1444 -0.5172
 2940TIP3    H130311   2.749   1.895   3.186 -1.1678 -0.6813 -0.2948
 2940TIP3    H230312   2.839   1.948   3.295  0.5261  0.2699 -2.0874
 2941TIP3   OH230313   6.530   2.882  14.054 -0.2219  0.5039 -0.4693
 2941TIP3    H130314   6.592   2.848  14.118 -0.4291  0.1730 -0.4425
 2941TIP3    H230315   6.583   2.901  13.977 -0.0244  0.5966 -0.3133
 2942TIP3   OH230316   1.538   0.201  16.095 -0.2483  0.8968  0.0753
 2942TIP3    H130317   1.480   0.164  16.028 -0.3540 -0.7777  1.0406
 2942TIP3    H230318   1.527   0.296  16.086  0.0041  0.7512 -2.4921
 2943TIP3   OH230319   0.087   2.045  12.144 -0.0769  0.0154 -0.5245
 2943TIP3    H130320   0.152   2.092  12.196  0.4434  1.4979 -2.3767
 2943TIP3    H230321   0.137   1.998  12.077 -0.7388 -1.5599  0.0395
 2944TIP3   OH230322   4.224   0.027  13.755  0.4555 -0.5426  0.0212
 2944TIP3    H130323   4.169   0.010  13.831  0.0538 -0.5232 -0.2603
 2944TIP3    H230324   4.302  -0.026  13.769  1.4650  1.2303  1.5986
 2945TIP3   OH230325   4.453   2.266  11.068 -0.2050  0.3239  0.4122
 2945TIP3    H130326   4.387   2.258  11.138 -1.4665 -0.9330 -0.8296
 2945TIP3    H230327   4.481   2.357  11.072 -2.8065  1.2230  0.3630
 2946TIP3   OH230328   4.844   2.090   3.144  0.5260 -0.4387 -0.2100
 2946TIP3    H130329   4.896   2.166   3.171  1.1007 -1.6117  2.3124
 2946TIP3    H230330   4.775   2.084   3.210 -1.8078 -0.0162 -2.4452
 2947TIP3   OH230331   3.821   0.105  14.290 -0.0807  0.0636  0.2462
 2947TIP3    H130332   3.903   0.122  14.337 -0.1401  1.1912 -0.0291
 2947TIP3    H230333   3.763   0.069  14.357  0.7331 -1.0774  0.3644
 2948TIP3   OH230334   2.507   3.514  12.028 -0.5244 -0.3021  0.3907
 2948TIP3    H130335   2.453   3.559  11.964  0.4662  0.9745  0.4152
 2948TIP3    H230336   2.564   3.457  11.977  1.3922  1.8809 -0.1182
 2949TIP3   OH230337   5.942   2.469   3.931 -0.6188 -0.0223  0.0263
 2949TIP3    H130338   5.850   2.444   3.935 -0.8241  0.4182 -1.3324
 2949TIP3    H230339   5.978   2.418   3.859 -0.1760  0.9199 -0.4385
 2950TIP3   OH230340   0.630   4.273  14.359  0.1495 -0.2400 -0.2541
 2950TIP3    H130341   0.678   4.314  14.288 -2.0846 -1.5382 -2.6942
 2950TIP3    H230342   0.538   4.275  14.331 -0.7948 -1.2221  2.3979
 2951TIP3   OH230343   6.621   5.275   4.289  0.0069  0.5016  0.0588
 2951TIP3    H130344   6.562   5.294   4.217 -0.4105 -2.3336 -0.4692
 2951TIP3    H230345   6.697   5.331   4.274 -0.9401  1.4430 -1.4020
 2952TIP3   OH230346   2.015   1.273  12.680 -0.3263  0.1333 -0.1051
 2952TIP3    H130347   1.931   1.278  12.635 -0.1605 -1.0506 -0.5690
 2952TIP3    H230348   2.071   1.335  12.632 -0.3342 -0.6339 -1.1358
 2953TIP3   OH230349   4.679   1.686   5.939  0.0384 -0.4826 -0.3491
 2953TIP3    H130350   4.718   1.599   5.932  1.4634  0.0717  0.2518
 2953TIP3    H230351   4.751   1.746   5.920 -1.0959  0.5841 -1.5170
 2954TIP3   OH230352   5.481   0.364  13.351 -0.4157  0.0696 -0.0547
 2954TIP3    H130353   5.408   0.313  13.316 -0.0036  0.0424 -0.8995
 2954TIP3    H230354   5.461   0.455  13.326 -0.7761  0.2394  0.8048
 2955TIP3   OH230355   1.144   4.384   3.696 -0.2366  0.3259  0.0609
 2955TIP3    H130356   1.128   4.290   3.690 -0.6945  0.4464 -0.8930
 2955TIP3    H230357   1.170   4.409   3.607 -2.4256  1.4917 -0.3387
 2956TIP3   OH230358   4.678   5.403  14.702  0.8805 -0.3078 -0.0892
 2956TIP3    H130359   4.669   5.430  14.611  1.9191 -0.8692 -0.3659
 2956TIP3    H230360   4.674   5.486  14.751  0.4688  0.0104 -0.6381
 2957TIP3   OH230361   0.105   6.108  16.998 -0.4342  0.0209  0.0484
 2957TIP3    H130362   0.177   6.119  16.935 -1.7502  1.5582 -1.2726
 2957TIP3    H230363   0.053   6.036  16.962 -0.0930 -0.4612  0.5016
 2958TIP3   OH230364   4.774   2.530   2.037 -0.0696 -0.1139  0.2512
 2958TIP3    H130365   4.748   2.526   1.945 -1.6601  0.7058  0.6374
 2958TIP3    H230366   4.706   2.483   2.084 -0.8473  1.9029  1.2670
 2959TIP3   OH230367   1.563   2.648  13.138 -0.5547 -0.2098  0.6977
 2959TIP3    H130368   1.560   2.572  13.080  0.3282  0.7175 -0.6105
 2959TIP3    H230369   1.650   2.685  13.124 -0.4397  0.2276  2.4021
 2960TIP3   OH230370   2.925   6.678  10.412 -0.4943 -0.4772  0.1034
 2960TIP3    H130371   2.845   6.688  10.360 -1.3549  0.8012  1.5846
 2960TIP3    H230372   2.911   6.734  10.488  3.3023  2.8993 -1.3028
 2961TIP3   OH230373   0.225   2.248  16.349 -0.2820  0.1121  0.7118
 2961TIP3    H130374   0.242   2.328  16.399  2.3385  0.5273 -0.6332
 2961TIP3    H230375   0.281   2.257  16.272  0.0799 -3.0407  0.5027
 2962TIP3   OH230376   1.990   2.563   3.038 -0.6943  0.0199 -0.2555
 2962TIP3    H130377   2.031   2.606   3.113 -1.4100  0.3716 -0.0610
 2962TIP3    H230378   1.961   2.635   2.982 -0.6137 -0.2324 -0.6267
 2963TIP3   OH230379   2.818   3.076   2.816  0.4717  0.1463 -0.0950
 2963TIP3    H130380   2.778   2.991   2.798 -0.2832  0.3755  0.4362
 2963TIP3    H230381   2.744   3.135   2.832  0.9962  0.7882  0.0458
 2964TIP3   OH230382   3.286   5.844   3.706  0.3844  0.3917 -0.4008
 2964TIP3    H130383   3.258   5.856   3.615 -0.0542  0.5228 -0.2493
 2964TIP3    H230384   3.206   5.821   3.753  0.4238  1.2858  0.1297
 2965TIP3   OH230385   4.849   2.397  12.679 -0.2969  0.8101  0.2018
 2965TIP3    H130386   4.889   2.482  12.661  0.9658  0.0973 -0.4609
 2965TIP3    H230387   4.825   2.363  12.593  1.0677 -0.3689  0.2589
 2966TIP3   OH230388   1.666   3.920  14.491 -0.0803 -0.0973  0.2294
 2966TIP3    H130389   1.663   3.895  14.583  0.4721 -1.3392 -0.0727
 2966TIP3    H230390   1.713   3.848  14.448 -0.0585  0.6098 -0.9701
 2967TIP3   OH230391   6.534   2.063   2.457 -0.2978 -0.2820  0.2941
 2967TIP3    H130392   6.494   1.981   2.428  0.5003 -0.2064 -1.1016
 2967TIP3    H230393   6.627   2.043   2.467  0.3839  0.9737 -2.4929
 2968TIP3   OH230394   1.426   3.646  16.768 -0.0818  0.0731 -0.7351
 2968TIP3    H130395   1.497   3.668  16.829  0.1046 -0.3396 -0.8032
 2968TIP3    H230396   1.388   3.565  16.802  0.8047 -0.8347 -1.8193
 2969TIP3   OH230397   5.036   3.638   2.832  0.3236 -0.6324 -0.7588
 2969TIP3    H130398   5.082   3.692   2.768  0.9906 -0.8250 -0.4490
 2969TIP3    H230399   5.031   3.693   2.910 -1.2016 -0.0938 -1.2130
 2970TIP3   OH230400   6.303   3.487   6.384  0.4458 -0.1857 -0.0453
 2970TIP3    H130401   6.285   3.394   6.368 -0.3830 -0.2293  0.9939
 2970TIP3    H230402   6.352   3.488   6.466 -1.4867  0.3938  1.1702
 2971TIP3   OH230403   4.285   6.039  11.912  0.1198 -0.4165 -0.5420
 2971TIP3    H130404   4.240   6.109  11.958  2.8600  0.6412  0.7369
 2971TIP3    H230405   4.259   6.050  11.820 -1.9776  0.2022  0.0669
 2972TIP3   OH230406   1.653   6.073  11.480  0.1913 -0.0176  0.1392
 2972TIP3    H130407   1.729   6.105  11.431  1.5926 -1.8815  0.9773
 2972TIP3    H230408   1.642   5.983  11.450 -2.5281  0.5502 -0.8722
 2973TIP3   OH230409   1.048   2.546  14.701  0.0343  0.2334 -0.0543
 2973TIP3    H130410   1.107   2.621  14.697  0.4187 -0.0872 -0.4104
 2973TIP3    H230411   1.105   2.471  14.716 -0.3226 -0.0280  0.0153
 2974TIP3   OH230412   6.058   2.475  10.601  0.4427  0.2987  0.3377
 2974TIP3    H130413   6.076   2.477  10.694  1.4640  0.7084  0.1452
 2974TIP3    H230414   5.963   2.491  10.594  0.5175  1.2622  1.2548
 2975TIP3   OH230415   3.429   2.315   4.030  0.3009  0.3580  0.0856
 2975TIP3    H130416   3.338   2.341   4.042  0.3255  1.8084 -2.2258
 2975TIP3    H230417   3.463   2.376   3.965  2.8951 -0.2550  0.7394
 2976TIP3   OH230418   1.530   4.809   2.015 -0.5939 -0.5982 -0.2464
 2976TIP3    H130419   1.554   4.856   2.095 -0.4338  0.0652 -0.6688
 2976TIP3    H230420   1.583   4.729   2.017  1.4864  0.6781 -0.9914
 2977TIP3   OH230421   1.313   2.197  14.017 -0.5310  0.4355 -0.0671
 2977TIP3    H130422   1.394   2.212  14.066 -0.2893  0.2713 -0.4158
 2977TIP3    H230423   1.245   2.189  14.085 -0.2440  0.4898  0.2278
 2978TIP3   OH230424   4.447   4.454   3.829  0.2504 -0.3125  0.0921
 2978TIP3    H130425   4.442   4.431   3.736  1.6208 -0.6689  0.0833
 2978TIP3    H230426   4.514   4.395   3.864  1.0339  1.0303  0.9136
 2979TIP3   OH230427   2.195   5.304  11.458  0.2663 -0.4282 -0.4341
 2979TIP3    H130428   2.108   5.310  11.497  1.0147  1.0058  1.1097
 2979TIP3    H230429   2.200   5.379  11.399  0.5056 -0.4111 -0.3927
 2980TIP3   OH230430   1.700   0.116  15.613  0.0602  0.0946 -0.2252
 2980TIP3    H130431   1.709   0.048  15.680  1.0306 -1.2387 -1.6304
 2980TIP3    H230432   1.781   0.166  15.619 -0.7642  1.3876  0.9881
 2981TIP3   OH230433   0.209   2.040  16.090 -0.3633  0.0220  0.1890
 2981TIP3    H130434   0.125   2.002  16.064  0.8969 -1.1883 -2.5303
 2981TIP3    H230435   0.228   2.001  16.175 -1.3438 -1.7218 -0.3563
 2982TIP3   OH230436   0.692   1.255  12.928  0.4642 -0.0109  0.0979
 2982TIP3    H130437   0.768   1.304  12.897  0.6992 -0.5752 -0.2418
 2982TIP3    H230438   0.720   1.216  13.011  0.1802  0.6500  0.5180
 2983TIP3   OH230439   1.090   0.377  14.209  0.3402 -0.1496 -0.3708
 2983TIP3    H130440   1.068   0.374  14.116  0.9662 -2.8171 -0.5170
 2983TIP3    H230441   1.116   0.287  14.230  0.3535  0.4126  2.3574
 2984TIP3   OH230442   5.858   5.919  11.879 -0.0383  0.0974  0.4002
 2984TIP3    H130443   5.796   5.862  11.833 -0.8659 -0.1405  1.7650
 2984TIP3    H230444   5.929   5.860  11.906  0.4948  0.2531 -0.5900
 2985TIP3   OH230445   1.719   1.976   0.737  0.2173 -0.2060  0.3710
 2985TIP3    H130446   1.779   2.045   0.711  0.5477 -0.1986  1.1506
 2985TIP3    H230447   1.768   1.895   0.722  0.1316 -0.2369  0.2541
 2986TIP3   OH230448   0.619   1.784  15.073  0.0118  0.0332 -0.2498
 2986TIP3    H130449   0.633   1.707  15.127 -0.3515  0.4525  0.4529
 2986TIP3    H230450   0.638   1.755  14.984  0.2945 -0.7475  0.0632
 2987TIP3   OH230451   3.789   2.847   0.281 -0.5963  0.0428 -0.7263
 2987TIP3    H130452   3.837   2.793   0.345  1.8388  0.4709 -2.0750
 2987TIP3    H230453   3.808   2.806   0.197 -0.5415  1.6857 -1.5512
 2988TIP3   OH230454   5.131   3.841  16.167  0.4837  0.2222  0.3110
 2988TIP3    H130455   5.141   3.746  16.173  0.4866 -0.0053 -2.0652
 2988TIP3    H230456   5.058   3.854  16.106  0.7024  1.7373  0.3187
 2989TIP3   OH230457   0.533   0.781  15.212  0.5858  0.4007  0.5289
 2989TIP3    H130458   0.566   0.856  15.262 -0.2160 -0.0565  1.7718
 2989TIP3    H230459   0.610   0.725  15.201  1.2323  1.4374 -0.5500
 2990TIP3   OH230460   5.389   3.972  13.725  0.1226 -0.3306 -0.0837
 2990TIP3    H130461   5.352   3.954  13.811 -2.8466 -0.2873 -1.2453
 2990TIP3    H230462   5.409   3.886  13.688  0.6446 -0.3803  0.2938
 2991TIP3   OH230463   5.295   3.410   2.793 -0.5691  0.8917  0.1019
 2991TIP3    H130464   5.265   3.351   2.862  1.6444 -1.2829 -0.6563
 2991TIP3    H230465   5.329   3.486   2.840  1.2534 -0.7079  1.5332
 2992TIP3   OH230466   3.195   2.200   1.081 -0.1871  0.3802  0.0639
 2992TIP3    H130467   3.243   2.121   1.057  0.1706  0.6813 -0.2336
 2992TIP3    H230468   3.261   2.257   1.120 -0.2826  0.8174 -0.3950
 2993TIP3   OH230469   6.417   0.195   4.119  0.4417 -0.1686 -0.1299
 2993TIP3    H130470   6.400   0.106   4.151 -0.2863  0.4541  1.2930
 2993TIP3    H230471   6.453   0.241   4.194  0.1409  0.9381 -0.6448
 2994TIP3   OH230472   2.257   2.984   4.493 -0.3146  0.2622 -0.0380
 2994TIP3    H130473   2.222   2.902   4.528 -0.7272  0.4262 -0.0589
 2994TIP3    H230474   2.324   2.956   4.431  0.2008 -0.0376  0.6381
 2995TIP3   OH230475   2.942   2.495   4.952 -0.2275  0.2680 -0.1312
 2995TIP3    H130476   2.864   2.441   4.945  0.1914 -0.1773 -1.5183
 2995TIP3    H230477   2.908   2.581   4.979 -1.0700 -0.1818  0.3039
 2996TIP3   OH230478   0.017   2.157   5.015  0.1806 -0.9256  0.0418
 2996TIP3    H130479  -0.044   2.106   5.068 -0.6812 -0.8344 -0.8415
 2996TIP3    H230480   0.089   2.096   4.995 -0.6047 -1.6668 -0.5992
 2997TIP3   OH230481   6.154   1.189  13.214  0.6618 -0.5779 -0.3612
 2997TIP3    H130482   6.136   1.218  13.304  1.5806  0.0772 -0.3828
 2997TIP3    H230483   6.157   1.093  13.220 -2.6712 -0.7968 -0.3326
 2998TIP3   OH230484   1.627   1.163  13.779 -0.5465 -0.0750  0.5488
 2998TIP3    H130485   1.673   1.213  13.847  0.2727  1.3927 -1.0002
 2998TIP3    H230486   1.662   1.198  13.697 -2.7233 -0.6035 -0.6681
 2999TIP3   OH230487   1.572   1.142  16.125  0.4723 -0.2861 -0.4182
 2999TIP3    H130488   1.612   1.156  16.211  1.2149  0.8418 -0.9198
 2999TIP3    H230489   1.580   1.227  16.081 -0.2375 -0.7408 -1.4641
 3000TIP3   OH230490   4.983   3.226   3.648  0.0162 -0.6826 -0.0055
 3000TIP3    H130491   5.019   3.141   3.622 -0.3107 -0.9107  0.2734
 3000TIP3    H230492   4.894   3.206   3.678 -0.5096 -0.0629 -1.0966
 3001TIP3   OH230493   6.549   2.671  10.616  0.1792 -0.2981  0.4864
 3001TIP3    H130494   6.465   2.629  10.597  0.0712 -0.0174  0.3493
 3001TIP3    H230495   6.532   2.764  10.609  0.9704 -0.2560 -1.5444
 3002TIP3   OH230496   1.577   5.369   5.338 -0.4800  0.1567 -0.0518
 3002TIP3    H130497   1.586   5.402   5.249 -1.0620 -0.3884 -0.3230
 3002TIP3    H230498   1.514   5.296   5.331 -1.0227  0.5081  0.8916
 3003TIP3   OH230499   5.821   0.549  14.227 -0.0846  0.2791  0.2926
 3003TIP3    H130500   5.740   0.498  14.217  0.3896 -1.2861  3.3713
 3003TIP3    H230501   5.795   0.627  14.274 -0.0454  0.6400 -0.2703
 3004TIP3   OH230502   6.590   0.416  11.169  0.9916  0.2238 -0.1401
 3004TIP3    H130503   6.683   0.405  11.192  1.2437  4.0267  1.3593
 3004TIP3    H230504   6.581   0.374  11.084  3.6667 -1.6378  0.3699
 3005TIP3   OH230505   3.983   4.664   5.373  0.1705 -0.1010  0.5128
 3005TIP3    H130506   3.995   4.686   5.281  1.3093  0.8671  0.8564
 3005TIP3    H230507   3.929   4.585   5.373  0.6234 -0.4375 -0.9972
 3006TIP3   OH230508   4.100   3.079  17.127 -0.5055  0.2364 -0.1784
 3006TIP3    H130509   4.125   3.114  17.042  1.3234  0.3150  0.3462
 3006TIP3    H230510   4.049   3.001  17.108 -0.2050  0.3129 -1.3397
 3007TIP3   OH230511   1.011   1.613   4.599  0.0455  0.0845  0.3352
 3007TIP3    H130512   0.950   1.677   4.635  1.1565  2.3136 -1.4641
 3007TIP3    H230513   0.955   1.550   4.552 -0.9848  0.7508  0.6309
 3008TIP3   OH230514   5.983   5.819   3.605 -0.1370 -0.7411  0.2339
 3008TIP3    H130515   6.016   5.895   3.653 -2.4377  0.5315 -0.0728
 3008TIP3    H230516   5.968   5.752   3.672 -0.1901 -0.1533  0.8133
 3009TIP3   OH230517   5.936   5.079  12.660  0.2281  0.3114 -0.1061
 3009TIP3    H130518   5.927   4.985  12.675  3.8502  0.1015  1.6584
 3009TIP3    H230519   5.987   5.086  12.579 -0.5299  0.8200 -0.5552
 3010TIP3   OH230520   4.097   6.166   0.145 -0.4129  0.5116  0.0099
 3010TIP3    H130521   4.002   6.164   0.142 -0.3877 -0.4878 -0.6680
 3010TIP3    H230522   4.118   6.177   0.238 -1.1823  0.9056  0.1390
 3011TIP3   OH230523   6.605   0.244   2.269  0.1507 -0.0185 -0.0327
 3011TIP3    H130524   6.563   0.329   2.284 -2.6411 -1.3547  0.4813
 3011TIP3    H230525   6.598   0.231   2.175  0.3994  0.2245 -0.0867
 3012TIP3   OH230526   1.558   5.490   0.026  0.1409 -0.3219  0.6061
 3012TIP3    H130527   1.558   5.581   0.058 -3.1247 -0.3045  0.9475
 3012TIP3    H230528   1.592   5.439   0.099  2.1462  0.5711  0.3643
 3013TIP3   OH230529   4.545   2.652   5.453 -0.5157 -0.8446  0.5436
 3013TIP3    H130530   4.455   2.630   5.477 -1.0269  1.0439  0.4723
 3013TIP3    H230531   4.596   2.636   5.533 -1.2026 -0.3361  1.0942
 3014TIP3   OH230532   6.243   5.166   3.058  0.4037 -0.3084 -0.0921
 3014TIP3    H130533   6.326   5.135   3.023  0.6630 -0.6705  0.8347
 3014TIP3    H230534   6.259   5.257   3.083  0.6031 -0.4718  0.3675
 3015TIP3   OH230535   6.478   4.641  10.693 -0.0297  0.2043  0.1442
 3015TIP3    H130536   6.440   4.705  10.633  0.1657 -0.2245 -0.4451
 3015TIP3    H230537   6.571   4.664  10.698  0.0971 -0.1983 -0.2889
 3016TIP3   OH230538   4.474   0.547   3.795 -0.0310  0.8101  0.1403
 3016TIP3    H130539   4.569   0.537   3.788  0.1798  1.8178  1.2538
 3016TIP3    H230540   4.460   0.642   3.796 -0.7592  0.7516  3.0256
 3017TIP3   OH230541   4.343   2.306   3.346  0.5408  0.1884 -0.4671
 3017TIP3    H130542   4.266   2.337   3.393  2.1556  0.3945  2.2919
 3017TIP3    H230543   4.386   2.385   3.315  0.0606  0.1189 -1.3285
 3018TIP3   OH230544   6.000   6.423  16.780 -0.1419 -0.3886  0.2627
 3018TIP3    H130545   5.966   6.458  16.862  0.2022  0.6980 -0.0274
 3018TIP3    H230546   5.932   6.444  16.715  0.0753 -0.2392  0.0799
 3019TIP3   OH230547   2.240   3.852  11.225  0.2245  0.2513 -0.2347
 3019TIP3    H130548   2.245   3.765  11.266 -0.7092 -0.5214 -1.6788
 3019TIP3    H230549   2.311   3.902  11.266  2.5372 -2.0004 -1.2532
 3020TIP3   OH230550   0.678   1.518  13.490 -0.2624  0.2485  0.3072
 3020TIP3    H130551   0.747   1.455  13.513  0.1377  0.9506  1.0570
 3020TIP3    H230552   0.597   1.478  13.525 -0.2242 -0.4746 -0.3917
 3021TIP3   OH230553   0.958   6.015  14.882 -0.0169  0.5938 -0.0514
 3021TIP3    H130554   0.940   5.993  14.791 -0.9982  0.1870  0.2314
 3021TIP3    H230555   0.890   5.970  14.932 -0.0081  1.4963  0.8125
 3022TIP3   OH230556   4.465   4.259   6.467  0.2744  0.0617  0.2098
 3022TIP3    H130557   4.435   4.314   6.539  1.5922  2.1343 -0.7381
 3022TIP3    H230558   4.420   4.294   6.389 -1.4875 -2.4263 -0.0070
 3023TIP3   OH230559   2.253   4.102   4.921 -0.2686 -0.0250 -0.6127
 3023TIP3    H130560   2.190   4.159   4.965  0.8528  1.2605 -0.6030
 3023TIP3    H230561   2.205   4.021   4.904 -1.2693  0.0774  1.3701
 3024TIP3   OH230562   4.874   1.568   0.097 -0.0190 -0.0507 -0.3812
 3024TIP3    H130563   4.779   1.564   0.109 -0.1798  1.5686 -0.9075
 3024TIP3    H230564   4.909   1.512   0.167 -1.3701 -1.5148 -0.8287
 3025TIP3   OH230565   3.078   5.853   0.923 -0.0827  0.2157 -0.9115
 3025TIP3    H130566   3.011   5.864   0.855 -0.0308  1.2271 -0.8070
 3025TIP3    H230567   3.094   5.941   0.956  1.0256 -0.0650 -0.6554
 3026TIP3   OH230568   0.411   1.552   3.987  0.3967  0.5542 -0.2611
 3026TIP3    H130569   0.476   1.540   3.918 -0.6518 -0.4408 -1.1167
 3026TIP3    H230570   0.374   1.639   3.970 -0.7275 -0.1716 -1.7673
 3027TIP3   OH230571   5.259   5.584   3.181 -0.8945 -0.5040  0.0438
 3027TIP3    H130572   5.268   5.547   3.269  4.1473  0.1207  0.1178
 3027TIP3    H230573   5.256   5.678   3.195 -2.5358 -0.4595 -0.4561
 3028TIP3   OH230574   2.234   1.099  17.103 -0.5337  0.3127 -0.4439
 3028TIP3    H130575   2.314   1.052  17.127 -0.5628  1.4664  2.2881
 3028TIP3    H230576   2.264   1.186  17.078 -0.8568  0.4042 -0.5154
 3029TIP3   OH230577   3.033   6.496   1.435 -0.3745 -0.7147  0.0304
 3029TIP3    H130578   2.984   6.540   1.505  1.7077 -0.1260  1.1790
 3029TIP3    H230579   3.060   6.567   1.377  0.8551 -0.7643  0.5250
 3030TIP3   OH230580   5.578   5.459  11.266  0.0755  0.4290  0.4743
 3030TIP3    H130581   5.614   5.488  11.182 -0.2859  0.9174  0.4839
 3030TIP3    H230582   5.614   5.372  11.278  0.2295  0.4000 -0.1330
 3031TIP3   OH230583   6.653   3.013   0.977 -0.0707 -0.2693 -0.0644
 3031TIP3    H130584   6.686   2.927   1.000 -1.8596 -1.0356 -0.2134
 3031TIP3    H230585   6.627   3.052   1.060 -0.7977 -0.5485 -0.1575
 3032TIP3   OH230586   4.664   5.357   2.827  0.2329 -0.5317  0.0454
 3032TIP3    H130587   4.719   5.296   2.876 -1.4799 -2.5770 -0.4048
 3032TIP3    H230588   4.623   5.412   2.894  0.8632 -0.6890  0.5673
 3033TIP3   OH230589   2.979   1.231   2.958 -0.1159  0.1453  0.1645
 3033TIP3    H130590   3.042   1.279   3.011 -1.2661  0.9212  0.8973
 3033TIP3    H230591   2.925   1.299   2.917 -1.9537 -0.4415  1.4390
 3034TIP3   OH230592   0.061   0.624   4.146 -0.6055 -0.0507  0.3361
 3034TIP3    H130593  -0.023   0.620   4.192  0.2293  0.2870  1.9733
 3034TIP3    H230594   0.083   0.532   4.128 -1.2793 -0.1414 -0.0345
 3035TIP3   OH230595   5.988   4.192   6.468  0.0077  0.2634  0.0475
 3035TIP3    H130596   6.062   4.132   6.462  0.7005  1.0222  0.7514
 3035TIP3    H230597   6.027   4.279   6.455 -0.8576  0.6293 -0.1751
 3036TIP3   OH230598   4.849   3.227   0.780  0.2188 -0.2700  0.0178
 3036TIP3    H130599   4.885   3.211   0.867 -0.5340  1.3455  0.6723
 3036TIP3    H230600   4.905   3.295   0.743 -0.3312  0.1030 -0.1542
 3037TIP3   OH230601   0.747   0.710   5.525  0.1381  0.4129  0.3673
 3037TIP3    H130602   0.677   0.668   5.575 -2.3501  0.4662 -2.7277
 3037TIP3    H230603   0.801   0.638   5.493 -1.6097 -0.1858 -1.4099
 3038TIP3   OH230604   5.450   1.819  12.957 -0.1872 -0.1554 -0.2239
 3038TIP3    H130605   5.426   1.861  12.874 -0.3196 -0.5265 -0.3774
 3038TIP3    H230606   5.527   1.766  12.935  0.4490  0.5963  0.1386
 3039TIP3   OH230607   3.338   3.294   0.927 -0.1699  0.4091  0.1014
 3039TIP3    H130608   3.329   3.337   0.841 -0.9896  0.0536  0.0002
 3039TIP3    H230609   3.367   3.205   0.906 -1.3531  0.0036  0.1130
 3040TIP3   OH230610   4.843   2.880  10.599 -0.1103 -0.2654  0.0730
 3040TIP3    H130611   4.913   2.944  10.617 -0.5941 -0.1892  1.9551
 3040TIP3    H230612   4.889   2.803  10.566  0.8387 -0.0791  0.9053
 3041TIP3   OH230613   5.216   0.884  13.090  0.0642 -0.6326  0.1360
 3041TIP3    H130614   5.282   0.832  13.136 -1.2083 -0.2967  2.5016
 3041TIP3    H230615   5.214   0.847  13.002  1.3496 -2.5478  0.8418
 3042TIP3   OH230616   3.636   3.015  13.929 -0.1000 -1.3086  0.7710
 3042TIP3    H130617   3.625   3.104  13.962 -1.4442 -1.4224  0.6840
 3042TIP3    H230618   3.571   2.963  13.976 -1.0244 -1.7700 -0.9123
 3043TIP3   OH230619   4.727   1.245  13.599  0.0079  0.4827 -0.5362
 3043TIP3    H130620   4.732   1.252  13.504  0.0966 -0.6266 -0.6179
 3043TIP3    H230621   4.804   1.194  13.624 -0.7074 -0.3601  0.0007
 3044TIP3   OH230622   3.509   5.395   2.913  0.2257  0.3366 -0.4844
 3044TIP3    H130623   3.573   5.436   2.971  1.9585 -0.9715 -1.3880
 3044TIP3    H230624   3.513   5.445   2.832 -1.0185  1.1554 -0.0773
 3045TIP3   OH230625   5.961   3.582   2.050 -0.6010 -0.6055 -0.1005
 3045TIP3    H130626   5.886   3.626   2.011  0.2322  0.7587 -0.2158
 3045TIP3    H230627   5.925   3.501   2.088 -1.9317 -0.4688 -1.0316
 3046TIP3   OH230628   4.763   5.160  10.458 -0.0651  0.4999  0.3260
 3046TIP3    H130629   4.746   5.082  10.405 -1.1873 -0.7323  2.3671
 3046TIP3    H230630   4.677   5.201  10.470  0.3054  1.2827  0.4187
 3047TIP3   OH230631   6.214   5.528   4.840  0.0508  0.0985 -0.1269
 3047TIP3    H130632   6.269   5.571   4.905  1.6322  0.7026 -1.7825
 3047TIP3    H230633   6.191   5.444   4.880  0.7172  0.5686  1.3142
 3048TIP3   OH230634   2.117   1.828   0.636 -0.0761 -0.1783 -0.1768
 3048TIP3    H130635   2.103   1.749   0.583 -1.2883  1.6004 -2.6997
 3048TIP3    H230636   2.085   1.804   0.723 -2.1313 -1.9441 -1.3055
 3049TIP3   OH230637   5.957   5.422   4.111 -0.0252 -0.1735 -0.1509
 3049TIP3    H130638   5.919   5.342   4.076  0.7547  0.2865 -2.2243
 3049TIP3    H230639   6.030   5.393   4.165 -0.8367 -0.8964  0.5850
 3050TIP3   OH230640   2.836   0.302  15.141 -0.1195 -0.1867  0.1277
 3050TIP3    H130641   2.788   0.358  15.203  0.0975 -1.7627  1.7964
 3050TIP3    H230642   2.795   0.216  15.150 -0.2247 -0.4243 -2.1411
 3051TIP3   OH230643   5.739   0.882   6.123 -0.1594  0.0217  0.1480
 3051TIP3    H130644   5.697   0.967   6.132 -0.0978 -0.0973  1.7416
 3051TIP3    H230645   5.712   0.833   6.201  0.6316 -1.0594 -0.2317
 3052TIP3   OH230646   4.512   2.034  16.721 -0.1668  0.3508 -0.5463
 3052TIP3    H130647   4.554   1.948  16.722  0.2699  0.5632  0.5141
 3052TIP3    H230648   4.578   2.094  16.687  0.4385  0.6920  1.1614
 3053TIP3   OH230649   6.524   5.649   1.951  0.4726  0.3040 -0.2994
 3053TIP3    H130650   6.584   5.708   1.905  0.1941  0.8889  0.0763
 3053TIP3    H230651   6.452   5.635   1.890  0.4846  0.4434 -0.3460
 3054TIP3   OH230652   6.762   2.770   1.026  0.2702  0.1783 -0.4469
 3054TIP3    H130653   6.849   2.736   1.004 -0.1301  0.3772 -2.6203
 3054TIP3    H230654   6.702   2.716   0.975 -0.8007  0.7238  0.2075
 3055TIP3   OH230655   2.822   1.671  14.092 -0.0966  0.3639  0.3783
 3055TIP3    H130656   2.752   1.734  14.076 -0.2163 -0.1308 -1.1331
 3055TIP3    H230657   2.779   1.597  14.134 -0.5222  0.0044 -0.6718
 3056TIP3   OH230658   1.899   4.601  15.546 -0.0066  0.0621  0.2415
 3056TIP3    H130659   1.961   4.576  15.477 -0.3764  3.4410 -1.5678
 3056TIP3    H230660   1.950   4.594  15.627  1.2869 -1.5313 -0.6492
 3057TIP3   OH230661   6.485   0.082   4.783 -1.0893  0.1578  0.1409
 3057TIP3    H130662   6.445   0.161   4.820  3.2654  2.5212  0.4065
 3057TIP3    H230663   6.528   0.040   4.857  0.2632 -0.0063 -0.7155
 3058TIP3   OH230664   3.968   2.766   6.333 -0.2030  0.0142  0.1312
 3058TIP3    H130665   4.021   2.843   6.316  0.7748 -0.8663 -0.9750
 3058TIP3    H230666   3.883   2.801   6.359  0.7031  1.4542  1.3416
 3059TIP3   OH230667   6.623   5.501   3.116 -0.0262 -0.2743 -0.0664
 3059TIP3    H130668   6.687   5.568   3.091  0.3279 -0.7849 -0.5287
 3059TIP3    H230669   6.540   5.548   3.117  0.3285  0.3550  0.3749
 3060TIP3   OH230670   3.192   3.273   4.977  0.3134 -0.4333 -0.7903
 3060TIP3    H130671   3.216   3.311   5.061  1.9138 -1.2922 -0.8031
 3060TIP3    H230672   3.100   3.248   4.987  0.0958  0.6806  0.2210
 3061TIP3   OH230673   3.107   6.813  16.900  0.6718  0.5799  0.2958
 3061TIP3    H130674   3.096   6.888  16.959  1.1924 -0.6958  2.0987
 3061TIP3    H230675   3.062   6.741  16.944 -0.5943 -0.0186 -1.8199
 3062TIP3   OH230676   4.043   4.854   2.112 -0.3211 -0.8300  0.0459
 3062TIP3    H130677   4.111   4.901   2.160 -0.5764 -0.4766  0.0669
 3062TIP3    H230678   3.986   4.923   2.078  0.5459 -0.9666 -1.8484
 3063TIP3   OH230679   6.382   6.453   5.724  0.0035 -0.6278 -0.2718
 3063TIP3    H130680   6.377   6.549   5.728 -0.2239 -0.6553  0.1118
 3063TIP3    H230681   6.299   6.423   5.761 -0.3848 -0.9598 -1.3726
 3064TIP3   OH230682   6.261   0.938  15.540  0.1743  0.1812 -0.3757
 3064TIP3    H130683   6.318   0.952  15.616  0.3583  0.1051 -0.4971
 3064TIP3    H230684   6.301   0.990  15.471 -0.0929  0.3891 -0.3744
 3065TIP3   OH230685   0.269   0.288   5.441  0.2597  0.0418 -0.1662
 3065TIP3    H130686   0.208   0.358   5.422 -0.7806 -0.8338 -0.1586
 3065TIP3    H230687   0.289   0.250   5.356 -0.8443 -0.9752 -0.0074
 3066TIP3   OH230688   1.158   4.878   0.203 -0.6831  0.0894 -0.2368
 3066TIP3    H130689   1.070   4.907   0.179 -0.3923  1.2341  0.0150
 3066TIP3    H230690   1.215   4.919   0.138 -0.2655  0.0194  0.0813
 3067TIP3   OH230691   6.543   0.508   5.031  0.4501 -0.0102 -0.3612
 3067TIP3    H130692   6.607   0.442   5.004  3.1076  1.8764  0.8761
 3067TIP3    H230693   6.578   0.543   5.113 -1.6123  1.9527 -0.2228
 3068TIP3   OH230694   0.064   0.879  11.584  0.0578 -0.1819 -0.1135
 3068TIP3    H130695   0.014   0.798  11.577  1.1138 -1.2591  2.9851
 3068TIP3    H230696   0.104   0.875  11.671 -0.2215  3.9056  0.4088
 3069TIP3   OH230697   3.107   5.060   4.532 -0.1395 -0.1500  0.2754
 3069TIP3    H130698   3.171   5.131   4.534 -1.3911  1.0285  1.0388
 3069TIP3    H230699   3.150   4.987   4.577  1.2867  0.0054 -0.7943
 3070TIP3   OH230700   4.873   4.963  12.052  0.8862 -0.2046  0.1305
 3070TIP3    H130701   4.873   5.029  12.122  0.2090  0.3423 -0.3721
 3070TIP3    H230702   4.795   4.911  12.069  0.9427 -0.3288  0.0104
 3071TIP3   OH230703   4.161   6.265   5.475 -0.1993  0.4977  0.4382
 3071TIP3    H130704   4.166   6.361   5.480 -1.4801  0.6010 -0.1179
 3071TIP3    H230705   4.239   6.235   5.523 -0.3874  1.7980  1.6122
 3072TIP3   OH230706   2.871   5.839  11.726  0.2598 -0.2051 -0.0691
 3072TIP3    H130707   2.866   5.793  11.810  1.0755  1.3760  0.9127
 3072TIP3    H230708   2.783   5.834  11.690  0.4107 -2.8418 -0.2361
 3073TIP3   OH230709   4.722   2.530  11.909 -0.1026 -0.2018 -0.1804
 3073TIP3    H130710   4.767   2.541  11.993 -0.5044  0.4018 -0.0309
 3073TIP3    H230711   4.646   2.475  11.929 -0.6653  0.6252  0.0424
 3074TIP3   OH230712   1.527   5.765   0.095 -0.2299 -0.3585 -0.4992
 3074TIP3    H130713   1.543   5.826   0.167 -0.2309 -0.2363 -0.6013
 3074TIP3    H230714   1.468   5.813   0.036  0.8182  0.0505 -1.2474
 3075TIP3   OH230715   1.565   2.176   0.182  0.2732  0.0653 -0.0166
 3075TIP3    H130716   1.558   2.102   0.241  2.6692 -0.2641 -0.0607
 3075TIP3    H230717   1.652   2.168   0.143 -0.3727  1.5069 -1.9265
 3076TIP3   OH230718   5.858   2.942   0.822 -0.4433 -0.0800 -0.1583
 3076TIP3    H130719   5.937   2.945   0.769 -0.6787 -0.5259 -0.5407
 3076TIP3    H230720   5.820   3.030   0.813 -1.2284 -0.5632 -1.8949
 3077TIP3   OH230721   1.240   4.390  17.002  0.1031  0.3092 -0.1167
 3077TIP3    H130722   1.184   4.449  17.053  0.0672  0.5129 -0.3858
 3077TIP3    H230723   1.182   4.320  16.973  0.1010  0.2485  0.0336
 3078TIP3   OH230724   3.209   1.758  11.655  0.3942  0.1148  0.1541
 3078TIP3    H130725   3.263   1.697  11.603  0.8821  1.3164 -0.7911
 3078TIP3    H230726   3.159   1.807  11.590  1.1853  1.8055  0.7746
 3079TIP3   OH230727   1.864   1.371  11.728  0.5522  0.1705  0.1087
 3079TIP3    H130728   1.851   1.412  11.813  0.8119  0.3854  0.0443
 3079TIP3    H230729   1.938   1.417  11.689  0.2103  0.3165 -0.3843
 3080TIP3   OH230730   5.524   4.171  12.470 -0.5421 -0.1229  0.6177
 3080TIP3    H130731   5.570   4.092  12.440 -0.8419  0.1265 -0.5359
 3080TIP3    H230732   5.433   4.143  12.482 -0.5756 -0.0461  0.5490
 3081TIP3   OH230733   1.259   5.598  10.863  0.0560  0.4344 -0.2684
 3081TIP3    H130734   1.326   5.530  10.869 -1.1824 -0.7299  1.0134
 3081TIP3    H230735   1.187   5.556  10.816 -0.7065  0.8670  0.5046
 3082TIP3   OH230736   3.825   3.441  15.284  0.4644  0.5820 -0.1100
 3082TIP3    H130737   3.830   3.440  15.379  1.0274  1.9235 -0.1007
 3082TIP3    H230738   3.758   3.376  15.262 -0.6721  1.2403  1.2681
 3083TIP3   OH230739   4.500   6.688  12.599 -0.0558  0.5109 -0.3978
 3083TIP3    H130740   4.503   6.593  12.583  1.1964 -0.2263  3.1327
 3083TIP3    H230741   4.409   6.712  12.587  0.0230 -0.4164 -4.1845
 3084TIP3   OH230742   4.253   1.987   4.214  0.4122  0.3648  0.0030
 3084TIP3    H130743   4.299   1.991   4.297  2.3223  1.7290 -1.0417
 3084TIP3    H230744   4.160   1.981   4.238  0.9972 -1.4255  2.1803
 3085TIP3   OH230745   4.675   0.075  16.949  0.2757 -0.4139  0.6997
 3085TIP3    H130746   4.685   0.169  16.962  0.8105 -0.1953 -1.1545
 3085TIP3    H230747   4.733   0.053  16.877 -1.1380 -1.8508 -0.0789
 3086TIP3   OH230748   0.632   1.435   0.637 -0.0648  0.3190 -0.1557
 3086TIP3    H130749   0.566   1.462   0.702  0.0703 -1.3511  0.7232
 3086TIP3    H230750   0.599   1.353   0.602  1.4345 -0.4387  0.1402
 3087TIP3   OH230751   5.952   1.790  15.428 -0.0194  0.2045  0.3514
 3087TIP3    H130752   5.995   1.864  15.471 -0.2076  0.7668 -0.4058
 3087TIP3    H230753   5.978   1.797  15.336 -0.2793 -0.5025  0.2190
 3088TIP3   OH230754   6.819   0.700   4.812  0.2494 -0.7723 -0.5138
 3088TIP3    H130755   6.843   0.792   4.803 -2.2694 -0.1085 -1.2205
 3088TIP3    H230756   6.829   0.663   4.725  1.7873 -1.3486 -0.1181
 3089TIP3   OH230757   1.636   5.283   2.009 -0.4660 -0.0313 -0.3886
 3089TIP3    H130758   1.701   5.233   2.060 -0.0888  0.1286 -0.7036
 3089TIP3    H230759   1.665   5.272   1.918 -0.3584  0.7932 -0.4584
 3090TIP3   OH230760   5.582   5.187  11.509 -0.3370  0.7375  0.6956
 3090TIP3    H130761   5.567   5.111  11.454  1.5330  0.8637 -0.0549
 3090TIP3    H230762   5.595   5.151  11.597  0.5120  0.1829  0.3489
 3091TIP3   OH230763   4.036   1.431  16.447 -0.6021  0.5997 -0.5657
 3091TIP3    H130764   3.946   1.417  16.419 -0.6142 -0.8521  0.0689
 3091TIP3    H230765   4.061   1.348  16.489  1.1943  0.7924 -1.1622
 3092TIP3   OH230766   3.610   2.922   0.931  0.2108 -0.1154 -0.1490
 3092TIP3    H130767   3.594   2.956   1.019 -0.3572 -0.5246 -0.0911
 3092TIP3    H230768   3.658   2.992   0.887  2.3698 -0.7172  1.1243
 3093TIP3   OH230769   0.927   4.613   2.028 -0.5777 -0.1896  0.8374
 3093TIP3    H130770   0.929   4.592   1.935  0.4162  0.8762  0.5904
 3093TIP3    H230771   0.960   4.703   2.033 -0.6978 -0.1984  2.2102
 3094TIP3   OH230772   6.698   6.215  11.439  0.2187  0.2230 -0.1431
 3094TIP3    H130773   6.759   6.272  11.485  0.7094 -0.0195 -0.4819
 3094TIP3    H230774   6.753   6.147  11.401 -0.4146 -0.7566  0.6686
 3095TIP3   OH230775   3.052   2.622  15.768 -0.3848 -0.1615  0.5211
 3095TIP3    H130776   3.011   2.573  15.840 -0.4193  1.7864  1.9125
 3095TIP3    H230777   2.979   2.660  15.721 -0.4910 -2.9200 -1.8250
 3096TIP3   OH230778   3.027   0.219  10.309  0.0748  0.1434 -0.0800
 3096TIP3    H130779   2.986   0.304  10.299  0.9841  0.4555 -1.4193
 3096TIP3    H230780   2.990   0.166  10.238 -1.2766 -0.9401  1.3599
 3097TIP3   OH230781   2.441   4.215  13.501  0.4361  0.2477  0.0004
 3097TIP3    H130782   2.471   4.223  13.591 -0.5884 -1.2622  0.5166
 3097TIP3    H230783   2.412   4.303  13.477  0.0496  0.5269  1.4055
 3098TIP3   OH230784   2.146   1.276  14.018  0.1870  0.0896 -0.1491
 3098TIP3    H130785   2.184   1.354  14.059 -0.2111  1.0127 -1.4612
 3098TIP3    H230786   2.088   1.311  13.950 -0.9141 -1.3378  0.0090
 3099TIP3   OH230787   2.116   3.381   6.578  0.0347  0.1322 -0.1187
 3099TIP3    H130788   2.117   3.361   6.672  0.5093  0.7527  0.0181
 3099TIP3    H230789   2.176   3.317   6.539 -0.7326 -0.6075 -0.1136
 3100TIP3   OH230790   0.394   6.587   4.599  0.3622 -0.0148  0.1441
 3100TIP3    H130791   0.427   6.575   4.688  0.9396  0.0219 -0.0632
 3100TIP3    H230792   0.469   6.570   4.542 -0.0336 -0.1728 -0.3471
 3101TIP3   OH230793   6.237   2.132   2.577 -0.1516 -0.4441 -0.7884
 3101TIP3    H130794   6.224   2.227   2.570  0.4701 -0.2913  0.0472
 3101TIP3    H230795   6.329   2.118   2.555 -0.0646 -0.7694 -0.2417
 3102TIP3   OH230796   1.211   4.220   5.032 -0.8045 -0.6429 -0.3654
 3102TIP3    H130797   1.178   4.309   5.030  1.0157  0.0914  0.0639
 3102TIP3    H230798   1.232   4.199   4.941  0.4806  0.0869 -0.2601
 3103TIP3   OH230799   1.971   2.165   0.688 -0.0515 -0.4527  0.0144
 3103TIP3    H130800   1.991   2.168   0.595 -0.2014  1.0774  0.0156
 3103TIP3    H230801   1.940   2.253   0.710 -1.0470 -1.0746  1.2818
 3104TIP3   OH230802   3.494   6.693   5.710  0.0245  0.2116 -0.1424
 3104TIP3    H130803   3.503   6.680   5.805  0.4150 -0.5313 -0.2794
 3104TIP3    H230804   3.580   6.674   5.675 -0.0899  0.6109 -0.6399
 3105TIP3   OH230805   0.646   4.120  11.997 -0.3365  0.1466  0.0307
 3105TIP3    H130806   0.648   4.141  11.904  0.2504 -1.6041 -0.3933
 3105TIP3    H230807   0.706   4.046  12.007  0.0704  0.6702  1.9114
 3106TIP3   OH230808   2.600   4.718  15.983 -0.0544  0.4341  0.5075
 3106TIP3    H130809   2.646   4.663  16.046 -0.2631 -0.9184 -0.4819
 3106TIP3    H230810   2.513   4.729  16.021  0.1292  0.4722  0.9266
 3107TIP3   OH230811   3.393   0.353   5.023  0.0463  0.6017  0.2223
 3107TIP3    H130812   3.317   0.309   5.062 -0.6726 -2.7862 -4.2298
 3107TIP3    H230813   3.466   0.330   5.081 -1.1828 -2.4286  0.7695
 3108TIP3   OH230814   3.814   4.949   6.207  0.1123 -0.6765 -0.2117
 3108TIP3    H130815   3.755   4.904   6.146  0.2517  1.2733 -1.9216
 3108TIP3    H230816   3.756   4.986   6.274 -0.4176 -0.3844 -0.8150
 3109TIP3   OH230817   5.449   5.884   1.361  0.1329 -0.2897 -0.0014
 3109TIP3    H130818   5.441   5.969   1.404  1.2876 -0.9398  1.5891
 3109TIP3    H230819   5.393   5.891   1.284  0.8465  2.2080 -0.3772
 3110TIP3   OH230820   2.612   0.799  11.057 -0.5696 -0.1169 -0.7491
 3110TIP3    H130821   2.536   0.847  11.024  0.6845  1.7411 -1.1201
 3110TIP3    H230822   2.680   0.814  10.992  1.0110  0.9045  1.0150
 3111TIP3   OH230823   3.367   4.852  12.841  0.0822 -0.3903 -0.4650
 3111TIP3    H130824   3.282   4.895  12.835  0.2374  0.5993  2.6625
 3111TIP3    H230825   3.430   4.917  12.808 -0.0578  0.3462  0.6753
 3112TIP3   OH230826   5.726   4.980  14.353  0.0156  0.0006  0.1446
 3112TIP3    H130827   5.819   4.973  14.332 -0.3657 -0.5038 -1.5067
 3112TIP3    H230828   5.714   5.070  14.383  0.8622  0.3658 -0.5977
 3113TIP3   OH230829   3.236   2.987   0.860 -0.7729  0.4038 -0.6324
 3113TIP3    H130830   3.222   2.980   0.954  0.8371  1.3091 -0.3015
 3113TIP3    H230831   3.167   3.047   0.831  0.2520  2.2078  0.4352
 3114TIP3   OH230832   2.048   1.963   2.841  0.3786 -0.1039 -0.1000
 3114TIP3    H130833   2.041   2.002   2.928 -0.0035  0.7567 -0.5032
 3114TIP3    H230834   2.084   2.033   2.786 -0.9401 -0.0823 -0.9799
 3115TIP3   OH230835   2.769   0.174  14.183  0.7343  0.5734 -0.4642
 3115TIP3    H130836   2.674   0.184  14.187  0.3332 -0.8274 -3.4710
 3115TIP3    H230837   2.783   0.083  14.158  3.0291  0.1889  1.7757
 3116TIP3   OH230838   3.802   4.225   2.947 -0.0070 -0.3730  0.4412
 3116TIP3    H130839   3.855   4.300   2.973 -0.9771  1.0018 -1.3396
 3116TIP3    H230840   3.748   4.207   3.024  1.3734 -0.3401  1.4650
 3117TIP3   OH230841   0.938   4.086  15.361 -0.3328  0.8231 -0.5974
 3117TIP3    H130842   0.885   4.151  15.315  1.7840  1.6337 -2.0213
 3117TIP3    H230843   1.028   4.114  15.348  0.5312 -0.9619  1.0179
 3118TIP3   OH230844   0.475   1.712  14.149 -0.8918 -0.3132  0.3392
 3118TIP3    H130845   0.439   1.642  14.094  0.9147  0.1027 -1.4695
 3118TIP3    H230846   0.447   1.689  14.238 -4.1097 -0.9130 -0.6798
 3119TIP3   OH230847   3.500   0.393   1.045  0.1774 -0.4396  0.5827
 3119TIP3    H130848   3.579   0.343   1.025  0.4693  0.4336 -0.6308
 3119TIP3    H230849   3.533   0.478   1.074 -0.1754  1.0375 -2.7806
 3120TIP3   OH230850   0.547   0.714   5.746  0.8715  0.0096  0.4108
 3120TIP3    H130851   0.507   0.791   5.786 -0.8886 -0.5837 -0.1048
 3120TIP3    H230852   0.603   0.677   5.814 -1.3774 -0.5001  2.0954
 3121TIP3   OH230853   0.171   3.158   0.971  0.0065  0.0612 -0.6335
 3121TIP3    H130854   0.220   3.078   0.952  2.1029  1.0902  0.1266
 3121TIP3    H230855   0.145   3.191   0.884  0.3950 -0.6879 -1.0418
 3122TIP3   OH230856   2.738   5.443  14.213  0.6463  0.4315 -0.2263
 3122TIP3    H130857   2.799   5.511  14.183  1.4838 -0.1388  0.1338
 3122TIP3    H230858   2.652   5.474  14.187  1.2124  0.5914 -2.0172
 3123TIP3   OH230859   0.644   1.210   5.598 -0.4245 -0.2755  0.1767
 3123TIP3    H130860   0.663   1.137   5.539  0.8468 -0.0113  0.2386
 3123TIP3    H230861   0.606   1.278   5.542  1.6348  0.3329 -0.5543
 3124TIP3   OH230862   4.640   0.160  10.933 -0.5204  0.6101  0.8413
 3124TIP3    H130863   4.635   0.120  10.846 -1.7329  1.9858  0.2465
 3124TIP3    H230864   4.569   0.120  10.982  0.4585 -0.5204  1.3892
 3125TIP3   OH230865   5.318   5.911  15.301  0.1126  0.3875 -0.3066
 3125TIP3    H130866   5.349   5.952  15.221  0.8666  0.6216  0.1004
 3125TIP3    H230867   5.271   5.833  15.271 -0.1574  0.8126 -1.0057
 3126TIP3   OH230868   3.135   0.333  10.792  0.0058 -0.3669 -0.0257
 3126TIP3    H130869   3.082   0.286  10.729  2.0114 -0.4633 -1.7563
 3126TIP3    H230870   3.190   0.266  10.833 -0.8808 -0.2265  1.5037
 3127TIP3   OH230871   3.360   0.511  12.498 -0.1957  0.4453  0.0919
 3127TIP3    H130872   3.315   0.426  12.493  0.0367  0.3461 -0.3605
 3127TIP3    H230873   3.302   0.565  12.551  0.2846 -0.3967  1.5302
 3128TIP3   OH230874   3.224   1.743   5.451  0.2548  0.1399  0.0299
 3128TIP3    H130875   3.178   1.812   5.404  0.2354  0.0559 -0.0757
 3128TIP3    H230876   3.316   1.769   5.448  0.2103  0.3311  0.2817
 3129TIP3   OH230877   3.235   2.806  11.319  0.1466 -0.4668  0.0476
 3129TIP3    H130878   3.226   2.832  11.410 -0.7074  2.1504 -0.6744
 3129TIP3    H230879   3.317   2.847  11.290 -0.7494  0.7310 -0.9044
 3130TIP3   OH230880   6.799   1.595  14.676 -0.5198 -0.2074  0.0159
 3130TIP3    H130881   6.832   1.548  14.600 -1.2377 -1.4049  0.4159
 3130TIP3    H230882   6.759   1.674  14.640  0.1092 -0.2272 -0.7369
 3131TIP3   OH230883   5.945   3.066  11.448 -0.2101  0.0972  0.1681
 3131TIP3    H130884   5.862   3.066  11.400 -0.4220  1.5449  0.4904
 3131TIP3    H230885   6.005   3.116  11.392  0.3398 -0.5925  0.1253
 3132TIP3   OH230886   6.412   0.246  16.920  0.0813 -0.3549  0.1403
 3132TIP3    H130887   6.355   0.247  16.996 -0.1025  2.3943  0.0810
 3132TIP3    H230888   6.368   0.302  16.856  0.9203 -1.4470 -1.4740
 3133TIP3   OH230889   0.507   1.526  16.955  0.5235  0.0381  0.0661
 3133TIP3    H130890   0.452   1.573  17.018 -0.1040 -1.5363  0.7440
 3133TIP3    H230891   0.459   1.444  16.938  1.5946 -0.3870 -1.0438
 3134TIP3   OH230892   1.661   3.671   0.348 -0.8406 -0.2138 -0.0810
 3134TIP3    H130893   1.611   3.730   0.404  0.9446  1.4530 -0.1557
 3134TIP3    H230894   1.621   3.585   0.363 -4.7210  1.1663 -1.3333
 3135TIP3   OH230895   6.382   1.753  10.720 -0.1588 -0.5005  0.1697
 3135TIP3    H130896   6.329   1.694  10.667 -1.6803  0.6460  0.3638
 3135TIP3    H230897   6.463   1.765  10.670  0.9518 -3.9572  0.8544
 3136TIP3   OH230898   6.626   1.733  16.715  0.4361  0.0152  0.3411
 3136TIP3    H130899   6.701   1.739  16.657  0.5014 -0.7041  0.3389
 3136TIP3    H230900   6.649   1.664  16.777 -0.5067 -0.7331 -0.1067
 3137TIP3   OH230901   2.208   6.152   1.028 -0.2752  0.0604  0.2640
 3137TIP3    H130902   2.180   6.235   0.990  0.9748  1.1199  1.5921
 3137TIP3    H230903   2.212   6.168   1.122  1.5317 -1.0072  0.4087
 3138TIP3   OH230904   1.670   5.292  15.864  0.1082 -0.0344  0.0794
 3138TIP3    H130905   1.671   5.230  15.937  0.0708  0.1337  0.2266
 3138TIP3    H230906   1.709   5.245  15.791 -0.7453 -0.5420 -0.0639
 3139TIP3   OH230907   6.796   0.005  12.176 -0.4084 -0.8589  0.4925
 3139TIP3    H130908   6.775   0.091  12.210 -0.0705 -1.4790  2.3574
 3139TIP3    H230909   6.858   0.022  12.105 -1.4753  0.4928 -0.1570
 3140TIP3   OH230910   6.203   4.923   1.925  0.1473  0.4989 -0.1421
 3140TIP3    H130911   6.225   4.987   1.992  0.1655  1.1099 -0.7148
 3140TIP3    H230912   6.192   4.841   1.972  2.3974  0.4079  0.3460
 3141TIP3   OH230913   0.381   3.868  12.110  0.2353  0.2253 -0.3268
 3141TIP3    H130914   0.311   3.804  12.126  1.5115 -1.1863 -0.1570
 3141TIP3    H230915   0.458   3.815  12.092  1.0133  1.7553 -1.7620
 3142TIP3   OH230916   1.403   5.415  13.082  0.5110 -0.1173 -0.3872
 3142TIP3    H130917   1.323   5.391  13.130  0.3797  2.1171  0.6233
 3142TIP3    H230918   1.379   5.494  13.035  1.9620  0.2330 -0.5624
 3143TIP3   OH230919   3.771   1.722  11.263  0.0540  0.2119 -0.3927
 3143TIP3    H130920   3.803   1.736  11.174 -0.3966  0.7521 -0.4734
 3143TIP3    H230921   3.694   1.779  11.270 -0.7999 -0.9433 -0.1515
 3144TIP3   OH230922   4.326   0.436   0.669  0.4624  0.4931  0.3068
 3144TIP3    H130923   4.311   0.343   0.651 -1.6063  0.7567  0.3868
 3144TIP3    H230924   4.379   0.437   0.749  1.5502 -0.5916 -0.3629
 3145TIP3   OH230925   3.483   2.240   2.017 -0.2883 -0.1163 -0.6377
 3145TIP3    H130926   3.517   2.153   1.993 -0.6111 -0.1637 -0.9375
 3145TIP3    H230927   3.561   2.296   2.022 -0.0340 -0.5111 -0.0508
 3146TIP3   OH230928   4.664   0.995  12.918 -0.3725 -0.7421  0.2847
 3146TIP3    H130929   4.741   1.028  12.965 -1.1928  1.1367  0.3818
 3146TIP3    H230930   4.590   1.020  12.972 -1.1308 -1.8774 -0.1824
 3147TIP3   OH230931   3.529   0.175  14.036 -0.4562  0.4514 -0.1439
 3147TIP3    H130932   3.542   0.208  13.947  0.1260 -0.7655 -0.5214
 3147TIP3    H230933   3.493   0.088  14.024 -1.3420  0.6732  0.8381
 3148TIP3   OH230934   0.514   0.733   0.090  0.3399  0.2126 -0.5772
 3148TIP3    H130935   0.422   0.710   0.102  0.2465 -0.7496 -2.6590
 3148TIP3    H230936   0.561   0.679   0.153 -0.3968 -0.6496 -0.7519
 3149TIP3   OH230937   4.547   2.529  12.874 -0.0261 -0.3477 -0.1547
 3149TIP3    H130938   4.617   2.554  12.813 -1.0035  1.3850 -0.6424
 3149TIP3    H230939   4.476   2.498  12.817 -0.0382 -1.1585  0.2805
 3150TIP3   OH230940   2.008   4.360  12.765  0.0446 -0.3487  0.0656
 3150TIP3    H130941   2.005   4.273  12.727 -0.8594 -0.8294  1.1714
 3150TIP3    H230942   1.989   4.419  12.692  1.3074 -1.0020 -0.8324
 3151TIP3   OH230943   1.276   6.623   1.999 -0.1431  0.1441  0.3852
 3151TIP3    H130944   1.349   6.580   1.954  0.8959  1.7785  0.4354
 3151TIP3    H230945   1.292   6.716   1.987 -2.2179  0.5512  0.4483
 3152TIP3   OH230946   4.160   3.925   5.999  0.2686 -0.7206 -0.2007
 3152TIP3    H130947   4.249   3.938   5.964  0.2701  0.4144  0.1651
 3152TIP3    H230948   4.174   3.885   6.085  0.5820  1.3431  0.7718
 3153TIP3   OH230949   5.055   0.824  10.491  0.2026  0.6887  0.5083
 3153TIP3    H130950   5.089   0.749  10.442  0.1105  0.8494  0.1938
 3153TIP3    H230951   5.003   0.785  10.561 -0.0976  0.4558  0.1637
 3154TIP3   OH230952   0.329   6.735   1.588 -0.0343  0.8450 -0.0656
 3154TIP3    H130953   0.406   6.755   1.641 -0.2309  1.7576 -0.1143
 3154TIP3    H230954   0.264   6.800   1.614  0.0781  1.7352 -1.8704
 3155TIP3   OH230955   6.532   2.241   2.225  0.0867  0.0844 -0.3560
 3155TIP3    H130956   6.446   2.281   2.228 -1.2282 -2.4326 -1.4523
 3155TIP3    H230957   6.525   2.162   2.278  1.3505 -0.7572 -1.3538
 3156TIP3   OH230958   6.505   3.567   1.897 -0.3613 -0.0231  0.2195
 3156TIP3    H130959   6.507   3.526   1.983 -0.4657 -0.2896  0.0942
 3156TIP3    H230960   6.416   3.554   1.866 -0.0264 -0.9265 -0.4146
 3157TIP3   OH230961   0.475   1.652   3.523 -0.5150 -0.1600  0.3389
 3157TIP3    H130962   0.441   1.721   3.465  0.2491  0.9751  1.2071
 3157TIP3    H230963   0.407   1.584   3.522 -1.0514  0.3624 -0.9381
 3158TIP3   OH230964   4.361   4.171  16.943 -0.2240  0.0728  0.1488
 3158TIP3    H130965   4.397   4.210  16.864 -0.8634 -0.3351 -0.3562
 3158TIP3    H230966   4.268   4.192  16.940 -0.2957 -0.1524  0.6678
 3159TIP3   OH230967   5.115   2.949  12.942 -0.0024  0.8046  0.1999
 3159TIP3    H130968   5.045   3.012  12.960  1.8230  2.9258  0.4314
 3159TIP3    H230969   5.086   2.902  12.865 -1.0515  2.6708 -0.6207
 3160TIP3   OH230970   5.057   0.514  14.633  0.0860 -0.1608 -0.1354
 3160TIP3    H130971   5.055   0.486  14.724  3.1236 -1.5362 -0.3768
 3160TIP3    H230972   4.984   0.468  14.592 -1.1278  0.2426  1.4897
 3161TIP3   OH230973   5.367   1.520  16.768 -0.0151 -0.2005  0.3609
 3161TIP3    H130974   5.459   1.523  16.744  0.0108  1.7129  0.5086
 3161TIP3    H230975   5.339   1.430  16.750  2.0906 -1.0696  1.1922
 3162TIP3   OH230976   4.277   0.144  14.779  0.0899 -0.0619 -0.1401
 3162TIP3    H130977   4.357   0.094  14.793  0.2933  0.5420  0.9777
 3162TIP3    H230978   4.307   0.233  14.761 -0.3021  0.6213  2.1919
 3163TIP3   OH230979   1.471   6.431  15.058  0.4944 -0.0423  0.4188
 3163TIP3    H130980   1.470   6.351  15.006 -0.9558  0.3174 -0.1432
 3163TIP3    H230981   1.547   6.421  15.115  0.8453 -1.4225 -0.2399
 3164TIP3   OH230982   3.597   1.340   3.026  0.4525 -0.3743  0.1067
 3164TIP3    H130983   3.654   1.287   3.083 -0.9708 -0.7611  1.2412
 3164TIP3    H230984   3.508   1.313   3.050 -0.2233  0.3659 -1.4623
 3165TIP3   OH230985   4.981   6.140   5.758  0.2157 -0.2770  0.1825
 3165TIP3    H130986   5.023   6.226   5.750 -1.5640  0.4619 -2.6018
 3165TIP3    H230987   5.052   6.078   5.742  0.7443  0.8709 -2.3987
 3166TIP3   OH230988   0.588   2.790   3.217 -0.2928 -0.0111 -0.1931
 3166TIP3    H130989   0.599   2.836   3.301  0.0887  1.7457 -1.1509
 3166TIP3    H230990   0.537   2.851   3.163 -3.0017 -2.2438 -0.3902
 3167TIP3   OH230991   2.885   1.572   3.669 -0.7253 -0.1305 -0.1483
 3167TIP3    H130992   2.815   1.509   3.651  0.0599 -1.2250  0.4255
 3167TIP3    H230993   2.930   1.535   3.745  0.3501  0.6327 -0.3936
 3168TIP3   OH230994   1.227   1.814   4.601 -0.7006 -0.2702  0.4553
 3168TIP3    H130995   1.165   1.745   4.627  0.6638 -2.4374 -1.5704
 3168TIP3    H230996   1.188   1.852   4.522 -0.4442 -0.2253  0.3505
 3169TIP3   OH230997   1.585   3.467   3.478  0.5500 -0.7013  0.4056
 3169TIP3    H130998   1.600   3.528   3.405  1.0960 -2.2322 -0.8011
 3169TIP3    H230999   1.556   3.524   3.549  0.2023  0.8828 -0.9157
 3170TIP3   OH231000   5.806   5.102  16.340 -0.1000  0.5599  0.6532
 3170TIP3    H131001   5.798   5.100  16.436  0.6479  0.8196  0.7237
 3170TIP3    H231002   5.867   5.173  16.323 -0.5820  0.8107 -0.0476
 3171TIP3   OH231003   0.104   4.924  13.822  0.7406  0.1464  0.0082
 3171TIP3    H131004   0.131   4.980  13.749  0.8947  1.3202  0.9224
 3171TIP3    H231005   0.187   4.900  13.865  0.6181 -0.0275  0.1472
 3172TIP3   OH231006   0.596   4.497   0.164 -0.2450 -0.8089 -0.8202
 3172TIP3    H131007   0.576   4.530   0.252  1.2144 -0.9893 -0.3971
 3172TIP3    H231008   0.689   4.478   0.166 -0.2991 -1.3514 -2.2521
 3173TIP3   OH231009   5.592   2.408  13.401 -0.2201  0.3138 -0.9424
 3173TIP3    H131010   5.519   2.398  13.340 -0.7129  1.1799 -0.5091
 3173TIP3    H231011   5.560   2.371  13.483 -0.5977  1.7036 -0.4434
 3174TIP3   OH231012   2.349   6.389   2.973 -0.0185  0.2666  0.1904
 3174TIP3    H131013   2.329   6.482   2.972 -0.5787  0.1537  0.4236
 3174TIP3    H231014   2.290   6.352   3.039  0.7915 -0.1262  0.7104
 3175TIP3   OH231015   3.770   3.987  10.531 -0.1870  0.2279  0.6555
 3175TIP3    H131016   3.800   4.076  10.516  1.0711 -0.0802  1.1510
 3175TIP3    H231017   3.838   3.932  10.490 -0.6985 -0.5034  0.7619
 3176TIP3   OH231018   5.280   2.902  13.400 -0.0901  0.1301 -0.0626
 3176TIP3    H131019   5.186   2.894  13.416 -0.1612 -0.2328 -0.6235
 3176TIP3    H231020   5.289   2.895  13.305  0.5144  0.0574 -0.0045
 3177TIP3   OH231021   6.409   1.262   4.371  0.7070  0.1855  0.1075
 3177TIP3    H131022   6.425   1.339   4.426  3.9638  0.0492 -0.4532
 3177TIP3    H231023   6.450   1.190   4.419  1.7935 -0.3040 -1.4675
 3178TIP3   OH231024   2.943   6.733   4.286  0.5603 -0.3104  0.0001
 3178TIP3    H131025   2.887   6.795   4.334 -0.0693 -2.3174  2.0456
 3178TIP3    H231026   2.882   6.677   4.239  1.0603 -0.1256 -0.8841
 3179TIP3   OH231027   5.375   1.702  10.644 -0.7357 -0.0182  0.3861
 3179TIP3    H131028   5.311   1.765  10.611 -0.1485  1.3742  1.7938
 3179TIP3    H231029   5.323   1.626  10.668 -1.7035  0.6082  0.3364
 3180TIP3   OH231030   0.265   0.755   5.468 -0.3083 -0.2392 -0.4486
 3180TIP3    H131031   0.238   0.751   5.560  2.3394  0.6395  0.4788
 3180TIP3    H231032   0.307   0.671   5.451  0.6064  0.1661 -0.3027
 3181TIP3   OH231033   1.168   5.500  11.113 -0.3539 -0.3835 -0.1897
 3181TIP3    H131034   1.252   5.465  11.144 -1.1524 -0.4588  2.1038
 3181TIP3    H231035   1.184   5.525  11.022  1.3795 -2.9546 -0.7048
 3182TIP3   OH231036   3.269   5.365   1.029  0.0809  0.0913  0.0916
 3182TIP3    H131037   3.329   5.314   0.975  1.6474  1.2095  0.7019
 3182TIP3    H231038   3.326   5.423   1.080 -1.2800 -1.0124  3.1096
 3183TIP3   OH231039   3.031   0.537  13.183 -0.2387 -0.0190 -0.1156
 3183TIP3    H131040   3.091   0.471  13.150  0.4637 -0.2944  1.6155
 3183TIP3    H231041   3.085   0.593  13.239 -0.9450  1.6764 -1.0580
 3184TIP3   OH231042   4.982   3.096  15.947  0.6403  1.2564  0.2639
 3184TIP3    H131043   5.075   3.110  15.929  0.7129 -0.3981 -0.9915
 3184TIP3    H231044   4.938   3.168  15.901  1.1930  0.5075 -1.5338
 3185TIP3   OH231045   6.690   5.926   3.606  0.2996  0.2970 -0.2084
 3185TIP3    H131046   6.663   5.848   3.557  0.7779  0.2161 -0.3457
 3185TIP3    H231047   6.613   5.949   3.659  0.2091 -0.3643 -0.0442
 3186TIP3   OH231048   1.666   0.593  12.238  0.8900  0.2175  0.4673
 3186TIP3    H131049   1.704   0.509  12.262  0.7436 -0.9137 -2.7477
 3186TIP3    H231050   1.571   0.577  12.241  0.8450  0.5360  0.7106
 3187TIP3   OH231051   5.840   4.522   2.331  0.1675 -0.2435  0.1077
 3187TIP3    H131052   5.839   4.428   2.352  0.1990  0.1053  1.8191
 3187TIP3    H231053   5.747   4.546   2.329  0.1915 -0.0897  0.7746
 3188TIP3   OH231054   3.439   4.592   3.639  0.0787  0.5538 -0.2436
 3188TIP3    H131055   3.533   4.599   3.652  0.3393  0.4244 -1.8200
 3188TIP3    H231056   3.405   4.556   3.721  1.4618  0.0634  0.1295
 3189TIP3   OH231057   6.134   2.053   5.094  0.5660 -0.7669  0.1202
 3189TIP3    H131058   6.100   2.019   5.176  0.4757 -2.0360 -0.4258
 3189TIP3    H231059   6.224   2.021   5.089  1.0669  0.5244  0.3924
 3190TIP3   OH231060   3.495   6.250  14.810 -0.4282  0.7672  0.7893
 3190TIP3    H131061   3.571   6.290  14.853  0.2888 -0.8979  1.1421
 3190TIP3    H231062   3.420   6.291  14.853  0.2648  1.7461  1.1064
 3191TIP3   OH231063   4.440   0.988  15.864 -0.0720  0.1856  0.1119
 3191TIP3    H131064   4.429   0.894  15.877 -0.1772  0.2891  0.8133
 3191TIP3    H231065   4.415   1.027  15.948 -0.4067  0.8675 -0.2940
 3192TIP3   OH231066   2.298   0.487  15.197 -0.6927 -0.0378  0.1533
 3192TIP3    H131067   2.354   0.550  15.243 -0.7107  0.0680  0.0307
 3192TIP3    H231068   2.352   0.457  15.124 -1.0776  0.6465 -0.4219
 3193TIP3   OH231069   5.299   4.393  14.639 -0.5639 -0.6776 -0.2277
 3193TIP3    H131070   5.276   4.332  14.568 -0.4249 -0.9744 -0.0207
 3193TIP3    H231071   5.220   4.399  14.692 -0.6272 -0.5547 -0.3345
 3194TIP3   OH231072   6.337   2.328  15.845  0.1563 -0.6412 -0.1862
 3194TIP3    H131073   6.383   2.249  15.875 -0.0504 -0.8710 -0.4701
 3194TIP3    H231074   6.258   2.331  15.899  0.5018 -0.2415  0.3069
 3195TIP3   OH231075   1.220   0.211  11.808 -0.5748 -0.0105  0.3213
 3195TIP3    H131076   1.288   0.278  11.817  1.8429 -2.0721 -1.0864
 3195TIP3    H231077   1.144   0.258  11.774  0.2278  2.3455  1.5665
 3196TIP3   OH231078   4.951   0.402   4.166  0.0988 -0.3188 -0.0284
 3196TIP3    H131079   5.031   0.370   4.208  1.1167  0.9427 -0.9249
 3196TIP3    H231080   4.893   0.423   4.239  1.5234  1.0708  0.7589
 3197TIP3   OH231081   0.608   4.961  13.228 -0.3724  0.7018  0.0573
 3197TIP3    H131082   0.635   5.025  13.163 -0.1671  0.2673 -0.2886
 3197TIP3    H231083   0.564   5.013  13.295 -0.8221  1.1261 -0.5524
 3198TIP3   OH231084   0.428   5.172  16.541  0.6235 -0.2799 -0.2458
 3198TIP3    H131085   0.418   5.078  16.525  0.4168  0.1879 -3.6499
 3198TIP3    H231086   0.517   5.192  16.513  0.1664  0.7566 -1.0335
 3199TIP3   OH231087   0.069   2.418   5.051  0.0513  0.5929 -0.0088
 3199TIP3    H131088   0.035   2.329   5.041 -0.8373  0.7997  1.0763
 3199TIP3    H231089   0.164   2.408   5.039 -0.2003 -0.1985 -1.7074
 3200TIP3   OH231090   4.650   0.084  14.049  0.4921  0.6782 -0.1521
 3200TIP3    H131091   4.722   0.137  14.014  1.0337  0.4471  0.5867
 3200TIP3    H231092   4.640   0.113  14.140 -0.8290  1.1965 -0.4363
 3201TIP3   OH231093   3.321   2.714   2.816 -0.2404 -0.6991 -0.0415
 3201TIP3    H131094   3.277   2.738   2.898 -0.9583 -0.0025 -0.6099
 3201TIP3    H231095   3.365   2.631   2.836 -0.9922 -0.9081  0.8443
 3202TIP3   OH231096   6.303   2.038  16.802  0.3971 -0.2731  0.4010
 3202TIP3    H131097   6.389   2.080  16.803  0.2197  0.0840  1.4596
 3202TIP3    H231098   6.321   1.949  16.771  0.6518  0.7363 -2.8127
 3203TIP3   OH231099   2.480   6.711   2.534 -0.6900  0.3451  0.4196
 3203TIP3    H131100   2.535   6.668   2.468 -0.1955  2.1617 -0.4018
 3203TIP3    H231101   2.473   6.646   2.604  2.1231 -0.1536  0.3555
 3204TIP3   OH231102   3.586   5.903  16.044 -0.2037  0.2865 -0.5238
 3204TIP3    H131103   3.648   5.895  15.971  1.2336  0.8070  0.5898
 3204TIP3    H231104   3.504   5.930  16.002  0.7686  1.3200 -1.8956
 3205TIP3   OH231105   2.407   3.812  12.471  0.0585  0.3119  0.1500
 3205TIP3    H131106   2.429   3.903  12.490  1.1801 -0.2883  1.9218
 3205TIP3    H231107   2.325   3.797  12.519 -1.4973  0.9912 -2.0796
 3206TIP3   OH231108   6.256   4.869  16.922 -0.0968 -0.0413 -1.0415
 3206TIP3    H131109   6.321   4.934  16.896 -0.3371  0.3302 -0.7377
 3206TIP3    H231110   6.186   4.921  16.963 -0.8372 -0.3786 -1.8579
 3207TIP3   OH231111   0.798   6.096  16.336  0.3276  0.5608 -0.1738
 3207TIP3    H131112   0.881   6.142  16.350  1.4176 -1.4367  0.4801
 3207TIP3    H231113   0.815   6.008  16.370 -1.4638 -0.4672 -1.7655
 3208TIP3   OH231114   5.106   1.409   3.539 -0.0677 -1.0174 -0.0796
 3208TIP3    H131115   5.096   1.403   3.444  2.0660 -2.0038 -0.3039
 3208TIP3    H231116   5.134   1.499   3.555  1.5043 -1.3757 -0.6459
 3209TIP3   OH231117   6.251   6.266  14.807 -0.3421 -0.2963 -0.1460
 3209TIP3    H131118   6.215   6.354  14.813 -0.7756 -0.5189  0.5906
 3209TIP3    H231119   6.174   6.209  14.803 -0.0676 -0.6177 -1.1422
 3210TIP3   OH231120   4.583   1.657   4.571  0.0061 -0.3939 -0.2702
 3210TIP3    H131121   4.538   1.631   4.491  0.2271 -1.1461 -0.1592
 3210TIP3    H231122   4.583   1.579   4.626  3.5277 -1.2264 -1.2291
 3211TIP3   OH231123   4.591   6.280   3.786  0.1759  0.0676  0.2998
 3211TIP3    H131124   4.641   6.359   3.807 -0.4521  0.5522  0.0157
 3211TIP3    H231125   4.656   6.218   3.752  0.7369  0.3158  0.9036
 3212TIP3   OH231126   5.987   1.164   3.285  0.4219  0.7292  0.1278
 3212TIP3    H131127   6.011   1.236   3.344  0.1365  0.1710  0.9430
 3212TIP3    H231128   5.907   1.127   3.323 -0.2209  0.8379 -1.0470
 3213TIP3   OH231129   1.194   0.545   6.019 -0.4054  0.2808 -0.6406
 3213TIP3    H131130   1.188   0.641   6.010  1.2422  0.3675 -1.0657
 3213TIP3    H231131   1.245   0.531   6.098 -0.5596 -0.2559 -0.6337
 3214TIP3   OH231132   4.216   1.415   1.329 -0.1692  0.1801 -1.0217
 3214TIP3    H131133   4.311   1.403   1.334 -0.0525  0.4149 -2.3879
 3214TIP3    H231134   4.199   1.494   1.380  0.2168 -0.4303  0.1084
 3215TIP3   OH231135   3.161   3.454  12.824 -0.2285  0.8191  0.4166
 3215TIP3    H131136   3.076   3.493  12.801 -1.0760 -1.7747 -1.3932
 3215TIP3    H231137   3.168   3.378  12.766  2.1379 -0.5917  2.3819
 3216TIP3   OH231138   4.202   5.815   6.325 -0.1847  0.2828  0.6527
 3216TIP3    H131139   4.207   5.765   6.406  1.1825  0.5054  0.7246
 3216TIP3    H231140   4.149   5.761   6.267  0.8927 -1.0573  0.8753
 3217TIP3   OH231141   5.277   1.882  11.718 -0.1762 -0.1597 -0.0271
 3217TIP3    H131142   5.203   1.938  11.695 -1.1204 -2.2033 -2.4581
 3217TIP3    H231143   5.339   1.893  11.645  0.7958 -0.3518  0.7477
 3218TIP3   OH231144   0.268   4.006  16.057  0.5656  0.2932  0.1830
 3218TIP3    H131145   0.323   3.991  15.981 -1.3864 -3.3679 -0.7146
 3218TIP3    H231146   0.209   4.077  16.030  1.6111  0.8555 -0.6822
 3219TIP3   OH231147   2.079   6.023  14.836 -0.4351  0.1064  0.3920
 3219TIP3    H131148   2.170   6.053  14.836 -0.7463  1.0983 -0.2169
 3219TIP3    H231149   2.037   6.075  14.768 -1.2174 -1.1013 -0.0780
 3220TIP3   OH231150   4.884   1.680  15.784 -0.4110  0.0737 -0.0263
 3220TIP3    H131151   4.873   1.612  15.851  0.2174  1.3232  1.4066
 3220TIP3    H231152   4.801   1.728  15.785 -0.4158  0.0685 -0.1748
 3221TIP3   OH231153   6.533   3.145  13.859  0.1046  0.3294  0.5191
 3221TIP3    H131154   6.453   3.145  13.912  0.6346 -0.3901  1.3566
 3221TIP3    H231155   6.579   3.225  13.885 -0.4663  0.8960 -0.1800
 3222TIP3   OH231156   2.618   6.114  13.020 -0.5047 -0.2591  0.4833
 3222TIP3    H131157   2.628   6.073  12.934  1.6970 -0.6132  0.8506
 3222TIP3    H231158   2.601   6.206  13.001 -1.2341 -0.5415 -0.3117
 3223TIP3   OH231159   5.693   5.085   4.823  0.6415 -0.0264 -0.2773
 3223TIP3    H131160   5.657   5.151   4.882 -1.2040 -0.4398 -0.8726
 3223TIP3    H231161   5.780   5.116   4.801  0.4417  1.3389  0.7888
 3224TIP3   OH231162   0.578   5.564  14.383 -0.5440 -0.6740 -0.0823
 3224TIP3    H131163   0.496   5.574  14.334 -0.1091  0.4278 -0.6266
 3224TIP3    H231164   0.565   5.618  14.461  0.6600  1.8717 -1.5220
 3225TIP3   OH231165   5.280   1.853   0.969  0.0186  0.1904 -0.5276
 3225TIP3    H131166   5.242   1.798   0.900  0.4935  0.1850 -0.7838
 3225TIP3    H231167   5.231   1.935   0.964 -0.2072  0.0527 -0.6160
 3226TIP3   OH231168   4.486   3.434  11.194  0.8379  0.0388 -0.2112
 3226TIP3    H131169   4.497   3.345  11.158 -0.3349  0.1259 -0.8269
 3226TIP3    H231170   4.483   3.421  11.289 -0.6243 -0.7545 -0.3386
 3227TIP3   OH231171   4.420   3.330   3.157  0.2835  1.2597 -0.4552
 3227TIP3    H131172   4.439   3.364   3.244  0.3374  0.8114 -0.2893
 3227TIP3    H231173   4.476   3.381   3.098  1.3650  0.5605 -0.0644
 3228TIP3   OH231174   0.828   2.338   1.982 -0.3649  0.0208 -0.2411
 3228TIP3    H131175   0.754   2.325   1.922  0.3482  0.8089 -1.3440
 3228TIP3    H231176   0.799   2.408   2.040 -1.4386 -1.4056  1.0203
 3229TIP3   OH231177   0.216   2.828  15.987 -0.1786  0.2614 -0.3784
 3229TIP3    H131178   0.292   2.800  15.936  2.0248 -0.5249  3.0136
 3229TIP3    H231179   0.169   2.747  16.006 -0.2663  0.3746 -0.1078
 3230TIP3   OH231180   4.617   5.650   3.062 -0.2127  0.1085 -0.3835
 3230TIP3    H131181   4.589   5.681   3.148  0.3159  1.6995 -0.7540
 3230TIP3    H231182   4.550   5.587   3.035 -1.1724  0.7216  0.5351
 3231TIP3   OH231183   5.036   4.188  17.066 -0.4560 -0.2643  0.4098
 3231TIP3    H131184   5.099   4.260  17.063  0.0155 -0.6991 -0.7948
 3231TIP3    H231185   4.999   4.192  17.154  1.3064 -0.0539  1.1656
 3232TIP3   OH231186   4.200   2.810   3.667  0.3332  0.0797  0.2754
 3232TIP3    H131187   4.258   2.781   3.737  0.4798  0.5210  0.3393
 3232TIP3    H231188   4.174   2.729   3.623  2.0847 -0.0441 -0.6201
 3233TIP3   OH231189   2.161   6.662  14.992  1.1759  0.0269  0.7344
 3233TIP3    H131190   2.183   6.713  14.914 -0.0384 -0.1648  0.2529
 3233TIP3    H231191   2.079   6.700  15.024  0.8355 -0.9052  1.0115
 3234TIP3   OH231192   5.073   4.400  13.238 -0.3478 -0.1258 -0.4293
 3234TIP3    H131193   5.066   4.431  13.148 -0.0325  1.4172  0.0511
 3234TIP3    H231194   5.053   4.477  13.292 -0.6206 -1.0431  0.8232
 3235TIP3   OH231195   4.529   5.750  16.381 -0.1164 -0.2797 -0.3331
 3235TIP3    H131196   4.539   5.845  16.373  2.1113 -0.3911  0.5483
 3235TIP3    H231197   4.593   5.724  16.447 -0.8298 -2.3918 -0.3830
 3236TIP3   OH231198   5.495   6.753   5.062 -0.4039  0.1078 -0.0752
 3236TIP3    H131199   5.435   6.800   5.119 -0.3466  0.2659 -0.1430
 3236TIP3    H231200   5.567   6.725   5.119  0.3659  1.5014 -0.3172
 3237TIP3   OH231201   1.987   4.427   1.026 -0.0274  0.1883 -0.1429
 3237TIP3    H131202   2.057   4.464   1.081 -0.8233  0.6557  0.5805
 3237TIP3    H231203   1.961   4.500   0.969 -1.6273  0.8100  1.3119
 3238TIP3   OH231204   2.493   5.858   4.302  0.0268 -0.1619 -0.1392
 3238TIP3    H131205   2.581   5.893   4.314 -0.5474  0.9168  1.3014
 3238TIP3    H231206   2.500   5.766   4.328  0.7577 -0.1325 -0.2087
 3239TIP3   OH231207   6.058   2.391  11.986 -0.1746 -0.3805 -0.1692
 3239TIP3    H131208   5.996   2.460  11.964 -1.6283 -1.6828 -0.2675
 3239TIP3    H231209   6.097   2.365  11.903 -0.1758 -0.2101 -0.2236
 3240TIP3   OH231210   2.707   0.534  11.082  0.1426  0.0282 -0.5433
 3240TIP3    H131211   2.644   0.464  11.100  1.2238 -0.7343  0.4889
 3240TIP3    H231212   2.664   0.613  11.115 -0.7367 -0.2872 -0.9052
 3241TIP3   OH231213   2.866   2.719  13.576 -0.5952 -0.0055  0.2390
 3241TIP3    H131214   2.888   2.803  13.535  0.8669  0.1663  1.2816
 3241TIP3    H231215   2.877   2.734  13.669 -2.0198 -0.9061  0.5845
 3242TIP3   OH231216   6.763   5.467  15.657 -0.0612  0.4999  0.9190
 3242TIP3    H131217   6.799   5.381  15.676 -0.2183 -0.1310 -1.3837
 3242TIP3    H231218   6.675   5.450  15.624  0.2967  1.4104 -0.6317
 3243TIP3   OH231219   5.717   1.370   5.256  0.0716 -0.2579  1.0763
 3243TIP3    H131220   5.779   1.332   5.318  0.3349 -2.1455 -0.2585
 3243TIP3    H231221   5.659   1.423   5.310  0.9325 -0.9632  2.7723
 3244TIP3   OH231222   2.947   4.237   5.681 -0.5652  0.0951 -0.0130
 3244TIP3    H131223   2.975   4.298   5.749 -0.2925 -1.5112  1.3995
 3244TIP3    H231224   2.869   4.195   5.716 -1.3350  0.3202 -1.3821
 3245TIP3   OH231225   3.528   1.424   0.476 -0.2204 -0.0747 -0.3188
 3245TIP3    H131226   3.448   1.453   0.519  0.3018  0.5922  0.2057
 3245TIP3    H231227   3.598   1.446   0.536  0.3766 -0.5982 -0.8003
 3246TIP3   OH231228   0.593   0.964  11.334 -0.4353 -0.4489  0.4349
 3246TIP3    H131229   0.516   0.949  11.390 -0.4691  1.1703  0.8588
 3246TIP3    H231230   0.574   0.915  11.254 -1.9021 -0.0942  0.5447
 3247TIP3   OH231231   6.390   0.633   0.143  0.0650  0.2136 -0.1415
 3247TIP3    H131232   6.421   0.573   0.075 -0.5182 -1.8409  1.2931
 3247TIP3    H231233   6.302   0.657   0.115  1.0194  2.1173 -1.7466
 3248TIP3   OH231234   3.863   3.655  14.021 -0.4616 -0.9759 -0.5524
 3248TIP3    H131235   3.940   3.706  13.996 -1.8960  0.8501 -1.5144
 3248TIP3    H231236   3.894   3.565  14.028  1.9555 -0.1578  0.1042
 3249TIP3   OH231237   3.009   5.769  15.025 -0.3725 -0.8920 -0.2090
 3249TIP3    H131238   2.973   5.855  15.046  0.6539 -0.7361  1.0814
 3249TIP3    H231239   3.101   5.787  15.002 -0.0722 -1.6665  0.3507
 3250TIP3   OH231240   4.789   2.093   5.796  0.0420 -0.5136 -0.0085
 3250TIP3    H131241   4.767   2.114   5.887  1.1626  1.2072 -0.0792
 3250TIP3    H231242   4.860   2.029   5.803  1.3722  0.9381  0.4226
 3251TIP3   OH231243   2.261   5.676   0.031  0.4737 -0.1791  0.0974
 3251TIP3    H131244   2.213   5.744  -0.016  0.9352 -0.6044 -1.0393
 3251TIP3    H231245   2.283   5.612  -0.036  1.7762 -0.4690  0.7664
 3252TIP3   OH231246   0.684   3.568  15.332 -0.2928 -0.0274  0.2342
 3252TIP3    H131247   0.688   3.494  15.393  0.7710 -0.1423  0.0519
 3252TIP3    H231248   0.661   3.643  15.387 -1.5927 -0.5130  0.3847
 3253TIP3   OH231249   0.585   4.095  10.838  0.4161 -0.3631  0.1747
 3253TIP3    H131250   0.653   4.118  10.901  0.3490  1.5293 -0.3921
 3253TIP3    H231251   0.607   4.006  10.810  2.2235 -0.0676  0.5544
 3254TIP3   OH231252   1.230   0.384   5.441 -0.1317  0.0904 -0.6804
 3254TIP3    H131253   1.224   0.464   5.389 -0.2065 -1.1086 -2.5880
 3254TIP3    H231254   1.285   0.408   5.516 -1.3638  2.2992 -0.4118
 3255TIP3   OH231255   2.609   5.011   5.652  0.1918 -0.5301 -0.0846
 3255TIP3    H131256   2.688   5.035   5.604  0.1171 -0.8032 -0.3414
 3255TIP3    H231257   2.598   4.917   5.637 -0.2713 -0.4636 -0.1807
 3256TIP3   OH231258   1.590   5.904  14.968 -0.3336 -0.7029 -0.1856
 3256TIP3    H131259   1.634   5.843  15.027  0.1059 -0.4080 -0.1950
 3256TIP3    H231260   1.497   5.889  14.982 -0.2314 -1.0229  0.1758
 3257TIP3   OH231261   1.981   4.559  11.105 -0.3671  0.3652  0.2449
 3257TIP3    H131262   2.026   4.635  11.066 -0.1696  0.2073  0.1649
 3257TIP3    H231263   1.936   4.518  11.031 -1.0047  0.7714  0.3981
 3258TIP3   OH231264   1.110   3.264   1.750 -0.1609 -0.0964 -0.2978
 3258TIP3    H131265   1.142   3.339   1.699  0.6846  1.5778  2.4667
 3258TIP3    H231266   1.186   3.238   1.803 -0.7619 -2.2632 -0.4242
 3259TIP3   OH231267   6.456   0.558  15.171  0.1192 -0.4057 -0.2015
 3259TIP3    H131268   6.438   0.626  15.236  2.5059 -0.3485  0.4905
 3259TIP3    H231269   6.375   0.551  15.120 -1.2632  0.7028  1.7157
 3260TIP3   OH231270   0.533   1.911  14.665  0.0700 -0.0739  0.2022
 3260TIP3    H131271   0.618   1.887  14.627  0.6942  0.9814  0.8927
 3260TIP3    H231272   0.553   1.936  14.755 -1.2939 -1.8371  1.0490
 3261TIP3   OH231273   5.184   2.024   3.880 -0.2708  0.1785 -0.1515
 3261TIP3    H131274   5.151   2.114   3.880 -0.2567  0.2252 -1.9107
 3261TIP3    H231275   5.241   2.018   3.957  0.7213  2.0565 -0.6963
 3262TIP3   OH231276   4.953   5.465  13.733  0.1676  0.0983 -0.0219
 3262TIP3    H131277   4.889   5.509  13.677 -0.3179  0.1691  0.5706
 3262TIP3    H231278   4.986   5.535  13.790  0.4315 -0.0327 -0.0118
 3263TIP3   OH231279   5.684   1.684   2.507  1.0820 -0.0757 -0.3161
 3263TIP3    H131280   5.609   1.626   2.521  1.1817 -0.4044 -1.0931
 3263TIP3    H231281   5.652   1.751   2.447  1.3569 -0.1134 -0.5060
 3264TIP3   OH231282   2.997   0.396  13.943 -0.1623 -0.9078 -0.8835
 3264TIP3    H131283   3.023   0.481  13.908 -0.1209 -1.2817 -1.8027
 3264TIP3    H231284   2.973   0.345  13.865 -1.0922 -1.4311 -0.2760
 3265TIP3   OH231285   0.746   3.480   3.084 -0.3216 -0.4270  0.0533
 3265TIP3    H131286   0.736   3.436   3.000  0.4549  0.3647 -0.4686
 3265TIP3    H231287   0.657   3.511   3.105 -0.1155  1.5794 -1.7405
 3266TIP3   OH231288   3.284   4.898   5.638  0.0098  0.8821 -0.0638
 3266TIP3    H131289   3.310   4.876   5.549 -0.4508 -0.6737  0.1544
 3266TIP3    H231290   3.189   4.881   5.640 -0.2865  2.4022  0.3082
 3267TIP3   OH231291   5.111   5.937  14.939  0.0767  0.1265  0.8232
 3267TIP3    H131292   5.109   5.970  15.028  0.1483  0.2231  0.7893
 3267TIP3    H231293   5.019   5.919  14.917 -0.5399  4.0528 -0.5629
 3268TIP3   OH231294   1.218   5.324   1.049 -0.2805  0.1443 -0.1387
 3268TIP3    H131295   1.154   5.274   0.998 -0.2883  0.5437 -0.5306
 3268TIP3    H231296   1.261   5.259   1.104 -0.3760 -0.2764 -0.5549
 3269TIP3   OH231297   1.344   2.375   3.532 -0.3899 -0.0266  0.4194
 3269TIP3    H131298   1.301   2.404   3.612 -1.5535 -0.2661 -0.0970
 3269TIP3    H231299   1.316   2.438   3.465 -0.1141 -0.3124  0.0252
 3270TIP3   OH231300   3.752   0.370  14.142 -0.2376 -0.4648  0.3132
 3270TIP3    H131301   3.824   0.334  14.092 -0.5846 -2.8115  1.3527
 3270TIP3    H231302   3.678   0.311  14.124 -0.7329 -0.5776  2.4194
 3271TIP3   OH231303   3.281   3.773   2.358 -0.1266 -0.0192 -0.1958
 3271TIP3    H131304   3.198   3.796   2.400  0.5156 -0.7722  1.6336
 3271TIP3    H231305   3.284   3.825   2.278 -3.1192 -1.2472 -1.2107
 3272TIP3   OH231306   6.488   4.263  17.238  0.2524  0.2196  0.1474
 3272TIP3    H131307   6.580   4.270  17.213  0.4452 -1.0151  0.4280
 3272TIP3    H231308   6.466   4.348  17.276  1.5238  0.2492  0.8670
 3273TIP3   OH231309   1.635   2.050  12.724 -0.7877 -0.0805 -0.0873
 3273TIP3    H131310   1.598   1.990  12.789  0.8718 -1.7159 -0.5652
 3273TIP3    H231311   1.563   2.065  12.663 -1.9357  0.3258  1.2954
 3274TIP3   OH231312   2.227   1.951   6.260 -0.2841  0.3604  0.1920
 3274TIP3    H131313   2.291   2.022   6.260 -0.1665  0.2653  0.9590
 3274TIP3    H231314   2.274   1.878   6.301 -1.2284  0.6138  1.8003
 3275TIP3   OH231315   0.844   2.378  15.382  0.1910 -0.2150  0.2720
 3275TIP3    H131316   0.815   2.305  15.327 -0.1242  1.5698 -2.0648
 3275TIP3    H231317   0.793   2.453  15.352  1.4535  1.2815  1.6729
 3276TIP3   OH231318   1.357   1.295   3.641 -0.1354  0.2706  0.1789
 3276TIP3    H131319   1.414   1.349   3.696 -0.7464  1.4127 -0.2750
 3276TIP3    H231320   1.271   1.300   3.683  0.2498 -2.3190  1.4711
 3277TIP3   OH231321   3.323   2.904  13.459 -0.2624  0.0387 -0.3953
 3277TIP3    H131322   3.402   2.918  13.512 -1.1445  1.7593  0.5529
 3277TIP3    H231323   3.337   2.960  13.382 -0.3159 -0.0787 -0.4898
 3278TIP3   OH231324   5.878   5.774  10.426 -0.4348  0.1811  0.7914
 3278TIP3    H131325   5.815   5.822  10.481 -1.0208 -0.3988  0.6417
 3278TIP3    H231326   5.835   5.769  10.341  0.0138  0.1524  0.5652
 3279TIP3   OH231327   0.090   3.113  12.485 -0.0796 -0.0323  0.2459
 3279TIP3    H131328   0.143   3.134  12.563 -1.7418  0.0260  1.4132
 3279TIP3    H231329   0.058   3.198  12.455 -2.8431 -0.3121  2.0650
 3280TIP3   OH231330   6.074   3.723   5.584 -0.3888  0.5781 -0.3477
 3280TIP3    H131331   6.163   3.740   5.553  0.7171 -1.9042  1.1742
 3280TIP3    H231332   6.076   3.632   5.613 -2.7109  1.2216  2.2082
 3281TIP3   OH231333   5.432   3.975  11.651 -0.4471  0.0184 -0.2737
 3281TIP3    H131334   5.480   3.938  11.577 -0.3721 -0.8663  0.2040
 3281TIP3    H231335   5.340   3.966  11.626 -0.4071  0.5129 -0.6216
 3282TIP3   OH231336   5.476   1.165  16.178 -0.2274  0.2605 -0.2129
 3282TIP3    H131337   5.423   1.202  16.249  1.0471 -0.1302  0.9888
 3282TIP3    H231338   5.413   1.149  16.107 -1.4901  0.9566  0.7067
 3283TIP3   OH231339   4.111   2.303  11.804 -0.3679  0.1758 -0.2915
 3283TIP3    H131340   4.142   2.230  11.749 -0.6381 -1.6044  1.8048
 3283TIP3    H231341   4.188   2.360  11.812  0.6176 -1.1450  0.0192
 3284TIP3   OH231342   0.784   5.730   3.129 -0.5094  0.5987 -0.1927
 3284TIP3    H131343   0.764   5.790   3.201 -0.4781  0.8319 -0.3742
 3284TIP3    H231344   0.701   5.689   3.107 -0.8346  1.6685 -1.0380
 3285TIP3   OH231345   5.088   6.590  14.614 -0.1711 -0.0891 -0.1029
 3285TIP3    H131346   5.145   6.515  14.593  0.2700 -0.1015  1.0524
 3285TIP3    H231347   5.033   6.601  14.536 -1.7866 -3.0261  0.4607
 3286TIP3   OH231348   6.228   6.471  16.277 -0.2627 -0.0547  0.0798
 3286TIP3    H131349   6.256   6.539  16.339  2.8926 -0.8144 -0.3385
 3286TIP3    H231350   6.222   6.391  16.329  0.0491 -0.2295 -0.1464
 3287TIP3   OH231351   1.032   2.742   1.283  0.3822 -0.2955 -0.1875
 3287TIP3    H131352   1.040   2.647   1.292  0.9027 -0.1344  1.2889
 3287TIP3    H231353   1.098   2.778   1.342  0.4567  1.0010 -1.0122
 3288TIP3   OH231354   5.964   5.631  13.579  1.0772 -0.1277 -0.4338
 3288TIP3    H131355   5.876   5.606  13.605  1.5040 -0.2884  0.9356
 3288TIP3    H231356   5.952   5.680  13.497 -0.2295 -0.4596 -0.4656
 3289TIP3   OH231357   4.132   1.990   0.587 -0.1138 -0.4543 -0.1409
 3289TIP3    H131358   4.112   2.039   0.667 -2.8499 -1.4154 -0.1689
 3289TIP3    H231359   4.173   2.055   0.529  1.4706  0.3738  1.7997
 3290TIP3   OH231360   3.563   0.419  17.251 -0.2158 -0.4633 -0.6355
 3290TIP3    H131361   3.607   0.451  17.172  0.1822  0.6854  0.0277
 3290TIP3    H231362   3.593   0.329  17.260 -1.1917 -1.0163 -2.4375
 3291TIP3   OH231363   2.160   6.794  14.749 -0.5267  0.4948 -0.0003
 3291TIP3    H131364   2.225   6.859  14.723  0.3126  0.8409  2.6170
 3291TIP3    H231365   2.148   6.739  14.672  2.1484  1.0271 -0.9153
 3292TIP3   OH231366   0.515   1.830   0.471  0.1047  0.1383  0.3086
 3292TIP3    H131367   0.546   1.896   0.409 -0.7542  1.4865  1.2524
 3292TIP3    H231368   0.509   1.749   0.420  1.0912  0.8026 -0.9030
 3293TIP3   OH231369   0.038   4.701  13.304  0.0555 -0.6786  0.0568
 3293TIP3    H131370   0.031   4.769  13.371  0.8608 -0.4250 -0.1117
 3293TIP3    H231371   0.118   4.653  13.327 -0.4545 -1.5126  0.1207
 3294TIP3   OH231372   4.273   1.678  13.285  0.4430  0.3541  0.1521
 3294TIP3    H131373   4.213   1.689  13.358 -1.4983 -1.3542 -1.0620
 3294TIP3    H231374   4.311   1.591  13.297 -1.0178 -0.5904 -1.5354
 3295TIP3   OH231375   1.116   6.266   3.884 -0.0162  0.0605  0.1630
 3295TIP3    H131376   1.073   6.184   3.908  0.4473 -0.1093  0.4188
 3295TIP3    H231377   1.194   6.270   3.938 -1.3881  1.9953  2.2062
 3296TIP3   OH231378   0.130   6.580   1.002  0.3438  0.3147  0.7060
 3296TIP3    H131379   0.059   6.640   1.023 -0.1256  0.7151 -1.6779
 3296TIP3    H231380   0.111   6.550   0.913  3.2033  0.5454 -0.1058
 3297TIP3   OH231381   1.982   5.279   0.165  0.8055 -0.0449  0.2458
 3297TIP3    H131382   2.031   5.292   0.247 -0.6376  0.2422  1.0896
 3297TIP3    H231383   2.045   5.301   0.096  1.0609  3.1975  1.3533
 3298TIP3   OH231384   5.336   4.491   2.201 -0.1502 -0.3235  0.2413
 3298TIP3    H131385   5.253   4.538   2.213  0.1233 -0.0676  1.1932
 3298TIP3    H231386   5.328   4.413   2.255  0.1935 -0.3427  0.2691
 3299TIP3   OH231387   5.920   1.056  16.651  0.2200  0.6546  0.1637
 3299TIP3    H131388   5.964   0.971  16.646 -0.6796  0.0523  1.6599
 3299TIP3    H231389   5.975   1.108  16.709 -1.3361 -0.3796  2.7301
 3300TIP3   OH231390   3.129   6.686  16.633 -0.0681 -0.4509 -0.0695
 3300TIP3    H131391   3.197   6.738  16.591  1.5218 -1.1232  1.5327
 3300TIP3    H231392   3.096   6.743  16.704  0.3759 -0.9315  0.5262
 3301TIP3   OH231393   4.546   1.944  14.253  0.2904 -0.0939 -0.3830
 3301TIP3    H131394   4.550   1.852  14.229 -0.1058  0.3125 -2.1473
 3301TIP3    H231395   4.570   1.991  14.173 -1.9226  1.3889 -0.2605
 3302TIP3   OH231396   4.847   5.779   1.867 -0.3445  0.2151 -0.2436
 3302TIP3    H131397   4.782   5.829   1.917 -0.0785 -0.0724  0.4098
 3302TIP3    H231398   4.900   5.735   1.934 -0.9008 -1.3835 -0.7994
 3303TIP3   OH231399   0.183   1.731  12.360 -0.1959 -0.3993  0.1587
 3303TIP3    H131400   0.256   1.670  12.353 -1.0301 -1.3203 -1.3618
 3303TIP3    H231401   0.158   1.748  12.269 -0.2922  1.8783  0.5567
 3304TIP3   OH231402   3.675   5.704  15.579  0.5122 -0.0828 -0.0436
 3304TIP3    H131403   3.706   5.645  15.648  1.2289  0.6338  0.2559
 3304TIP3    H231404   3.741   5.697  15.510 -0.9164 -1.9070 -1.3451
 3305TIP3   OH231405   4.532   3.479  13.521 -0.2875  0.1378  0.3166
 3305TIP3    H131406   4.516   3.539  13.448  3.5190  0.4351 -0.4715
 3305TIP3    H231407   4.521   3.534  13.599 -1.7732  0.4995 -0.1147
 3306TIP3   OH231408   5.200   2.656  15.610 -0.1160  0.7339 -0.0557
 3306TIP3    H131409   5.183   2.575  15.563  0.1647  0.6146  0.0503
 3306TIP3    H231410   5.284   2.687  15.577  0.8769 -0.1716  1.4911
 3307TIP3   OH231411   6.116   5.313   2.707 -0.2583  0.2689 -0.3890
 3307TIP3    H131412   6.172   5.237   2.725 -0.4416  0.0225 -0.8593
 3307TIP3    H231413   6.082   5.338   2.793 -1.1731 -0.9409 -0.3748
 3308TIP3   OH231414   2.212   5.252   5.239  0.0831 -0.2207  0.1562
 3308TIP3    H131415   2.169   5.273   5.322 -0.8755  0.0929 -0.4083
 3308TIP3    H231416   2.306   5.249   5.261 -0.1675 -0.2722  1.2693
 3309TIP3   OH231417   4.305   1.702  16.166  0.4957  0.1524  0.1758
 3309TIP3    H131418   4.257   1.785  16.169  1.9857  1.0565 -0.1336
 3309TIP3    H231419   4.334   1.688  16.256 -0.9842 -0.8285  0.5419
 3310TIP3   OH231420   5.345   2.446   4.552  1.1925  0.2176 -0.3274
 3310TIP3    H131421   5.282   2.515   4.535 -1.6899 -1.5229  2.1948
 3310TIP3    H231422   5.387   2.430   4.467 -1.6776  1.5792 -2.1476
 3311TIP3   OH231423   3.990   6.724   3.399  0.2481 -0.4188  0.0005
 3311TIP3    H131424   4.026   6.660   3.460 -1.5023 -1.0272  0.4566
 3311TIP3    H231425   3.897   6.729   3.421  0.0052  1.0046 -1.1720
 3312TIP3   OH231426   5.119   2.867  11.973  0.2440  0.9896 -0.0667
 3312TIP3    H131427   5.109   2.779  11.939  1.3150  1.0241 -0.4951
 3312TIP3    H231428   5.032   2.890  12.007 -0.1429 -0.0594 -0.3307
 3313TIP3   OH231429   3.624   0.667   1.176 -0.6108  0.3004  0.0763
 3313TIP3    H131430   3.701   0.620   1.208  0.5042  0.7338 -1.8038
 3313TIP3    H231431   3.660   0.739   1.123 -2.3045  1.6163  0.6341
 3314TIP3   OH231432   5.055   3.240  12.805  0.3156 -0.4651 -0.2565
 3314TIP3    H131433   5.136   3.267  12.760 -0.0123  0.4195 -0.3418
 3314TIP3    H231434   4.991   3.231  12.735 -0.5012  2.0291  0.0721
 3315TIP3   OH231435   0.628   1.191   0.306 -0.2668  0.7054 -0.6297
 3315TIP3    H131436   0.629   1.137   0.385  0.7878  2.9471  0.9943
 3315TIP3    H231437   0.555   1.157   0.254 -0.8802 -0.9549  1.2076
 3316TIP3   OH231438   4.588   6.616   3.881 -0.1354 -0.0073  0.0777
 3316TIP3    H131439   4.680   6.637   3.863  0.7262 -3.1381  0.3390
 3316TIP3    H231440   4.559   6.685   3.941  1.0426  2.8009 -2.3020
 3317TIP3   OH231441   0.853   0.816   5.812 -0.2270 -0.0581  0.0692
 3317TIP3    H131442   0.933   0.784   5.772 -0.3935  1.0389 -1.2248
 3317TIP3    H231443   0.783   0.764   5.772 -0.1814 -1.1583  1.3497
 3318TIP3   OH231444   1.878   6.570   3.960  0.3591 -0.1635  0.1218
 3318TIP3    H131445   1.850   6.565   4.051  3.4577 -0.2108  1.1891
 3318TIP3    H231446   1.853   6.486   3.922 -0.4049 -0.4005  1.1227
 3319TIP3   OH231447   6.106   2.200   0.502 -0.0812 -0.1527  0.3130
 3319TIP3    H131448   6.190   2.180   0.460 -0.6141  0.5982 -1.1862
 3319TIP3    H231449   6.108   2.295   0.517 -0.1627 -0.3130  1.4740
 3320TIP3   OH231450   3.620   1.776   4.836 -0.0129  0.2310 -0.2617
 3320TIP3    H131451   3.631   1.835   4.761 -0.5454  1.3339  0.5105
 3320TIP3    H231452   3.540   1.805   4.879  0.6210  0.0395  1.1145
 3321TIP3   OH231453   1.687   2.138   6.230 -0.1673 -0.2368  0.2005
 3321TIP3    H131454   1.594   2.146   6.210 -0.1172  0.9269  0.3392
 3321TIP3    H231455   1.705   2.211   6.290  0.4676 -1.4525  1.5730
 3322TIP3   OH231456   1.908   6.012   3.685  0.0174 -0.4745  0.0894
 3322TIP3    H131457   1.849   6.082   3.658  0.2427 -0.6056 -0.7533
 3322TIP3    H231458   1.927   6.031   3.777  0.6422  0.9921 -0.3088
 3323TIP3   OH231459   3.738   2.232  15.981 -0.6882 -0.7104 -0.0007
 3323TIP3    H131460   3.746   2.181  15.900  0.7586 -1.3775  0.5294
 3323TIP3    H231461   3.715   2.168  16.048 -1.2388 -0.2608  0.2510
 3324TIP3   OH231462   6.416   2.800   2.126 -0.0045 -0.2370 -0.1273
 3324TIP3    H131463   6.392   2.811   2.218 -0.9382  1.3772 -0.5305
 3324TIP3    H231464   6.508   2.824   2.122  0.1060 -0.5445  0.4092
 3325TIP3   OH231465   3.507   2.346  12.162  0.1440 -0.4657  0.1530
 3325TIP3    H131466   3.445   2.411  12.197  1.4722 -0.3104  2.4648
 3325TIP3    H231467   3.522   2.286  12.235  0.1957 -2.4730 -1.4194
 3326TIP3   OH231468   1.330   2.529  13.754  0.0254  0.2966  0.3329
 3326TIP3    H131469   1.325   2.492  13.666 -1.7291  0.8593  0.1511
 3326TIP3    H231470   1.291   2.616  13.745 -1.3244 -0.1052  1.8888
 3327TIP3   OH231471   6.585   4.514   5.701 -0.1291  0.1562 -0.1153
 3327TIP3    H131472   6.549   4.539   5.616  0.6095  1.3623 -0.0983
 3327TIP3    H231473   6.617   4.596   5.739  0.0483 -0.4450  1.0964
 3328TIP3   OH231474   0.446   5.883  12.841  0.3357  0.0324  0.2379
 3328TIP3    H131475   0.377   5.945  12.864 -0.1500 -0.2449 -0.4588
 3328TIP3    H231476   0.470   5.905  12.751  0.2098 -0.7293  0.0062
 3329TIP3   OH231477   6.805   6.781   4.167  0.3465  0.7827  0.3353
 3329TIP3    H131478   6.869   6.808   4.233 -1.3019 -0.8883  2.8118
 3329TIP3    H231479   6.820   6.687   4.156 -0.7585  0.6375 -0.1025
 3330TIP3   OH231480   6.388   3.709   5.916  0.4992 -0.5148  1.2066
 3330TIP3    H131481   6.403   3.781   5.977 -1.7176 -0.2865  1.5764
 3330TIP3    H231482   6.341   3.749   5.842 -0.0385 -1.4056  1.0428
 3331TIP3   OH231483   0.462   3.058   4.038 -0.0889  0.1628 -0.3554
 3331TIP3    H131484   0.404   2.984   4.053 -1.1749  0.9832 -0.4350
 3331TIP3    H231485   0.526   3.052   4.109 -1.6752  0.5928  1.1892
 3332TIP3   OH231486   1.450   2.152  15.597 -0.1032 -0.1765  0.1432
 3332TIP3    H131487   1.512   2.129  15.665 -0.9895 -0.3920  0.8930
 3332TIP3    H231488   1.504   2.176  15.522  0.9387 -3.6855 -0.4046
 3333TIP3   OH231489   6.039   4.664  17.280 -0.2635 -0.6636  0.3867
 3333TIP3    H131490   6.088   4.671  17.361 -0.3004 -2.3804  0.5875
 3333TIP3    H231491   5.957   4.622  17.305  0.3812 -2.7108 -0.7501
 3334TIP3   OH231492   3.948   5.796   0.808 -0.4226 -0.5968  0.1706
 3334TIP3    H131493   3.985   5.719   0.852  2.2116  0.9689  0.9262
 3334TIP3    H231494   4.012   5.865   0.824 -2.3804  1.6128 -1.0230
 3335TIP3   OH231495   6.538   4.950  11.639 -0.0783 -0.3012  0.4327
 3335TIP3    H131496   6.575   4.933  11.553 -0.0745  1.0680  0.1442
 3335TIP3    H231497   6.614   4.957  11.697 -0.0407 -0.3891  0.3940
 3336TIP3   OH231498   5.479   4.229   2.526  0.3921  0.3504 -1.0553
 3336TIP3    H131499   5.532   4.157   2.560 -1.8722 -1.1231 -0.3805
 3336TIP3    H231500   5.431   4.189   2.453 -0.8272  1.1977 -0.7391
 3337TIP3   OH231501   3.298   6.201  16.533  0.1739  0.4005 -0.2958
 3337TIP3    H131502   3.245   6.210  16.454 -0.1275 -1.4212 -0.3594
 3337TIP3    H231503   3.290   6.285  16.577 -1.0629  0.8719 -1.3411
 3338TIP3   OH231504   1.046   1.702  16.557  0.9617 -0.2651 -0.0891
 3338TIP3    H131505   0.966   1.747  16.586 -1.1143 -2.6618 -1.6272
 3338TIP3    H231506   1.083   1.665  16.637 -1.7648 -2.3810  0.3758
 3339TIP3   OH231507   1.461   3.238   3.009  0.0978 -0.5196 -0.0435
 3339TIP3    H131508   1.527   3.170   2.996  0.1245 -0.4232 -0.4495
 3339TIP3    H231509   1.421   3.218   3.093  1.8693  0.4488  1.1006
 3340TIP3   OH231510   6.215   1.337  16.234 -0.4185  0.3855  0.1616
 3340TIP3    H131511   6.262   1.406  16.282  0.1552  1.0168 -1.2405
 3340TIP3    H231512   6.176   1.383  16.159 -1.4106 -0.5407  0.1048
 3341TIP3   OH231513   5.676   4.420  11.171 -0.1136 -0.4324  0.5390
 3341TIP3    H131514   5.696   4.332  11.203 -2.1457 -1.3796 -0.5758
 3341TIP3    H231515   5.654   4.407  11.078  3.5368  1.8933 -0.8608
 3342TIP3   OH231516   6.425   2.283  16.612 -0.4585  0.2087 -0.0476
 3342TIP3    H131517   6.501   2.258  16.559 -1.1398  0.3372 -1.1264
 3342TIP3    H231518   6.367   2.207  16.607 -1.2490  0.8418 -0.8808
 3343TIP3   OH231519   2.293   5.147  14.374  0.4581  0.3005  0.0218
 3343TIP3    H131520   2.223   5.179  14.316 -0.4187  0.2555  1.0354
 3343TIP3    H231521   2.370   5.198  14.347 -0.1600  0.9737 -0.5355
 3344TIP3   OH231522   2.524   5.122  11.179 -0.1750  0.5269 -0.1478
 3344TIP3    H131523   2.544   5.028  11.181 -0.0398  0.5694  1.9904
 3344TIP3    H231524   2.429   5.125  11.166 -0.2587  0.0766  0.3113
 3345TIP3   OH231525   3.313   4.179   3.658 -0.1673 -0.0716 -0.4445
 3345TIP3    H131526   3.283   4.192   3.568  1.0256  0.0828 -0.8395
 3345TIP3    H231527   3.263   4.103   3.689  0.8905 -1.4888 -1.9699
 3346TIP3   OH231528   5.131   1.677  11.043 -1.3872 -0.6580  0.0831
 3346TIP3    H131529   5.164   1.744  10.983 -2.3086  1.7755  2.1035
 3346TIP3    H231530   5.203   1.660  11.103 -2.1457  1.1095  1.5924
 3347TIP3   OH231531   2.199   3.847  11.860 -0.6110  0.0175  0.1166
 3347TIP3    H131532   2.114   3.872  11.824 -2.2089 -1.5275  2.5058
 3347TIP3    H231533   2.203   3.893  11.944  0.7180 -0.2823  0.2336
 3348TIP3   OH231534   4.512   5.157   1.361  0.3639  0.4713 -0.1105
 3348TIP3    H131535   4.529   5.248   1.388 -0.5669  1.0299 -1.3203
 3348TIP3    H231536   4.598   5.121   1.344  0.7767  1.0046  0.7464
 3349TIP3   OH231537   2.443   2.313   1.359  0.0358  0.1237 -0.1309
 3349TIP3    H131538   2.393   2.251   1.413  0.7265 -0.4884 -0.1783
 3349TIP3    H231539   2.478   2.259   1.288  1.6296  0.3313  0.4709
 3350TIP3   OH231540   3.432   6.267   2.923 -0.2409 -0.3517  0.6207
 3350TIP3    H131541   3.513   6.315   2.941 -0.0545 -0.7386  0.8247
 3350TIP3    H231542   3.436   6.190   2.979 -0.2788 -0.8971 -0.1015
 3351TIP3   OH231543   2.217   1.107  11.629 -0.0531 -0.6335 -0.1601
 3351TIP3    H131544   2.245   1.182  11.576 -0.9378  0.4935  0.9198
 3351TIP3    H231545   2.122   1.102  11.615 -0.3679 -0.0881  1.5519
 3352TIP3   OH231546   5.217   0.243   3.661  0.3829  0.3142 -0.4090
 3352TIP3    H131547   5.163   0.322   3.651  1.1256  0.9871  0.7388
 3352TIP3    H231548   5.289   0.270   3.717  0.7464 -1.1461 -0.1391
 3353TIP3   OH231549   4.781   2.250   2.651  0.9383 -0.0377 -0.0217
 3353TIP3    H131550   4.692   2.286   2.651  2.0069  2.9229  0.0723
 3353TIP3    H231551   4.773   2.164   2.609 -1.7800  0.6224 -1.0474
 3354TIP3   OH231552   4.123   4.299  11.650  0.6900  0.9607  0.2052
 3354TIP3    H131553   4.118   4.395  11.646  1.4544  0.9746 -0.7843
 3354TIP3    H231554   4.064   4.269  11.581 -1.2636  0.6256  1.9109
 3355TIP3   OH231555   0.838   3.815  12.784 -0.7076 -0.0658  0.1862
 3355TIP3    H131556   0.765   3.871  12.810  0.3315  0.5624  1.9940
 3355TIP3    H231557   0.913   3.873  12.782  0.2394 -1.1745  1.1953
 3356TIP3   OH231558   4.652   4.191  12.803 -0.2382 -0.0041  0.2757
 3356TIP3    H131559   4.612   4.238  12.730  0.0761  2.2398  1.4832
 3356TIP3    H231560   4.736   4.160  12.769  0.3760  1.9111 -0.0791
 3357TIP3   OH231561   5.166   3.953  11.597 -0.0199  0.3446 -0.9071
 3357TIP3    H131562   5.107   3.927  11.668 -0.7827 -0.3002 -1.7640
 3357TIP3    H231563   5.117   3.935  11.517  1.7760 -1.3068 -1.6937
 3358TIP3   OH231564   5.624   5.628  12.864 -0.9635  0.1339  0.1730
 3358TIP3    H131565   5.576   5.634  12.781 -2.8146  0.2467  1.1945
 3358TIP3    H231566   5.716   5.629  12.838 -1.4564  1.4181 -1.8087
 3359TIP3   OH231567   5.531   3.993   6.284  0.0473 -0.0627 -0.3226
 3359TIP3    H131568   5.513   3.972   6.375 -0.0610  1.7001  0.0848
 3359TIP3    H231569   5.611   4.045   6.286 -0.8313  1.3599 -1.0524
 3360TIP3   OH231570   2.677   2.958  10.582 -0.0397 -0.1508 -0.3503
 3360TIP3    H131571   2.614   3.020  10.545 -2.0299 -2.1524 -0.5672
 3360TIP3    H231572   2.623   2.891  10.624  2.0426 -0.5093  2.0160
 3361TIP3   OH231573   6.320   5.363  16.910 -0.4943 -0.2471 -0.1613
 3361TIP3    H131574   6.400   5.399  16.948 -0.7497  0.1747 -0.0016
 3361TIP3    H231575   6.263   5.440  16.899 -0.6291 -0.4452 -0.8892
 3362TIP3   OH231576   2.970   0.253  12.067 -0.5884 -0.0981 -0.2951
 3362TIP3    H131577   2.978   0.158  12.075  2.6743 -0.1043 -1.6691
 3362TIP3    H231578   3.054   0.287  12.098 -0.5958  2.0949 -2.3515
 3363TIP3   OH231579   1.483   6.163  11.715  0.1447 -0.7968 -0.3491
 3363TIP3    H131580   1.531   6.106  11.656  0.2792 -0.5570 -0.4712
 3363TIP3    H231581   1.538   6.170  11.793  0.1041 -0.8779 -0.3136
 3364TIP3   OH231582   5.572   1.497  16.318 -0.4059 -0.3747  0.5083
 3364TIP3    H131583   5.560   1.460  16.231  0.6115 -1.7679  0.9256
 3364TIP3    H231584   5.667   1.500  16.330 -0.5218 -1.9679  2.2719
 3365TIP3   OH231585   2.710   6.148  11.496  0.3760  0.4736 -0.2413
 3365TIP3    H131586   2.696   6.132  11.402 -2.7828  1.2996 -0.0050
 3365TIP3    H231587   2.699   6.062  11.536  3.6075 -0.2868 -0.6415
 3366TIP3   OH231588   6.206   5.447  11.970 -0.5640  0.4502 -0.1636
 3366TIP3    H131589   6.212   5.541  11.988 -0.2722  0.6448 -1.2073
 3366TIP3    H231590   6.279   5.430  11.910 -0.2493 -0.5659  0.4728
 3367TIP3   OH231591   2.306   4.514  16.737 -0.4081  0.0551 -0.2419
 3367TIP3    H131592   2.245   4.454  16.780  0.9613 -0.1988  1.4789
 3367TIP3    H231593   2.299   4.595  16.787  1.6494 -0.4311  0.9949
 3368TIP3   OH231594   0.348   6.358   3.249 -0.3709 -0.2146  0.2830
 3368TIP3    H131595   0.279   6.324   3.307 -0.9874  0.3705 -0.0873
 3368TIP3    H231596   0.392   6.279   3.216 -2.2985 -0.7652 -1.1998
 3369TIP3   OH231597   3.298   3.879  15.101 -0.4959  0.3865  0.2371
 3369TIP3    H131598   3.304   3.847  15.012 -0.6433 -1.4498  0.8460
 3369TIP3    H231599   3.255   3.964  15.093 -0.7007  0.1567 -1.4050
 3370TIP3   OH231600   6.570   6.418  13.879 -0.0566  0.4286  0.4098
 3370TIP3    H131601   6.598   6.386  13.965 -0.4387  0.0244  0.3854
 3370TIP3    H231602   6.628   6.374  13.817 -0.4970 -0.1279  0.3859
 3371TIP3   OH231603   3.586   3.349  16.585 -0.2955 -0.6010 -0.3805
 3371TIP3    H131604   3.495   3.326  16.567 -0.3365 -1.2686  0.6331
 3371TIP3    H231605   3.629   3.266  16.605  0.5104 -0.2758 -0.6863
 3372TIP3   OH231606   3.366   6.466  11.224  0.5518  0.1367  0.0181
 3372TIP3    H131607   3.307   6.532  11.261 -0.8663 -1.5874  1.0033
 3372TIP3    H231608   3.435   6.455  11.289 -0.3458 -0.7968  0.8434
 3373TIP3   OH231609   6.349   0.611  13.501  0.0079 -0.2087 -0.2447
 3373TIP3    H131610   6.367   0.638  13.411  0.3084 -1.9999 -0.7703
 3373TIP3    H231611   6.381   0.683  13.555 -0.3943  1.0014 -1.5721
 3374TIP3   OH231612   4.923   3.319   6.216 -0.5030  0.6294 -0.4395
 3374TIP3    H131613   4.922   3.252   6.148 -0.4755 -0.5226  0.6437
 3374TIP3    H231614   4.849   3.297   6.273 -0.0234  1.0430  0.3696
 3375TIP3   OH231615   6.422   4.588  12.493 -0.1411 -0.3256  0.1031
 3375TIP3    H131616   6.440   4.549  12.408 -1.5521 -2.4856  0.7295
 3375TIP3    H231617   6.349   4.537  12.528 -1.3108  2.1268  1.5344
 3376TIP3   OH231618   3.193   5.383   1.771 -0.0012  0.0497 -0.2696
 3376TIP3    H131619   3.117   5.420   1.725  0.1582 -0.1538 -0.6959
 3376TIP3    H231620   3.174   5.290   1.777  0.1208  0.0311 -0.1906
 3377TIP3   OH231621   6.240   3.099   1.245 -0.3256 -0.2029  1.0918
 3377TIP3    H131622   6.309   3.069   1.304 -1.0126 -2.1582  0.9708
 3377TIP3    H231623   6.231   3.029   1.181 -1.1941  0.8365  0.0241
 3378TIP3   OH231624   1.066   3.470   5.714 -0.0506  0.5120 -0.5021
 3378TIP3    H131625   1.066   3.546   5.655 -0.0172  0.5228 -0.4881
 3378TIP3    H231626   1.129   3.493   5.782 -0.5624  0.7730 -0.1091
 3379TIP3   OH231627   0.142   5.995  15.539  0.0537 -0.0444 -0.1644
 3379TIP3    H131628   0.048   6.006  15.522 -0.2831 -1.2934  0.7791
 3379TIP3    H231629   0.177   6.085  15.537 -1.0007  0.3757 -1.3144
 3380TIP3   OH231630   5.436   3.540   5.334 -0.5158  0.5630  0.3385
 3380TIP3    H131631   5.413   3.609   5.272 -0.4322  1.2132  1.0160
 3380TIP3    H231632   5.501   3.581   5.392  0.0016 -0.2749  0.3725
 3381TIP3   OH231633   0.196   1.392  13.315  0.1079 -0.1709  0.0376
 3381TIP3    H131634   0.166   1.459  13.376  1.5186  1.1450 -0.6415
 3381TIP3    H231635   0.121   1.376  13.258 -0.8243 -0.5166  1.3032
 3382TIP3   OH231636   5.147   1.511   3.839 -0.1215  0.6045 -0.6496
 3382TIP3    H131637   5.155   1.416   3.831 -2.3176  0.3939 -1.1273
 3382TIP3    H231638   5.234   1.545   3.818  0.9099 -1.3156  0.2719
 3383TIP3   OH231639   5.004   0.261   5.327  0.2043 -0.1396  0.0921
 3383TIP3    H131640   5.049   0.178   5.338  2.0037  0.4554 -2.1613
 3383TIP3    H231641   4.927   0.254   5.383  0.8934 -2.8526  0.8261
 3384TIP3   OH231642   1.003   2.811   2.063 -0.0574  0.1407 -0.8815
 3384TIP3    H131643   0.991   2.896   2.021  0.5946  0.6675 -0.0495
 3384TIP3    H231644   1.008   2.831   2.156  0.8039 -0.7220 -0.7242
 3385TIP3   OH231645   1.796   4.671  10.600 -0.2677 -0.2374  0.0479
 3385TIP3    H131646   1.776   4.754  10.642 -0.0174  0.4532 -1.1487
 3385TIP3    H231647   1.891   4.663  10.606 -0.3660 -0.8924  0.9532
 3386TIP3   OH231648   6.595   3.513   5.788  1.1693  0.2831 -0.1387
 3386TIP3    H131649   6.537   3.574   5.834 -1.8477 -1.6041 -1.1603
 3386TIP3    H231650   6.675   3.563   5.772  0.4827  2.5656  2.7057
 3387TIP3   OH231651   4.869   0.924   0.554  0.1745  0.2375 -0.0453
 3387TIP3    H131652   4.898   0.965   0.473  0.4363  1.0064  0.4215
 3387TIP3    H231653   4.934   0.952   0.619 -0.0677 -0.3117  0.4371
 3388TIP3   OH231654   4.602   6.378  12.562  1.0002  0.4210 -0.0080
 3388TIP3    H131655   4.562   6.363  12.647  0.8960  0.8420  0.0225
 3388TIP3    H231656   4.685   6.421  12.581  1.0566  0.3582 -0.1107
 3389TIP3   OH231657   2.397   3.501  14.535 -0.8426 -0.2843 -0.5419
 3389TIP3    H131658   2.429   3.589  14.518 -0.0443  0.0070  2.0187
 3389TIP3    H231659   2.302   3.507  14.524 -0.6879  0.5847 -1.5073
 3390TIP3   OH231660   6.629   6.532   1.864 -0.3115  0.0575 -0.5380
 3390TIP3    H131661   6.647   6.623   1.841  1.5513  0.3576  1.6924
 3390TIP3    H231662   6.692   6.481   1.812 -0.7121  0.1103 -1.0822
 3391TIP3   OH231663   3.447   5.428   1.801 -0.5871  0.2696 -0.0055
 3391TIP3    H131664   3.480   5.352   1.752  0.7100  0.6466  0.2474
 3391TIP3    H231665   3.353   5.427   1.785 -0.4941 -0.9509 -0.6311
 3392TIP3   OH231666   3.532   0.932  13.271 -1.0121 -0.0099 -0.3292
 3392TIP3    H131667   3.456   0.985  13.248 -1.0641  1.1931  2.2279
 3392TIP3    H231668   3.585   0.989  13.326 -1.3005 -2.6142  3.0270
 3393TIP3   OH231669   6.075   3.978  12.273  0.4066 -0.0783  0.2624
 3393TIP3    H131670   6.142   3.916  12.301  0.1139  0.1398  1.5056
 3393TIP3    H231671   6.072   3.969  12.177 -0.8709 -3.3162  0.4787
 3394TIP3   OH231672   6.617   2.576  15.490  0.1867 -0.1396 -0.8638
 3394TIP3    H131673   6.666   2.603  15.567  0.3745  0.5575 -1.2124
 3394TIP3    H231674   6.685   2.562  15.423  0.0064 -0.4492 -0.9810
 3395TIP3   OH231675   1.581   5.043   5.594  0.2604  0.0573  0.2003
 3395TIP3    H131676   1.556   4.988   5.668 -0.6980  0.0209 -0.1448
 3395TIP3    H231677   1.668   5.077   5.618 -0.0313  0.0361  1.3283
 3396TIP3   OH231678   0.320   3.571   3.419  0.4869  0.0266 -0.6865
 3396TIP3    H131679   0.294   3.663   3.422 -1.3025 -0.4212 -1.2254
 3396TIP3    H231680   0.311   3.540   3.509  1.5511  0.4641 -0.4094
 3397TIP3   OH231681   1.367   5.876  11.766 -0.4857  0.1967  0.0847
 3397TIP3    H131682   1.335   5.840  11.849 -0.2579  0.5406  0.3271
 3397TIP3    H231683   1.363   5.971  11.779  1.5355  0.2636  0.4812
 3398TIP3   OH231684   3.715   4.531   1.696  0.0136 -0.6508 -0.7464
 3398TIP3    H131685   3.626   4.545   1.667  0.3094  1.0596 -0.8915
 3398TIP3    H231686   3.770   4.560   1.623  0.7161 -2.1605 -0.8684
 3399TIP3   OH231687   1.570   0.854  14.974 -0.6516 -0.0900  0.5414
 3399TIP3    H131688   1.525   0.796  15.036 -1.4689  0.8703  0.8808
 3399TIP3    H231689   1.559   0.811  14.889 -0.5914 -0.8011  0.8847
 3400TIP3   OH231690   4.744   1.933  16.973  0.3275  0.0819 -0.7490
 3400TIP3    H131691   4.650   1.943  16.986  0.3905 -1.2196  1.0555
 3400TIP3    H231692   4.752   1.890  16.887 -0.8595 -1.5227 -0.1090
 3401TIP3   OH231693   6.760   5.714  11.242 -0.6814 -0.1491 -0.2285
 3401TIP3    H131694   6.797   5.744  11.159  0.2705 -1.0104 -0.1422
 3401TIP3    H231695   6.823   5.649  11.274 -0.3206  1.0929  1.8076
 3402TIP3   OH231696   3.639   4.183  14.188  0.1149 -0.0139 -0.1073
 3402TIP3    H131697   3.695   4.216  14.258 -1.1952  0.1964  0.8941
 3402TIP3    H231698   3.570   4.135  14.233 -0.0653 -0.9733 -1.3445
 3403TIP3   OH231699   4.815   6.201  14.813  0.0041 -0.0696 -0.5326
 3403TIP3    H131700   4.825   6.108  14.832  0.7346 -0.2614 -1.7524
 3403TIP3    H231701   4.904   6.236  14.813 -0.2683  0.6506 -0.0126
 3404TIP3   OH231702   5.711   1.192  13.399 -0.1530 -0.5608 -0.0743
 3404TIP3    H131703   5.690   1.228  13.486  0.0638 -0.4846 -0.0532
 3404TIP3    H231704   5.647   1.121  13.387 -0.0035 -0.7595  0.2712
 3405TIP3   OH231705   1.293   4.342  13.297  0.4854 -0.2555  0.0005
 3405TIP3    H131706   1.208   4.383  13.284  0.9043  1.1995  1.4604
 3405TIP3    H231707   1.330   4.334  13.208 -0.8237 -0.1802 -0.5710
 3406TIP3   OH231708   4.468   2.875  17.019 -0.3538 -0.2483  0.2785
 3406TIP3    H131709   4.551   2.840  16.990  0.1180  1.4138 -0.5313
 3406TIP3    H231710   4.470   2.868  17.115  1.1821  0.7199  0.3393
 3407TIP3   OH231711   1.311   2.769  15.555 -0.2022 -0.4083 -0.5648
 3407TIP3    H131712   1.329   2.862  15.567 -1.8361 -0.2473  1.1363
 3407TIP3    H231713   1.219   2.766  15.528 -0.9992 -1.5670  1.9552
 3408TIP3   OH231714   4.588   1.005  16.375  0.0367  0.4069  0.1336
 3408TIP3    H131715   4.607   1.005  16.468  2.1527 -1.6148 -0.1892
 3408TIP3    H231716   4.618   1.090  16.344  3.8037 -0.5448  0.6503
 3409TIP3   OH231717   0.724   1.067  15.020  0.1050 -0.2410  0.8169
 3409TIP3    H131718   0.749   1.008  15.091  2.1214  0.9615  1.1677
 3409TIP3    H231719   0.804   1.115  14.999 -1.4192  2.2882  0.4393
 3410TIP3   OH231720   2.129   1.334   6.160  0.4812  0.0578  0.2978
 3410TIP3    H131721   2.133   1.369   6.249 -4.3328 -1.5817  1.4642
 3410TIP3    H231722   2.092   1.406   6.108  2.0110  0.5600 -0.1400
 3411TIP3   OH231723   3.509   0.089  15.011  0.0052  0.2416 -0.0048
 3411TIP3    H131724   3.440   0.082  15.077 -0.9903  1.5965 -0.8203
 3411TIP3    H231725   3.571   0.152  15.047  0.7250 -0.8012  0.6286
 3412TIP3   OH231726   2.266   3.159   2.273 -0.0288  0.3144 -0.1429
 3412TIP3    H131727   2.245   3.220   2.202 -1.1158  1.0351  0.7681
 3412TIP3    H231728   2.183   3.146   2.319  0.7352  0.1661  1.2343
 3413TIP3   OH231729   4.180   2.266  10.667 -0.1783 -0.0321 -0.3163
 3413TIP3    H131730   4.118   2.338  10.658  0.1097  0.1946 -0.5119
 3413TIP3    H231731   4.134   2.190  10.632 -1.8737 -0.7736  3.1345
 3414TIP3   OH231732   0.406   2.220  16.062 -0.1085 -0.0232  0.5189
 3414TIP3    H131733   0.330   2.171  16.092  0.8738 -0.7289  1.9435
 3414TIP3    H231734   0.385   2.244  15.971 -2.2812  0.3689  1.0721
 3415TIP3   OH231735   3.039   5.781  14.258  0.8612  0.0596 -0.5465
 3415TIP3    H131736   3.032   5.862  14.310  1.6582 -0.4397  0.3684
 3415TIP3    H231737   2.959   5.733  14.278  0.7725  0.2488 -0.4453
 3416TIP3   OH231738   2.737   6.679   2.068 -0.1053 -0.0868 -0.0706
 3416TIP3    H131739   2.736   6.584   2.064  3.9293 -0.2436 -0.7714
 3416TIP3    H231740   2.757   6.707   1.979  2.9575  1.0984  0.8763
 3417TIP3   OH231741   1.332   0.754   3.063 -0.2847 -0.3020 -0.3885
 3417TIP3    H131742   1.256   0.740   3.006  0.1056 -1.2283 -0.7040
 3417TIP3    H231743   1.387   0.817   3.016 -0.5526 -0.1156 -0.4542
 3418TIP3   OH231744   1.372   2.803   1.125  0.3692 -0.0765 -0.2399
 3418TIP3    H131745   1.330   2.843   1.048 -2.5353 -0.5012  1.0147
 3418TIP3    H231746   1.395   2.715   1.096  0.3399  0.1392 -0.9528
 3419TIP3   OH231747   5.935   1.415   0.790  0.5761 -0.3687  0.3230
 3419TIP3    H131748   6.013   1.409   0.846  0.1869  0.5056  0.9865
 3419TIP3    H231749   5.868   1.366   0.837  0.3276  0.1244  0.4897
 3420TIP3   OH231750   5.651   5.052   4.179 -0.4402 -0.4495  0.4059
 3420TIP3    H131751   5.727   5.098   4.215  0.0063 -0.6171 -0.3098
 3420TIP3    H231752   5.583   5.060   4.247  0.3962 -0.8009  1.3021
 3421TIP3   OH231753   5.407   1.299  16.423  0.1329  0.3707 -0.0833
 3421TIP3    H131754   5.449   1.383  16.404 -1.2042  1.5174  1.7038
 3421TIP3    H231755   5.378   1.307  16.514 -0.2801 -1.9446  0.0430
 3422TIP3   OH231756   0.151   3.097   4.955  0.0473  0.0168  0.5090
 3422TIP3    H131757   0.152   3.192   4.937 -0.5108 -0.1888 -0.7058
 3422TIP3    H231758   0.174   3.057   4.871  0.8494 -0.9264  1.1585
 3423TIP3   OH231759   6.521   5.014  13.253  0.0302 -0.3350 -0.0182
 3423TIP3    H131760   6.610   5.020  13.287 -1.0154  1.5942  2.7496
 3423TIP3    H231761   6.510   5.094  13.201  0.1451 -0.9985 -1.0936
 3424TIP3   OH231762   5.434   5.803  16.599  0.1148 -0.1662 -0.1031
 3424TIP3    H131763   5.351   5.770  16.564  1.4593 -1.7773 -1.9094
 3424TIP3    H231764   5.417   5.814  16.693 -2.1501 -0.3709 -0.4340
 3425TIP3   OH231765   1.580   3.179  12.351  0.4947  0.3142  0.7885
 3425TIP3    H131766   1.669   3.178  12.315  0.5580  0.3495  0.9455
 3425TIP3    H231767   1.591   3.203  12.443  0.4737 -1.2694  1.2317
 3426TIP3   OH231768   3.071   4.462   1.908  0.0985 -0.2976  0.2487
 3426TIP3    H131769   2.980   4.432   1.901  0.1214 -0.4343  0.4895
 3426TIP3    H231770   3.076   4.502   1.995  0.8057 -2.2124  1.1558
 3427TIP3   OH231771   2.592   2.970  12.363  0.1287 -0.5068 -0.0590
 3427TIP3    H131772   2.564   3.050  12.318  1.4312 -0.2454 -0.4366
 3427TIP3    H231773   2.510   2.923  12.381 -1.0521  2.2068  2.7274
 3428TIP3   OH231774   1.698   4.410   2.538  0.3004 -0.5877  0.6239
 3428TIP3    H131775   1.697   4.378   2.628  1.2531 -0.2808  0.7568
 3428TIP3    H231776   1.737   4.497   2.544  0.2822 -0.5237 -0.0775
 3429TIP3   OH231777   0.523   3.628  16.448  0.6017 -0.0164 -0.0928
 3429TIP3    H131778   0.581   3.610  16.522 -0.8635  1.3249  1.4515
 3429TIP3    H231779   0.579   3.674  16.385  1.3627  0.7886  1.1419
 3430TIP3   OH231780   4.314   2.642   2.237  0.0006 -0.4552 -0.5640
 3430TIP3    H131781   4.300   2.716   2.296  2.9778 -1.0688  1.1058
 3430TIP3    H231782   4.333   2.682   2.153  1.8620  0.7716  0.3764
 3431TIP3   OH231783   2.357   3.633   0.755 -0.6631 -0.3886  0.0865
 3431TIP3    H131784   2.343   3.659   0.846 -0.6367  0.8504 -0.2374
 3431TIP3    H231785   2.285   3.674   0.707 -0.2539 -0.3957 -0.5482
 3432TIP3   OH231786   6.297   1.442  12.166  0.3118  0.5330  0.1339
 3432TIP3    H131787   6.317   1.371  12.105  1.1573  0.0102  1.0008
 3432TIP3    H231788   6.334   1.520  12.126  1.9675 -0.0139  0.5430
 3433TIP3   OH231789   0.067   0.063  15.787  0.2765 -0.4191  0.3589
 3433TIP3    H131790   0.043   0.116  15.863  2.4210  1.0490  0.1395
 3433TIP3    H231791   0.020   0.103  15.714  1.3684  0.8696  0.3067
 3434TIP3   OH231792   1.813   5.579   0.493 -0.0501  0.0430 -0.2357
 3434TIP3    H131793   1.774   5.511   0.548 -0.0273  1.1050  1.1491
 3434TIP3    H231794   1.758   5.656   0.507  1.4201  1.0543  0.3254
 3435TIP3   OH231795   3.760   2.499   4.815 -0.3029  0.2012 -0.2681
 3435TIP3    H131796   3.840   2.498   4.868 -1.4956  1.9363  1.7286
 3435TIP3    H231797   3.759   2.413   4.772  2.0864 -0.2668  0.4221
 3436TIP3   OH231798   6.769   0.441  16.057  0.2785 -0.1505 -0.1570
 3436TIP3    H131799   6.757   0.450  16.151  1.7416 -0.1400  0.0456
 3436TIP3    H231800   6.827   0.513  16.033  0.4406 -0.5364 -0.9552
 3437TIP3   OH231801   0.333   2.779   3.427 -0.2231 -0.1442 -0.6819
 3437TIP3    H131802   0.406   2.759   3.486 -0.7438  1.9922  0.7813
 3437TIP3    H231803   0.360   2.859   3.382 -0.8667 -0.4194 -1.5955
 3438TIP3   OH231804   2.867   2.056   5.128 -0.0808 -0.2011  0.3585
 3438TIP3    H131805   2.882   1.969   5.165 -0.4405  0.2531  1.6246
 3438TIP3    H231806   2.881   2.116   5.202 -3.7098  0.5493  0.6274
 3439TIP3   OH231807   2.357   5.516   6.032  0.1880 -0.0484 -0.3514
 3439TIP3    H131808   2.312   5.565   6.101  2.5470 -0.6712  1.7734
 3439TIP3    H231809   2.433   5.570   6.011 -1.4542  1.1880 -4.1569
 3440TIP3   OH231810   0.518   2.771   4.161  0.7572 -0.3891  0.2960
 3440TIP3    H131811   0.538   2.711   4.233  1.0345  0.8060  1.2633
 3440TIP3    H231812   0.576   2.847   4.177 -0.9390  0.9751  0.2632
 3441TIP3   OH231813   6.520   4.331   3.534  0.0012 -0.6608 -0.1560
 3441TIP3    H131814   6.457   4.375   3.477  0.4677  0.3228  0.0698
 3441TIP3    H231815   6.486   4.242   3.542 -0.7767 -0.4499 -0.9040
 3442TIP3   OH231816   5.040   5.242  16.978  0.3336  0.4673 -0.0166
 3442TIP3    H131817   4.963   5.293  17.005  0.1427  0.9121 -1.3186
 3442TIP3    H231818   5.043   5.169  17.040 -0.3974  1.1245  0.8304
 3443TIP3   OH231819   3.228   1.823   5.766  0.0143 -0.2845 -0.4829
 3443TIP3    H131820   3.146   1.810   5.813  1.1054  2.4403  2.5872
 3443TIP3    H231821   3.285   1.753   5.797 -0.1205 -0.1516  0.0630
 3444TIP3   OH231822   2.728   5.228   6.726 -0.4130  0.0539 -0.2901
 3444TIP3    H131823   2.794   5.178   6.677 -0.0080 -0.7100  0.9755
 3444TIP3    H231824   2.740   5.319   6.698  1.5509  0.0114  0.2807
 3445TIP3   OH231825   3.044   3.519  14.770 -0.0589 -0.5309  0.4556
 3445TIP3    H131826   3.063   3.436  14.815  0.4085 -0.8535 -0.3077
 3445TIP3    H231827   3.128   3.563  14.765 -0.1020 -0.5014 -0.0901
 3446TIP3   OH231828   4.562   6.707   0.174 -0.4012 -0.0281  0.6350
 3446TIP3    H131829   4.559   6.717   0.079  0.7953  1.6904  0.7229
 3446TIP3    H231830   4.653   6.724   0.197 -1.0724  1.7594  2.2553
 3447TIP3   OH231831   2.346   3.879  15.526  1.0781 -0.3771  0.1159
 3447TIP3    H131832   2.382   3.963  15.555  2.0806 -0.3258 -1.2091
 3447TIP3    H231833   2.254   3.882  15.555  1.2291  0.9312  0.5699
 3448TIP3   OH231834   0.360   2.152   3.860 -0.2521 -0.9349  0.4930
 3448TIP3    H131835   0.431   2.211   3.888  0.0740 -1.4186  0.7146
 3448TIP3    H231836   0.379   2.134   3.768 -0.4826 -0.5175  0.3608
 3449TIP3   OH231837   1.294   5.626   4.604  0.5626  0.4471  0.1314
 3449TIP3    H131838   1.352   5.574   4.549 -0.2106  0.7320 -0.9951
 3449TIP3    H231839   1.353   5.683   4.654  1.2731  0.8152 -1.0711
 3450TIP3   OH231840   2.152   4.973  12.185 -0.6173  0.0475  0.1020
 3450TIP3    H131841   2.230   4.917  12.179 -0.1535  0.2418  2.8090
 3450TIP3    H231842   2.146   5.015  12.100  3.3039  1.2987  0.2493
 3451TIP3   OH231843   2.415   5.318   4.599 -0.1266  0.0080 -0.4441
 3451TIP3    H131844   2.365   5.388   4.642 -0.4568 -0.4766 -0.0351
 3451TIP3    H231845   2.353   5.281   4.535  0.1029  0.1917 -0.7788
 3452TIP3   OH231846   6.598   4.670   3.771  0.2115  0.3300  0.3423
 3452TIP3    H131847   6.655   4.695   3.844 -0.2453  0.4480  0.6610
 3452TIP3    H231848   6.548   4.596   3.803 -0.2625  0.6191  0.2863
 3453TIP3   OH231849   5.602   1.111  11.632  0.6165 -0.5006 -0.2816
 3453TIP3    H131850   5.599   1.017  11.615 -0.8679 -0.7054  0.8278
 3453TIP3    H231851   5.695   1.133  11.632  1.1029 -2.3016  1.0503
 3454TIP3   OH231852   6.466   1.422   3.740  0.3184  0.5956  0.0758
 3454TIP3    H131853   6.529   1.419   3.667  0.6568 -0.7491  0.3973
 3454TIP3    H231854   6.513   1.466   3.810  0.1635  1.4540 -0.3447
 3455TIP3   OH231855   0.937   1.428  14.794  0.3781  0.6719  0.5523
 3455TIP3    H131856   0.844   1.422  14.771  0.7343 -0.5421 -0.7033
 3455TIP3    H231857   0.977   1.471  14.718  1.2931 -1.7011 -0.4150
 3456TIP3   OH231858   0.332   1.333   2.567 -0.8092  0.2694  0.8683
 3456TIP3    H131859   0.346   1.240   2.551  0.8179  0.8463 -1.5543
 3456TIP3    H231860   0.298   1.367   2.485  0.4217  2.1069  1.0584
 3457TIP3   OH231861   5.926   5.835  12.178 -0.0812 -0.2248  0.5951
 3457TIP3    H131862   5.941   5.929  12.177 -1.6270  0.0661 -1.2856
 3457TIP3    H231863   5.834   5.824  12.153  0.2820 -2.2441 -0.1041
 3458TIP3   OH231864   6.077   4.919   1.470 -0.1323  0.2669 -0.1713
 3458TIP3    H131865   6.098   4.904   1.378  0.6549  0.1320  0.0196
 3458TIP3    H231866   6.024   4.843   1.495  0.8434 -0.4319 -0.1510
 3459TIP3   OH231867   4.631   4.273  13.471 -0.2436  0.2821 -0.4674
 3459TIP3    H131868   4.553   4.261  13.418 -1.6380  0.4033  1.4322
 3459TIP3    H231869   4.666   4.184  13.483 -1.0691  0.0107  0.0196
 3460TIP3   OH231870   3.551   3.706  14.352  0.1342 -0.0390 -0.5548
 3460TIP3    H131871   3.468   3.746  14.328  0.0931 -0.2823 -0.8111
 3460TIP3    H231872   3.579   3.755  14.430  0.2386  0.7081 -1.0488
 3461TIP3   OH231873   2.492   5.878   0.325 -0.4546  0.2784 -0.3712
 3461TIP3    H131874   2.494   5.793   0.280  0.7846 -0.1223  0.3789
 3461TIP3    H231875   2.424   5.868   0.391  0.1945 -0.4129  0.2067
 3462TIP3   OH231876   0.747   3.227  10.797  0.5952 -0.3281  0.1463
 3462TIP3    H131877   0.737   3.153  10.857  0.8807  0.7394  1.5741
 3462TIP3    H231878   0.680   3.213  10.730  0.3288 -1.6217  0.6498
 3463TIP3   OH231879   4.288   5.417   0.217  0.0214  0.2094  0.2831
 3463TIP3    H131880   4.346   5.488   0.190  1.8194 -1.4631 -0.5206
 3463TIP3    H231881   4.302   5.411   0.312  3.1656 -1.6425 -0.1286
 3464TIP3   OH231882   4.537   6.034   2.534  0.1602  0.3618  0.0571
 3464TIP3    H131883   4.594   6.111   2.542 -0.8234  1.1557 -0.3551
 3464TIP3    H231884   4.449   6.071   2.529 -0.2717 -0.7626 -0.8652
 3465TIP3   OH231885   4.867   1.917  14.308  0.0756  0.2624 -0.3690
 3465TIP3    H131886   4.910   2.002  14.308  2.8242 -1.0117 -1.7623
 3465TIP3    H231887   4.896   1.875  14.389 -0.5118  0.2665 -0.1489
 3466TIP3   OH231888   5.019   4.380  14.200  0.2352  0.9316 -0.9052
 3466TIP3    H131889   4.942   4.422  14.162  0.8638  1.1852 -1.9535
 3466TIP3    H231890   5.035   4.428  14.282 -2.8531 -1.4728  1.3180
 3467TIP3   OH231891   5.380   5.168  16.718 -0.1820 -0.2874 -0.1085
 3467TIP3    H131892   5.386   5.203  16.807  3.1336  1.6256 -0.9267
 3467TIP3    H231893   5.367   5.245  16.663  0.1454 -1.1749 -1.4622
 3468TIP3   OH231894   0.358   4.240  14.340 -0.0734 -0.6048  0.0962
 3468TIP3    H131895   0.295   4.297  14.296  0.7456  0.3547  0.1421
 3468TIP3    H231896   0.340   4.251  14.433 -0.5772 -1.2110  0.0795
 3469TIP3   OH231897   5.934   4.406   0.820  0.1633 -0.3648  0.4720
 3469TIP3    H131898   6.021   4.367   0.827 -0.2236 -0.9790  3.0416
 3469TIP3    H231899   5.874   4.336   0.844 -0.8952  0.5639  0.6484
 3470TIP3   OH231900   4.991   2.562  12.120 -0.3980 -0.0556 -0.1739
 3470TIP3    H131901   4.978   2.467  12.124 -1.3868 -0.1105 -2.8057
 3470TIP3    H231902   5.051   2.574  12.046 -0.2369  1.3750  0.1635
 3471TIP3   OH231903   3.562   6.576   0.271  0.1682 -0.2782  0.0630
 3471TIP3    H131904   3.573   6.484   0.295  0.4060 -0.3319 -0.2564
 3471TIP3    H231905   3.492   6.607   0.328  1.0471 -0.2787  1.1822
 3472TIP3   OH231906   3.679   5.503  16.043  0.4593  0.2532  0.5795
 3472TIP3    H131907   3.744   5.505  16.114  0.4825 -1.3643  0.6487
 3472TIP3    H231908   3.601   5.465  16.083  0.0543  0.5350  0.0634
 3473TIP3   OH231909   5.052   2.514  12.517  0.0185  0.3484  0.1849
 3473TIP3    H131910   5.134   2.473  12.545  0.0587  0.5977  0.4353
 3473TIP3    H231911   5.076   2.568  12.442 -0.3156 -1.3685 -1.2378
 3474TIP3   OH231912   1.630   1.124  13.056  0.4376 -0.1491  0.2299
 3474TIP3    H131913   1.668   1.157  13.138  1.9958  0.1384 -0.5559
 3474TIP3    H231914   1.660   1.187  12.990 -0.5537 -0.5356 -0.6035
 3475TIP3   OH231915   2.151   2.774  17.043 -0.3709  0.3459  0.3769
 3475TIP3    H131916   2.071   2.787  16.992 -0.4410 -0.2379  0.3357
 3475TIP3    H231917   2.219   2.758  16.978 -0.1116  1.3574  0.3868
 3476TIP3   OH231918   5.429   2.755  14.616 -0.2413  0.8363  0.2079
 3476TIP3    H131919   5.398   2.672  14.581 -0.4048  1.1324 -0.3591
 3476TIP3    H231920   5.351   2.810  14.622 -0.1836  0.8543  0.8575
 3477TIP3   OH231921   0.532   0.466   2.494  0.0502 -0.1052 -0.2053
 3477TIP3    H131922   0.436   0.458   2.494 -0.0849  1.1809 -0.1472
 3477TIP3    H231923   0.548   0.557   2.468  1.3184 -0.8014 -2.0633
 3478TIP3   OH231924   1.375   6.816  12.777 -0.6699  0.6859  0.6883
 3478TIP3    H131925   1.447   6.827  12.839  0.9918 -2.5122 -0.4437
 3478TIP3    H231926   1.348   6.905  12.756  1.5261  1.9688  2.7421
 3479TIP3   OH231927   6.613   3.646   2.584 -0.3623  0.1623 -0.7312
 3479TIP3    H131928   6.536   3.666   2.531 -2.6072 -1.0376  1.8353
 3479TIP3    H231929   6.607   3.552   2.600  0.7618  0.3239  0.7987
 3480TIP3   OH231930   0.902   2.196  13.931  0.3105 -0.1082 -0.2188
 3480TIP3    H131931   0.936   2.240  13.853  2.0187 -0.1825  0.4496
 3480TIP3    H231932   0.929   2.251  14.004 -0.1108 -0.7354  0.4274
 3481TIP3   OH231933   5.178   2.259  11.574  0.5287 -0.4022 -0.2962
 3481TIP3    H131934   5.125   2.277  11.497  0.2538  0.4166  0.0745
 3481TIP3    H231935   5.268   2.278  11.546  0.3834  0.3207 -0.2975
 3482TIP3   OH231936   0.114   6.521  14.075  0.5821  0.2551  0.5173
 3482TIP3    H131937   0.189   6.562  14.119  0.5819 -0.9438  1.6915
 3482TIP3    H231938   0.070   6.471  14.143 -0.0870 -0.7571 -0.6035
 3483TIP3   OH231939   4.600   0.528   2.645 -0.3497 -0.2924  0.4836
 3483TIP3    H131940   4.513   0.543   2.683 -0.5853 -1.7055  0.5327
 3483TIP3    H231941   4.584   0.471   2.570  0.4975 -0.2602  0.2701
 3484TIP3   OH231942   2.361   4.188  17.108  0.0516  0.3271 -0.0877
 3484TIP3    H131943   2.411   4.106  17.111  2.4081  1.4902 -2.7680
 3484TIP3    H231944   2.275   4.162  17.077  0.2567 -1.3006  0.5811
 3485TIP3   OH231945   2.809   6.050   4.218 -0.1117 -0.2164  0.5380
 3485TIP3    H131946   2.888   6.068   4.167  1.8048 -0.6717  3.1818
 3485TIP3    H231947   2.811   6.112   4.291 -1.1492 -1.5137  1.7338
 3486TIP3   OH231948   3.788   5.255   2.773  0.0860  0.5388  0.0137
 3486TIP3    H131949   3.808   5.336   2.820  3.0792  0.0667 -0.2207
 3486TIP3    H231950   3.840   5.261   2.692 -2.3498 -0.1325 -1.7214
 3487TIP3   OH231951   3.885   2.329  13.286  0.0553  0.3940 -0.1200
 3487TIP3    H131952   3.847   2.381  13.214 -0.2825 -0.5940 -0.6850
 3487TIP3    H231953   3.887   2.388  13.360 -4.6399  0.0645  0.6188
 3488TIP3   OH231954   3.709   4.533  15.235  0.0780  0.1394 -0.5394
 3488TIP3    H131955   3.661   4.616  15.231 -1.3249 -0.6353 -0.5266
 3488TIP3    H231956   3.660   4.481  15.299  1.8706 -0.1352  0.6549
 3489TIP3   OH231957   2.955   1.439   3.925  0.3341  0.2020 -0.3741
 3489TIP3    H131958   2.867   1.409   3.947 -0.7075  2.8758 -0.5182
 3489TIP3    H231959   2.989   1.476   4.006  0.4563  1.0426 -0.7904
 3490TIP3   OH231960   6.468   2.716   6.060 -0.0611 -0.1703  0.4818
 3490TIP3    H131961   6.376   2.742   6.061 -0.1386 -0.4021  2.3175
 3490TIP3    H231962   6.515   2.794   6.033 -0.7870 -0.0601 -0.5179
 3491TIP3   OH231963   2.274   3.261   0.414  0.0166 -0.3313 -0.8539
 3491TIP3    H131964   2.290   3.331   0.350  0.0704  1.5586  1.1198
 3491TIP3    H231965   2.180   3.246   0.410  0.2510 -1.5538 -2.6377
 3492TIP3   OH231966   2.978   4.356  16.953 -0.6190  0.7030  0.1224
 3492TIP3    H131967   3.049   4.344  16.890  0.4137  0.0902  1.3630
 3492TIP3    H231968   2.983   4.449  16.978 -0.2393  0.6577  0.2152
 3493TIP3   OH231969   6.629   2.353  14.856 -0.0054  0.4001  0.5317
 3493TIP3    H131970   6.559   2.295  14.828 -0.7565  1.2520  0.6136
 3493TIP3    H231971   6.709   2.312  14.823 -0.7788  1.1251 -2.5441
 3494TIP3   OH231972   6.168   6.801   6.110 -0.2281  0.3519 -0.1056
 3494TIP3    H131973   6.224   6.747   6.165  0.4030  0.6504 -0.4432
 3494TIP3    H231974   6.193   6.891   6.131 -0.9524  0.5122  0.1202
 3495TIP3   OH231975   3.465   2.980   2.030  0.0230  0.4658  0.6071
 3495TIP3    H131976   3.377   2.964   1.998 -0.2472  0.5972  1.2757
 3495TIP3    H231977   3.460   3.062   2.078  0.2608 -0.0507  1.5545
 3496TIP3   OH231978   3.281   1.552   6.423  0.2220 -0.0030  0.3482
 3496TIP3    H131979   3.345   1.481   6.422  1.6596  1.2063  1.4790
 3496TIP3    H231980   3.315   1.614   6.488 -0.7654  1.8880 -0.8448
 3497TIP3   OH231981   1.612   3.666   3.282  0.6859 -0.2264 -0.3609
 3497TIP3    H131982   1.641   3.639   3.195 -0.4048  0.3989 -0.9377
 3497TIP3    H231983   1.533   3.717   3.266  0.5947  0.0860  0.9865
 3498TIP3   OH231984   2.448   4.248   5.979 -0.3001  0.0823 -0.5688
 3498TIP3    H131985   2.459   4.297   6.060  1.1268  1.5560 -1.5994
 3498TIP3    H231986   2.528   4.264   5.930 -0.3986 -2.1543 -1.5897
 3499TIP3   OH231987   5.576   0.352   1.869  0.3772  0.4200 -0.2585
 3499TIP3    H131988   5.593   0.279   1.929 -1.7520 -0.1082 -0.2004
 3499TIP3    H231989   5.552   0.425   1.926 -2.7720 -0.3873 -0.3241
 3500TIP3   OH231990   1.951   3.828  15.304 -0.2628  0.7746 -0.0913
 3500TIP3    H131991   1.950   3.891  15.376  0.4349  1.0590 -0.3207
 3500TIP3    H231992   1.950   3.883  15.225 -0.7955  0.4704 -0.2983
 3501TIP3   OH231993   2.582   5.472   3.143 -0.2208 -0.1727 -0.2596
 3501TIP3    H131994   2.499   5.462   3.188 -0.2490  0.1176 -0.2428
 3501TIP3    H231995   2.561   5.461   3.050 -0.4056  0.6118 -0.3172
 3502TIP3   OH231996   5.349   1.794   4.940 -0.0113 -0.3132 -0.2690
 3502TIP3    H131997   5.256   1.814   4.928 -0.1625 -1.6159 -1.4013
 3502TIP3    H231998   5.394   1.856   4.883 -0.1634  0.3424  0.3061
 3503TIP3   OH231999   1.092   5.195  10.945 -0.0578 -0.3641 -0.0206
 3503TIP3    H132000   1.138   5.153  10.872 -0.4168  0.8228 -0.9637
 3503TIP3    H232001   1.073   5.283  10.913 -0.9775 -0.0998  1.2021
 3504TIP3   OH232002   0.087   2.069   6.954  0.0784  0.4243  0.0491
 3504TIP3    H132003   0.061   2.000   6.893 -1.5156  0.2931  0.8115
 3504TIP3    H232004   0.058   2.150   6.912  0.7898  0.5171 -0.2663
 3505TIP3   OH232005   2.066   0.568   6.265 -0.1533 -0.1119 -0.1016
 3505TIP3    H132006   2.119   0.569   6.344  2.3992 -1.8975 -1.6305
 3505TIP3    H232007   2.039   0.659   6.252  1.4765  0.6346  1.4536
 3506TIP3   OH232008   5.212   1.807   5.818  0.0855 -0.2037  0.1677
 3506TIP3    H132009   5.277   1.827   5.750  0.4639 -0.0784  0.5673
 3506TIP3    H232010   5.153   1.743   5.776  0.5375 -0.4146 -0.1544
 3507TIP3   OH232011   1.752   2.754  12.033  0.1870  0.3982  0.0973
 3507TIP3    H132012   1.717   2.710  11.955 -1.0606 -0.2281  0.9662
 3507TIP3    H232013   1.751   2.686  12.100 -1.3981  1.6318  1.3818
 3508TIP3   OH232014   4.464   0.828   4.771 -0.3653 -0.2749 -0.0420
 3508TIP3    H132015   4.515   0.908   4.758  0.9945 -0.9711  0.7709
 3508TIP3    H232016   4.475   0.779   4.690 -1.0641  0.2721 -0.4780
 3509TIP3   OH232017   1.647   3.439  16.140 -0.2639  0.2106 -0.0942
 3509TIP3    H132018   1.559   3.404  16.155 -0.6884  0.8253 -1.1052
 3509TIP3    H232019   1.671   3.479  16.224 -1.6600  1.5813 -0.3142
 3510TIP3   OH232020   0.166   5.815   5.462 -0.2055 -0.2007  0.1594
 3510TIP3    H132021   0.240   5.871   5.488  1.4086 -1.1387 -2.0302
 3510TIP3    H232022   0.153   5.836   5.369 -3.0794  0.2654  0.5799
 3511TIP3   OH232023   4.612   6.032   1.190  0.0648 -0.0537 -0.1825
 3511TIP3    H132024   4.588   6.030   1.283 -0.6885  0.1518 -0.3649
 3511TIP3    H232025   4.680   6.099   1.184  2.6196 -2.4041  0.7635
 3512TIP3   OH232026   2.333   6.279  14.048  0.1001 -0.5297  0.1517
 3512TIP3    H132027   2.261   6.226  14.015  0.6801 -2.6127  2.0606
 3512TIP3    H232028   2.310   6.299  14.138  1.2598 -0.0217  0.3637
 3513TIP3   OH232029   0.770   0.627  15.250  0.0073 -0.4967  0.3928
 3513TIP3    H132030   0.784   0.544  15.205 -0.6228 -0.2042 -0.3709
 3513TIP3    H232031   0.786   0.608  15.342 -1.8059 -1.8855  0.4586
 3514TIP3   OH232032   0.217   0.065  16.619  0.3092 -0.1806  0.3736
 3514TIP3    H132033   0.126   0.084  16.596  0.7487  0.0532 -1.2783
 3514TIP3    H232034   0.238  -0.015  16.570  0.4218 -1.3980  2.3053
 3515TIP3   OH232035   5.847   2.354  13.364  0.0967 -0.2799  0.2067
 3515TIP3    H132036   5.854   2.269  13.408 -2.0259 -0.1016  1.0368
 3515TIP3    H232037   5.752   2.370  13.360  0.4586  2.2856  0.5689
 3516TIP3   OH232038   1.299   0.331   6.348  0.4261  0.5016 -0.8278
 3516TIP3    H132039   1.368   0.272   6.317 -1.4899 -1.9935 -0.6412
 3516TIP3    H232040   1.242   0.276   6.402 -1.2266  2.6651 -0.2179
 3517TIP3   OH232041   5.494   6.360   1.126  0.3936  0.3963  0.1418
 3517TIP3    H132042   5.546   6.422   1.075 -0.1694  0.1857 -0.7093
 3517TIP3    H232043   5.507   6.387   1.217  1.3995  0.7940 -0.1055
 3518TIP3   OH232044   5.350   0.472   1.483 -0.1625 -0.1315 -0.4180
 3518TIP3    H132045   5.356   0.494   1.575  1.3551 -0.7115 -0.3584
 3518TIP3    H232046   5.373   0.552   1.436 -0.8223  0.1297 -0.3094
 3519TIP3   OH232047   5.101   5.142   3.532 -0.6675 -1.2927 -0.5716
 3519TIP3    H132048   5.105   5.197   3.454 -1.0548 -2.1582 -1.2229
 3519TIP3    H232049   5.192   5.122   3.551 -0.5690 -1.0874 -0.8085
 3520TIP3   OH232050   5.037   5.573   5.867  0.0003 -0.4390 -0.2841
 3520TIP3    H132051   4.984   5.541   5.794 -0.1596 -1.7674  0.3887
 3520TIP3    H232052   4.995   5.655   5.893 -1.8436 -1.5055  0.3120
 3521TIP3   OH232053   6.795   0.235  11.522 -0.1634 -0.2826  0.0713
 3521TIP3    H132054   6.827   0.146  11.536 -0.7485 -0.1204  2.9096
 3521TIP3    H232055   6.793   0.274  11.609 -0.8711  2.2058 -0.9779
 3522TIP3   OH232056   5.787   2.062  17.141  0.3535  0.1258  0.5424
 3522TIP3    H132057   5.742   2.004  17.201 -1.8561  2.0504  0.9029
 3522TIP3    H232058   5.861   2.096  17.191  0.6054 -0.9437  0.9249
 3523TIP3   OH232059   0.605   5.564  16.157  0.0723  0.0596 -0.1222
 3523TIP3    H132060   0.541   5.548  16.088 -0.6116 -0.4011  0.6093
 3523TIP3    H232061   0.574   5.644  16.200 -1.0253 -1.1114  1.3516
 3524TIP3   OH232062   3.501   6.239   6.527 -0.5968  0.2200 -0.0218
 3524TIP3    H132063   3.570   6.298   6.498  0.6778 -1.0575  0.2716
 3524TIP3    H232064   3.509   6.236   6.622 -0.8242 -0.2200 -0.0107
 3525TIP3   OH232065   2.874   0.540   0.848  0.5862  0.1317 -0.5694
 3525TIP3    H132066   2.963   0.566   0.824  0.2874  1.4985 -0.2986
 3525TIP3    H232067   2.818   0.610   0.812 -0.0897  0.9878  1.9386
 3526TIP3   OH232068   5.237   0.865  12.519  0.0110 -0.0283  0.2398
 3526TIP3    H132069   5.313   0.808  12.506  0.7202  0.9758 -0.1749
 3526TIP3    H232070   5.213   0.894  12.430 -1.1602 -0.6912  0.3142
 3527TIP3   OH232071   4.505   2.546   2.747 -0.7011  0.2153  0.0961
 3527TIP3    H132072   4.506   2.454   2.718 -0.2500  0.8143 -1.9767
 3527TIP3    H232073   4.560   2.547   2.825  1.2096 -0.9310 -1.1330
 3528TIP3   OH232074   2.548   6.464   1.519 -0.0175 -0.2989 -0.1846
 3528TIP3    H132075   2.619   6.408   1.552  0.9280 -0.7335 -2.7306
 3528TIP3    H232076   2.472   6.440   1.572  0.4502 -3.6991 -0.8330
 3529TIP3   OH232077   2.903   5.784  15.535 -0.2285  0.1309  0.2931
 3529TIP3    H132078   2.865   5.872  15.538 -2.2599 -0.6663 -0.5002
 3529TIP3    H232079   2.930   5.766  15.625 -2.1626  0.6129  1.0134
 3530TIP3   OH232080   1.173   4.944   4.184  0.6671 -0.3034 -0.3358
 3530TIP3    H132081   1.217   4.964   4.102 -1.2624 -0.8642 -1.5719
 3530TIP3    H232082   1.138   4.856   4.172  0.2212 -0.3380  1.0364
 3531TIP3   OH232083   4.159   1.089   0.209 -0.8449 -0.4944  0.0528
 3531TIP3    H132084   4.068   1.117   0.198 -0.2979  2.3449  1.7800
 3531TIP3    H232085   4.200   1.103   0.124 -1.1299  2.2536  0.2924
 3532TIP3   OH232086   3.804   4.027  14.480  0.2570  0.7399  0.0225
 3532TIP3    H132087   3.781   4.119  14.493  0.7770  1.0728 -1.2546
 3532TIP3    H232088   3.817   3.993  14.569 -0.7674  1.6674  0.5494
 3533TIP3   OH232089   2.466   2.017  16.303 -0.2770 -0.1811 -0.0174
 3533TIP3    H132090   2.446   1.991  16.214 -2.1738 -0.2117  0.3722
 3533TIP3    H232091   2.388   1.993  16.353  1.5595 -2.2264  2.1062
 3534TIP3   OH232092   5.058   2.267   2.341  0.1044  0.0958 -0.2230
 3534TIP3    H132093   5.035   2.354   2.307  0.8522 -0.1562 -1.4467
 3534TIP3    H232094   5.061   2.279   2.436  2.7678  2.1477 -0.4251
 3535TIP3   OH232095   0.305   6.283   5.077 -0.2097 -0.0840  0.1278
 3535TIP3    H132096   0.378   6.342   5.098 -1.4392  2.3059 -1.8079
 3535TIP3    H232097   0.232   6.317   5.127 -0.7582 -0.4431 -0.4177
 3536TIP3   OH232098   2.838   2.617   2.593  0.0842 -0.5361 -0.1039
 3536TIP3    H132099   2.832   2.624   2.498 -0.5306  0.3090 -0.0124
 3536TIP3    H232100   2.915   2.670   2.616  0.8591 -1.5762 -0.2032
 3537TIP3   OH232101   6.207   3.264   3.278  0.0638  0.3994 -0.0552
 3537TIP3    H132102   6.211   3.238   3.370 -0.0925 -1.1020 -0.4469
 3537TIP3    H232103   6.275   3.330   3.268  0.7130 -0.1064  0.9399
 3538TIP3   OH232104   5.966   0.606   2.958  0.0904  0.0104  0.2721
 3538TIP3    H132105   5.983   0.619   2.864  0.9113  0.2168  0.4400
 3538TIP3    H232106   5.935   0.691   2.988 -0.7797 -0.2269  0.0676
 3539TIP3   OH232107   6.444   4.453   3.772  0.1594 -0.1234  0.5425
 3539TIP3    H132108   6.383   4.518   3.737  0.2671 -0.4853 -0.3379
 3539TIP3    H232109   6.482   4.412   3.694  0.1272 -1.2090  1.0849
 3540TIP3   OH232110   2.993   4.402   0.401  0.3266 -0.0080 -0.1500
 3540TIP3    H132111   3.077   4.388   0.357 -0.2683 -1.2173 -0.9708
 3540TIP3    H232112   3.009   4.475   0.460  2.2262 -0.7896  0.3988
 3541TIP3   OH232113   4.989   0.233  15.326 -0.2478  0.0977 -0.0660
 3541TIP3    H132114   4.899   0.268  15.326 -0.7514 -1.1627  0.5230
 3541TIP3    H232115   5.043   0.308  15.351 -1.2534  0.6077  0.6686
 3542TIP3   OH232116   2.264   2.692  12.154 -0.1786 -0.7975 -0.1721
 3542TIP3    H132117   2.174   2.699  12.121  0.3212  0.4821 -1.3685
 3542TIP3    H232118   2.277   2.772  12.205  1.0472  0.3023 -2.0876
 3543TIP3   OH232119   3.320   4.434  11.618 -0.2456 -0.0009  0.0612
 3543TIP3    H132120   3.343   4.524  11.639  0.4831 -0.0182 -0.6122
 3543TIP3    H232121   3.228   4.425  11.644 -0.4770  1.0805 -0.3530
 3544TIP3   OH232122   4.694   3.089   6.016  0.0470 -0.0575 -0.4025
 3544TIP3    H132123   4.733   3.080   6.103 -0.0399 -0.6879 -0.4238
 3544TIP3    H232124   4.731   3.016   5.966 -1.5671 -1.0391 -0.2584
 3545TIP3   OH232125   1.575   4.712   2.433  0.0037  0.0318 -0.1902
 3545TIP3    H132126   1.557   4.730   2.525  0.9808 -0.3936  0.0978
 3545TIP3    H232127   1.494   4.674   2.399  0.0869 -1.1261  0.8636
 3546TIP3   OH232128   1.282   4.451  12.013  0.5088  0.6353 -0.1907
 3546TIP3    H132129   1.190   4.428  12.010  0.0504  2.3309 -0.6622
 3546TIP3    H232130   1.319   4.415  11.932 -0.0345  0.9843 -0.6051
 3547TIP3   OH232131   4.764   5.559  11.826  0.1322  0.1883 -0.4778
 3547TIP3    H132132   4.722   5.574  11.741 -0.9135 -1.9016 -0.3755
 3547TIP3    H232133   4.848   5.518  11.803  1.0913  2.0667 -0.5614
 3548TIP3   OH232134   3.974   3.314  14.359 -0.7363 -0.0273  0.5334
 3548TIP3    H132135   3.944   3.324  14.449 -1.7622 -0.5393  0.2664
 3548TIP3    H232136   3.923   3.241  14.324 -0.5537  0.3302 -0.5444
 3549TIP3   OH232137   4.665   3.908   0.624 -0.3979  0.4668 -0.3718
 3549TIP3    H132138   4.759   3.921   0.635  0.1602 -2.8695 -0.0021
 3549TIP3    H232139   4.630   3.908   0.714  0.0114 -2.2200 -0.1289
 3550TIP3   OH232140   2.966   2.387  12.488  0.2444 -0.2961  0.1615
 3550TIP3    H132141   2.915   2.453  12.534 -0.4388 -0.8444  0.2145
 3550TIP3    H232142   2.902   2.321  12.462  0.9811 -1.2231  0.6120
 3551TIP3   OH232143   5.416   5.932   2.813  0.1738 -0.1538  0.3857
 3551TIP3    H132144   5.450   5.915   2.901  0.5925 -1.0681  0.0563
 3551TIP3    H232145   5.398   5.845   2.777 -1.4968  0.2587  0.1454
 3552TIP3   OH232146   2.700   0.846  11.736  0.4206 -0.5913 -0.4689
 3552TIP3    H132147   2.655   0.764  11.716  1.9178 -1.5904  0.0900
 3552TIP3    H232148   2.783   0.819  11.776  1.1680  1.1874 -0.7217
 3553TIP3   OH232149   0.370   0.751  13.720 -0.4080 -0.3189 -0.0191
 3553TIP3    H132150   0.387   0.795  13.803 -0.1501 -0.3381 -0.0612
 3553TIP3    H232151   0.294   0.796  13.684 -1.0844 -0.8835  0.6448
 3554TIP3   OH232152   1.365   5.767  10.657 -0.2019 -0.4748 -0.1708
 3554TIP3    H132153   1.281   5.724  10.675 -0.6527  0.1529 -0.6826
 3554TIP3    H232154   1.342   5.860  10.649  0.2420 -0.4897 -2.0744
 3555TIP3   OH232155   4.476   4.740  15.348 -0.0882 -0.1501 -0.2839
 3555TIP3    H132156   4.470   4.669  15.284 -0.4098 -1.1457  0.8211
 3555TIP3    H232157   4.571   4.755  15.358 -0.0344 -0.0416 -0.9114
 3556TIP3   OH232158   1.563   6.363   0.779  0.1542  0.0637  0.0916
 3556TIP3    H132159   1.491   6.401   0.728 -0.7107 -1.2256  0.2968
 3556TIP3    H232160   1.641   6.381   0.727 -0.4292  0.6901 -0.5957
 3557TIP3   OH232161   0.740   0.385  15.573  0.1387  1.0788 -0.2101
 3557TIP3    H132162   0.799   0.447  15.530  0.9935 -0.6458 -1.6421
 3557TIP3    H232163   0.798   0.323  15.617 -0.6559  0.6529  0.2562
 3558TIP3   OH232164   2.026   3.999   5.457  0.4239  0.0542  0.2263
 3558TIP3    H132165   2.057   4.066   5.395  0.5201  0.6289  0.8843
 3558TIP3    H232166   1.965   3.946   5.406  0.2779  0.6985 -0.2866
 3559TIP3   OH232167   5.152   4.178  13.788  0.3056  0.3662 -0.7284
 3559TIP3    H132168   5.223   4.199  13.848  0.8725 -3.0932  0.0149
 3559TIP3    H232169   5.098   4.115  13.836  0.3938 -2.0366 -3.4945
 3560TIP3   OH232170   1.999   5.344  14.920 -0.2004  0.1120 -0.0739
 3560TIP3    H132171   1.970   5.270  14.867 -2.4968  0.0033  1.2243
 3560TIP3    H232172   2.007   5.416  14.857 -0.1809 -0.6573 -0.9878
 3561TIP3   OH232173   4.597   5.686  13.327  0.5528  0.1948 -0.1206
 3561TIP3    H132174   4.541   5.705  13.252  1.0782 -1.2750 -0.9141
 3561TIP3    H232175   4.679   5.654  13.289  0.8586 -0.4909  1.0692
 3562TIP3   OH232176   0.484   1.688  16.213  0.0244  0.5495 -0.1692
 3562TIP3    H132177   0.526   1.606  16.186  3.2828  2.5615 -1.8378
 3562TIP3    H232178   0.543   1.726  16.277 -0.5756  2.3452 -0.6272
 3563TIP3   OH232179   6.129   6.333   5.783  0.1792 -0.1636 -0.0151
 3563TIP3    H132180   6.151   6.242   5.804  1.4800  0.2738  0.6229
 3563TIP3    H232181   6.091   6.368   5.864 -1.1088 -0.3422 -0.5071
 3564TIP3   OH232182   1.929   3.201  17.240  0.6713 -0.6462 -0.4432
 3564TIP3    H132183   1.964   3.247  17.316  2.8848 -3.0617  0.1265
 3564TIP3    H232184   1.970   3.245  17.165  1.9731 -0.9974  0.0291
 3565TIP3   OH232185   6.348   1.712  13.203  0.4314 -0.3565 -0.2444
 3565TIP3    H132186   6.299   1.629  13.204 -1.9821  0.9648 -0.0450
 3565TIP3    H232187   6.281   1.778  13.185  1.8360  1.8087  1.8708
 3566TIP3   OH232188   5.267   0.321   2.867  0.8823  0.2534  0.0157
 3566TIP3    H132189   5.252   0.407   2.906  0.9679  1.1707 -1.8736
 3566TIP3    H232190   5.235   0.259   2.933  0.2263  1.7433  1.1518
 3567TIP3   OH232191   5.579   5.078  11.238 -0.2162  0.5775  0.0804
 3567TIP3    H132192   5.639   5.151  11.257 -0.7982  1.5377 -1.5632
 3567TIP3    H232193   5.589   5.063  11.145 -0.3271 -1.3019  0.3450
 3568TIP3   OH232194   3.123   4.901   1.477 -0.1444 -0.2319  0.1694
 3568TIP3    H132195   3.040   4.943   1.457 -0.5003  0.6674  3.0476
 3568TIP3    H232196   3.109   4.861   1.563  2.1655 -0.6663  0.4014
 3569TIP3   OH232197   6.553   0.533   1.876  0.5479  0.1324 -0.5767
 3569TIP3    H132198   6.559   0.626   1.899  0.1163  0.0498 -0.1166
 3569TIP3    H232199   6.500   0.495   1.945 -2.0115  0.1406 -2.3733
 3570TIP3   OH232200   1.538   0.332  14.076 -0.3027  0.7912  0.3883
 3570TIP3    H132201   1.511   0.252  14.121  2.2319 -0.4278 -0.1041
 3570TIP3    H232202   1.459   0.360  14.029 -1.0253 -1.9581 -0.2084
 3571TIP3   OH232203   0.119   6.519   6.561  0.7297 -0.0904  0.5188
 3571TIP3    H132204   0.024   6.522   6.547  0.9502 -1.4561 -1.6335
 3571TIP3    H232205   0.140   6.426   6.562  2.2789  0.1833 -1.2363
 3572TIP3   OH232206   4.804   4.033  15.826 -0.6307  0.3585  0.1701
 3572TIP3    H132207   4.798   4.020  15.731  0.6811 -1.9680  0.3233
 3572TIP3    H232208   4.889   4.076  15.838 -0.9941  1.0571  0.2810
 3573TIP3   OH232209   0.124   0.934   4.781 -0.7206  0.1805  0.0194
 3573TIP3    H132210   0.172   0.934   4.698 -0.7396  0.3060  0.0079
 3573TIP3    H232211   0.185   0.973   4.844 -0.8423  0.4320 -0.0163
 3574TIP3   OH232212   4.999   2.442  17.227  0.1551 -0.0080 -0.2495
 3574TIP3    H132213   5.086   2.478  17.243  0.5569 -1.4445  0.9485
 3574TIP3    H232214   5.013   2.375  17.159 -0.0463 -0.1294 -0.1720
 3575TIP3   OH232215   4.516   2.651  12.121 -0.3830  0.2605  0.5747
 3575TIP3    H132216   4.489   2.569  12.080 -1.9370  0.8705  0.3107
 3575TIP3    H232217   4.439   2.680  12.169 -0.2429  2.1430 -0.2551
 3576TIP3   OH232218   0.807   2.071   0.517 -0.7320 -0.0834 -0.2951
 3576TIP3    H132219   0.803   2.011   0.442  0.1837 -1.1688  0.4991
 3576TIP3    H232220   0.755   2.029   0.585  0.6099 -0.4204  0.5557
 3577TIP3   OH232221   6.115   0.657   0.414 -0.1931 -0.9576  0.2741
 3577TIP3    H132222   6.036   0.708   0.400 -0.9670 -1.5561  2.0970
 3577TIP3    H232223   6.096   0.572   0.375  0.3523 -0.4850 -1.0601
 3578TIP3   OH232224   5.933   5.682  12.509  0.1945 -0.4038 -0.2420
 3578TIP3    H132225   5.910   5.645  12.424  0.1197  0.0355 -0.4168
 3578TIP3    H232226   5.944   5.775  12.492  1.2442 -0.4684  0.0205
 3579TIP3   OH232227   5.309   0.583   2.191 -0.0785  0.7752  0.2355
 3579TIP3    H132228   5.333   0.502   2.236  2.5659  0.7136 -1.1109
 3579TIP3    H232229   5.238   0.557   2.132 -0.3453 -0.1735  0.9405
 3580TIP3   OH232230   1.384   4.125   1.412 -0.1997  0.3920 -0.9434
 3580TIP3    H132231   1.427   4.129   1.327 -0.7835 -0.3050 -1.2831
 3580TIP3    H232232   1.384   4.216   1.443  0.6069  0.5552 -1.3769
 3581TIP3   OH232233   2.029   3.076  14.638 -0.3450 -0.2251  0.0791
 3581TIP3    H132234   2.089   3.005  14.617  0.7452  1.2098 -2.0503
 3581TIP3    H232235   2.027   3.130  14.559 -1.1731  2.0798  1.5638
 3582TIP3   OH232236   0.591   1.376   1.939 -0.4265  0.2213  0.4061
 3582TIP3    H132237   0.513   1.395   1.887  0.2687 -0.8291 -1.0796
 3582TIP3    H232238   0.662   1.421   1.893  0.1728 -0.5669  0.5343
 3583TIP3   OH232239   2.059   2.832   3.493 -0.1761  0.1786 -0.6871
 3583TIP3    H132240   1.998   2.896   3.456  0.0540  1.5212  1.1026
 3583TIP3    H232241   2.084   2.869   3.578  0.9814 -1.6890 -0.1484
 3584TIP3   OH232242   3.402   2.883  14.038  0.6273 -0.0221  0.8225
 3584TIP3    H132243   3.354   2.957  14.075 -0.6517 -0.1308 -0.5002
 3584TIP3    H232244   3.342   2.847  13.972  1.5963 -1.6561  0.7749
 3585TIP3   OH232245   2.450   0.290   3.945  0.0101 -0.4604 -0.1323
 3585TIP3    H132246   2.503   0.369   3.949 -1.2358  0.4214 -0.5530
 3585TIP3    H232247   2.440   0.272   3.851 -0.0698 -0.8772 -0.0492
 3586TIP3   OH232248   1.954   4.296  16.396 -0.0598  0.8316 -0.7664
 3586TIP3    H132249   1.937   4.231  16.328 -2.1444 -0.5529  0.9328
 3586TIP3    H232250   1.867   4.318  16.430  0.8438  2.1948  0.7871
 3587TIP3   OH232251   2.699   5.997   0.465  0.5350 -0.1886  0.0026
 3587TIP3    H132252   2.667   5.958   0.547 -0.6336  0.9179  0.1086
 3587TIP3    H232253   2.679   5.932   0.398 -2.2691  0.5248  0.0365
 3588TIP3   OH232254   5.236   1.604   0.689 -0.2562 -0.3338  0.0112
 3588TIP3    H132255   5.230   1.699   0.678 -2.3151 -0.4129  0.0118
 3588TIP3    H232256   5.320   1.580   0.649 -0.0031  1.3892 -0.5737
 3589TIP3   OH232257   2.146   0.906  12.270 -0.0185  0.0230  0.6299
 3589TIP3    H132258   2.076   0.860  12.224  0.9698 -1.6806  0.7268
 3589TIP3    H232259   2.169   0.979  12.213 -0.4089 -0.6665 -0.4450
 3590TIP3   OH232260   0.726   0.220   2.511  0.0466 -0.5798 -0.0612
 3590TIP3    H132261   0.738   0.213   2.606 -0.3686 -0.3017  0.0177
 3590TIP3    H232262   0.646   0.272   2.502  2.0508  2.7034 -0.5676
 3591TIP3   OH232263   2.783   1.630   0.163  0.2540 -0.2470 -0.0008
 3591TIP3    H132264   2.697   1.589   0.174 -1.3603  2.7470 -0.2919
 3591TIP3    H232265   2.771   1.720   0.194  3.1979  0.4098 -0.4306
 3592TIP3   OH232266   5.411   2.347  16.327 -0.4607 -0.0692 -0.1457
 3592TIP3    H132267   5.323   2.310  16.326 -0.2891 -0.5169 -2.0414
 3592TIP3    H232268   5.401   2.433  16.287 -0.0300 -0.1724 -0.4846
 3593TIP3   OH232269   1.601   5.562   1.251 -0.7538 -0.3784 -0.1009
 3593TIP3    H132270   1.596   5.638   1.309  1.9703  0.1089 -0.3594
 3593TIP3    H232271   1.525   5.508   1.275  0.3982 -0.4376  4.2593
 3594TIP3   OH232272   4.569   4.675   1.761  0.3385  0.0735 -0.3010
 3594TIP3    H132273   4.646   4.630   1.797 -0.1509  0.0032  0.6982
 3594TIP3    H232274   4.605   4.745   1.706  1.1141 -0.2656 -0.2309
 3595TIP3   OH232275   2.673   4.047  14.431 -0.1004  0.0160  0.1132
 3595TIP3    H132276   2.585   4.068  14.463 -0.3110 -2.2293  1.1595
 3595TIP3    H232277   2.731   4.104  14.482 -0.6556 -1.5716  2.7395
 3596TIP3   OH232278   5.846   1.316   4.699 -0.4509  0.2151  0.0796
 3596TIP3    H132279   5.850   1.411   4.695  0.2210  0.1868 -0.1088
 3596TIP3    H232280   5.757   1.296   4.729 -0.8980  0.8738 -0.7685
 3597TIP3   OH232281   3.463   0.835   0.540  0.5993  0.4260 -0.8472
 3597TIP3    H132282   3.522   0.775   0.586 -2.0895 -0.2665  2.0446
 3597TIP3    H232283   3.427   0.782   0.469  1.6361  0.0925 -1.1396
 3598TIP3   OH232284   4.738   6.327  14.141 -0.2265 -0.2659 -0.3970
 3598TIP3    H132285   4.710   6.395  14.202  1.4446 -1.5460  1.9587
 3598TIP3    H232286   4.658   6.281  14.118 -1.0574  1.0114 -0.1759
 3599TIP3   OH232287   4.870   2.949  12.085 -0.6587  0.4027  0.0846
 3599TIP3    H132288   4.895   3.034  12.121 -1.7905  1.0288 -0.5399
 3599TIP3    H232289   4.794   2.968  12.030 -1.4494 -1.1394  0.5917
 3600TIP3   OH232290   2.771   2.386   4.262  0.3934 -0.3776 -0.1984
 3600TIP3    H132291   2.693   2.341   4.295 -1.3121  2.5122  0.0031
 3600TIP3    H232292   2.772   2.368   4.168 -1.2431  0.5173 -0.4121
 3601TIP3   OH232293   5.348   5.905   4.745 -0.1694  0.1320  0.0116
 3601TIP3    H132294   5.275   5.918   4.684 -6.0296 -4.1886  4.8722
 3601TIP3    H232295   5.365   5.991   4.783 -2.0581  1.4575 -1.9602
 3602TIP3   OH232296   4.906   2.835  13.272  0.0419  0.4803  0.0883
 3602TIP3    H132297   4.920   2.916  13.223  0.5459  1.3155  1.5470
 3602TIP3    H232298   4.825   2.799  13.237  0.8517  0.5266 -1.9940
 3603TIP3   OH232299   4.023   2.104   3.850 -0.0859 -0.5594  0.4427
 3603TIP3    H132300   3.946   2.126   3.902 -0.7282 -1.1246 -0.2261
 3603TIP3    H232301   4.031   2.176   3.787 -0.2793 -0.6598  0.2997
 3604TIP3   OH232302   2.991   5.527  13.338  0.0136 -0.7453  0.1466
 3604TIP3    H132303   2.905   5.486  13.339 -1.2155  1.6462 -0.2775
 3604TIP3    H232304   3.036   5.486  13.264 -2.7144  1.3989 -3.0574
 3605TIP3   OH232305   4.913   0.071  14.921  0.3456 -0.2322 -0.5116
 3605TIP3    H132306   4.846   0.003  14.927  1.3379 -1.1817  0.2244
 3605TIP3    H232307   4.964   0.061  15.002 -1.4058  3.5069  1.3091
 3606TIP3   OH232308   2.580   2.907  13.833 -0.7270 -0.1457  0.0744
 3606TIP3    H132309   2.558   2.885  13.742 -0.1806 -1.4796  0.2379
 3606TIP3    H232310   2.531   2.987  13.851 -0.3319  0.5142 -1.6049
 3607TIP3   OH232311   4.854   1.616  16.703  0.3295  0.0207 -0.5409
 3607TIP3    H132312   4.906   1.621  16.783  0.8945 -0.3695 -0.8704
 3607TIP3    H232313   4.894   1.680  16.645  1.0844 -0.9502 -1.1382
 3608TIP3   OH232314   4.708   3.264   6.400 -0.0139  0.0877 -0.1000
 3608TIP3    H132315   4.668   3.188   6.442 -1.6770  0.8661 -0.2169
 3608TIP3    H232316   4.656   3.279   6.322 -0.7349  2.2520  0.7044
 3609TIP3   OH232317   1.781   4.001   3.728 -0.0623 -0.1673 -0.3963
 3609TIP3    H132318   1.712   3.996   3.662  0.1947 -3.0791 -0.5496
 3609TIP3    H232319   1.765   3.927   3.786  2.5182 -0.5297 -0.0332
 3610TIP3   OH232320   3.623   1.890   2.782 -0.2165  0.2692 -0.1886
 3610TIP3    H132321   3.714   1.861   2.782  0.4160  1.6545  3.8636
 3610TIP3    H232322   3.627   1.984   2.763 -0.5705  0.6657  1.5589
 3611TIP3   OH232323   1.927   0.659  12.725 -0.3018  0.1918  0.0850
 3611TIP3    H132324   1.944   0.593  12.792 -0.4075 -0.6858 -0.7227
 3611TIP3    H232325   2.004   0.656  12.668 -0.8106 -0.0561 -0.6047
 3612TIP3   OH232326   6.439   4.737   2.592  0.3174 -0.3204 -0.6869
 3612TIP3    H132327   6.507   4.720   2.527  1.4679 -0.5390  0.5285
 3612TIP3    H232328   6.450   4.829   2.615  0.2600 -0.3811 -0.4150
 3613TIP3   OH232329   4.578   4.792  16.107  0.4787  0.1986  0.2271
 3613TIP3    H132330   4.633   4.785  16.029 -0.4114  0.0765 -0.4037
 3613TIP3    H232331   4.580   4.885  16.130 -0.1316  0.4198 -0.5974
 3614TIP3   OH232332   5.220   4.688  13.337  0.0253 -0.5530 -0.0635
 3614TIP3    H132333   5.126   4.671  13.326 -0.0701 -0.7270  0.9867
 3614TIP3    H232334   5.249   4.716  13.250 -1.0956 -0.0182 -0.2882
 3615TIP3   OH232335   3.658   3.754   5.194 -0.0124  0.2195 -0.1060
 3615TIP3    H132336   3.568   3.753   5.161 -0.7738 -0.4508  1.7804
 3615TIP3    H232337   3.705   3.813   5.136 -1.6171  0.4032 -1.2916
 3616TIP3   OH232338   3.896   3.944   0.612  0.1072  0.0582  0.4571
 3616TIP3    H132339   3.883   3.864   0.663  1.4330  0.5502  1.6619
 3616TIP3    H232340   3.915   3.914   0.524 -3.9219 -0.7937 -0.3068
 3617TIP3   OH232341   5.611   5.833   4.134  0.4475  0.4966  0.7261
 3617TIP3    H132342   5.687   5.775   4.132 -0.2315 -0.4360  0.9184
 3617TIP3    H232343   5.578   5.834   4.044 -0.5401 -0.8218  1.0429
 3618TIP3   OH232344   5.485   5.099   0.979  0.7028  0.1159 -0.1583
 3618TIP3    H132345   5.565   5.060   0.945  1.5250  1.1420  0.5313
 3618TIP3    H232346   5.429   5.111   0.902  1.7301  0.5715 -0.8529
 3619TIP3   OH232347   3.585   6.100  12.671  0.1549 -0.0445  0.7372
 3619TIP3    H132348   3.613   6.013  12.643 -0.5774 -0.1188  0.1971
 3619TIP3    H232349   3.587   6.153  12.591 -1.5657 -0.1523  0.5785
 3620TIP3   OH232350   0.035   6.047  13.164 -0.8244 -0.0060 -0.6542
 3620TIP3    H132351   0.032   6.050  13.068  0.3769 -0.1605 -0.7155
 3620TIP3    H232352  -0.019   6.121  13.192 -2.2578 -0.7218 -1.4129
 3621TIP3   OH232353   0.430   0.814  13.984  0.6741  0.5483 -0.0556
 3621TIP3    H132354   0.456   0.740  14.038 -0.7251  0.1515  0.1140
 3621TIP3    H232355   0.467   0.891  14.028  0.5422  0.1222  0.8047
 3622TIP3   OH232356   6.384   6.471  13.701  0.3600 -0.1394  0.1314
 3622TIP3    H132357   6.416   6.394  13.654 -0.6867 -0.5776  0.1118
 3622TIP3    H232358   6.443   6.479  13.776 -0.5511 -2.0538  1.1318
 3623TIP3   OH232359   4.802   5.076  11.307  0.1303 -0.2851  0.0918
 3623TIP3    H132360   4.875   5.014  11.299 -0.2830 -0.9604  1.3907
 3623TIP3    H232361   4.737   5.045  11.244 -0.3710 -1.6367  1.2181
 3624TIP3   OH232362   3.937   4.246  12.967 -0.7765  0.1627  0.0251
 3624TIP3    H132363   4.003   4.212  12.906  0.6709  1.6749  0.6678
 3624TIP3    H232364   3.859   4.260  12.913  0.3305  1.0324 -1.4141
 3625TIP3   OH232365   3.265   4.452  13.512  0.6625 -0.1539  0.4618
 3625TIP3    H132366   3.177   4.424  13.539  0.4856 -0.4227 -0.3599
 3625TIP3    H232367   3.269   4.545  13.533 -0.5282  0.3208 -1.2381
 3626TIP3   OH232368   5.631   3.942  16.135  0.3455  0.1193  0.3155
 3626TIP3    H132369   5.588   3.950  16.221  0.4231 -1.8222  0.5904
 3626TIP3    H232370   5.721   3.918  16.156  0.4192 -0.1640 -0.2940
 3627TIP3   OH232371   2.662   3.619   4.748 -0.3493  0.2212 -0.2068
 3627TIP3    H132372   2.636   3.658   4.831 -1.3897 -0.8059 -0.0215
 3627TIP3    H232373   2.751   3.650   4.734 -0.1838  0.4857  1.2457
 3628TIP3   OH232374   2.306   2.116  12.786  0.0702  0.1679 -0.1793
 3628TIP3    H132375   2.234   2.054  12.771  0.3457 -0.0419 -0.6968
 3628TIP3    H232376   2.354   2.080  12.861 -0.5662  0.5025  0.3948
 3629TIP3   OH232377   4.740   6.716  12.198 -0.3112 -0.2183  0.3715
 3629TIP3    H132378   4.719   6.788  12.257 -0.7209  0.5266 -0.6393
 3629TIP3    H232379   4.680   6.645  12.224  0.2229 -0.2759  1.4891
 3630TIP3   OH232380   6.545   0.319  12.660 -0.3160 -0.2318  0.1392
 3630TIP3    H132381   6.572   0.247  12.602 -0.0225  0.8466 -1.0857
 3630TIP3    H232382   6.613   0.320  12.728 -0.7948 -1.6561  0.6875
 3631TIP3   OH232383   6.656   0.227   4.345  0.4501  0.3607 -0.3975
 3631TIP3    H132384   6.639   0.148   4.396  2.0556 -0.5468 -1.2023
 3631TIP3    H232385   6.666   0.297   4.410  1.0465 -0.5031  0.4512
 3632TIP3   OH232386   5.560   4.685  11.209 -0.0918  0.7321  0.2070
 3632TIP3    H132387   5.620   4.613  11.189  0.4125  0.9658  0.8344
 3632TIP3    H232388   5.501   4.649  11.275 -0.0245  0.7998  0.3048
 3633TIP3   OH232389   5.537   6.599  14.307  0.0586  0.0781  0.2184
 3633TIP3    H132390   5.520   6.555  14.224  2.3605  0.2720 -0.4165
 3633TIP3    H232391   5.472   6.669  14.311  0.7906  0.9683 -2.1377
 3634TIP3   OH232392   0.725   0.062  12.120  0.7634  0.1596  0.5594
 3634TIP3    H132393   0.740  -0.032  12.107  0.2537  0.4144 -2.5343
 3634TIP3    H232394   0.811   0.097  12.141  0.9456 -0.9784  1.8634
 3635TIP3   OH232395   2.257   3.612  11.333 -0.5776 -0.1661  0.1315
 3635TIP3    H132396   2.179   3.575  11.292 -0.4878 -0.8383  0.5541
 3635TIP3    H232397   2.330   3.559  11.300 -0.2879  0.5202 -0.3367
 3636TIP3   OH232398   2.611   6.648  16.573  0.0529  0.3861  0.2508
 3636TIP3    H132399   2.707   6.646  16.567 -0.0277 -0.3615 -1.2392
 3636TIP3    H232400   2.584   6.696  16.495 -0.8104  0.2710  0.4743
 3637TIP3   OH232401   0.676   5.100  12.147  0.1351 -0.5130 -0.0550
 3637TIP3    H132402   0.595   5.140  12.116  1.1910  1.5726 -0.2653
 3637TIP3    H232403   0.713   5.058  12.069 -0.7668 -1.6231  0.0751
 3638TIP3   OH232404   5.465   4.240   0.281  0.4419 -0.6504 -0.2682
 3638TIP3    H132405   5.506   4.317   0.243 -0.3789  0.6853  1.4360
 3638TIP3    H232406   5.518   4.220   0.358 -1.3495  0.4435  1.3401
 3639TIP3   OH232407   0.209   2.795   5.637 -0.3586  0.2987 -0.6122
 3639TIP3    H132408   0.219   2.889   5.650 -0.4097  0.1843  0.3064
 3639TIP3    H232409   0.276   2.756   5.693  1.0051 -0.1772 -2.4867
 3640TIP3   OH232410   4.804   2.369   5.926 -0.8559 -0.6972 -0.3654
 3640TIP3    H132411   4.719   2.358   5.883 -0.0755  0.7540 -2.4262
 3640TIP3    H232412   4.868   2.363   5.855  0.5612  1.0792  0.6741
 3641TIP3   OH232413   0.790   6.129   6.084 -0.0665 -0.5303 -0.3949
 3641TIP3    H132414   0.877   6.119   6.123 -0.5437 -0.6634  0.6682
 3641TIP3    H232415   0.754   6.040   6.082 -1.1855 -0.1868  1.6368
 3642TIP3   OH232416   3.757   4.443   2.078 -1.1202  0.6448  0.2361
 3642TIP3    H132417   3.743   4.537   2.090  0.6539  1.4001 -2.6603
 3642TIP3    H232418   3.832   4.423   2.134  0.2201  1.6398 -1.1184
 3643TIP3   OH232419   4.536   5.796  15.571  0.2287  0.6561  0.3451
 3643TIP3    H132420   4.527   5.762  15.660  1.3783  2.4720  1.2201
 3643TIP3    H232421   4.612   5.750  15.535  0.4980  0.7865  0.7456
 3644TIP3   OH232422   5.282   5.901  10.997  0.5396  0.4545 -0.3892
 3644TIP3    H132423   5.235   5.906  11.080  1.2126  1.5406 -0.0417
 3644TIP3    H232424   5.214   5.893  10.930 -0.1411  1.6950  0.1156
 3645TIP3   OH232425   4.596   4.514   2.807  0.0836 -0.0170 -0.3863
 3645TIP3    H132426   4.525   4.452   2.822  0.7451 -0.5459  0.6915
 3645TIP3    H232427   4.584   4.543   2.716 -1.4118 -0.1878 -0.2778
 3646TIP3   OH232428   6.085   5.675  15.248  0.1181 -0.0311  0.0673
 3646TIP3    H132429   6.157   5.735  15.267  0.5795 -0.5397 -0.0819
 3646TIP3    H232430   6.026   5.685  15.323 -0.0517  0.9653 -0.1804
 3647TIP3   OH232431   6.558   0.877  16.033 -0.2489 -0.0254  0.4839
 3647TIP3    H132432   6.541   0.927  16.113 -0.2653  0.4757  0.1717
 3647TIP3    H232433   6.639   0.913  15.999 -0.9326  0.6846 -0.4341
 3648TIP3   OH232434   3.801   2.377  11.798 -0.0577 -0.4591  0.1425
 3648TIP3    H132435   3.752   2.403  11.720  0.1774  1.8424  0.6823
 3648TIP3    H232436   3.883   2.342  11.764  0.1581  0.7683 -0.6815
 3649TIP3   OH232437   4.404   3.675  16.336  0.0460  0.1704  0.3643
 3649TIP3    H132438   4.363   3.761  16.347 -0.4933 -0.0139 -0.1129
 3649TIP3    H232439   4.453   3.682  16.254 -0.3408 -0.0986  0.1043
 3650TIP3   OH232440   2.871   6.092  12.359  0.0004 -0.4759 -0.2046
 3650TIP3    H132441   2.951   6.104  12.307 -0.4763  3.1287 -0.4010
 3650TIP3    H232442   2.801   6.126  12.303 -0.7463  2.0240  2.0320
 3651TIP3   OH232443   3.089   4.338  15.018  0.0565 -0.0951  0.1500
 3651TIP3    H132444   3.089   4.400  15.091 -0.4636  0.4606 -0.3167
 3651TIP3    H232445   3.131   4.386  14.946  1.1428 -0.8582  0.2615
 3652TIP3   OH232446   6.534   5.923   5.157 -0.1150 -0.0487  0.5034
 3652TIP3    H132447   6.502   5.987   5.221  0.3824 -0.2915  1.0022
 3652TIP3    H232448   6.603   5.970   5.109 -0.6224  0.1967  0.0096
 3653TIP3   OH232449   0.091   0.213  12.531 -0.2310 -0.0161 -0.1640
 3653TIP3    H132450   0.116   0.303  12.513 -0.5099 -0.0776 -0.8909
 3653TIP3    H232451   0.174   0.166  12.541 -0.0671  0.0923 -0.9709
 3654TIP3   OH232452   1.405   1.444   5.987 -0.4458 -0.4141  0.3528
 3654TIP3    H132453   1.361   1.465   5.905  0.4896  0.3236  0.0173
 3654TIP3    H232454   1.380   1.353   6.006 -0.4930 -0.6645 -0.8659
 3655TIP3   OH232455   2.741   2.993   1.892  0.4035  0.3174 -0.1766
 3655TIP3    H132456   2.672   2.928   1.878 -0.3244  0.8665  0.8055
 3655TIP3    H232457   2.708   3.050   1.961  1.2377  1.4596 -0.6835
 3656TIP3   OH232458   2.799   1.893   6.053 -0.0512  0.2272 -0.3124
 3656TIP3    H132459   2.825   1.918   6.142 -0.3763 -1.1579  0.2107
 3656TIP3    H232460   2.703   1.896   6.054 -0.0340  1.2191 -0.9436
 3657TIP3   OH232461   4.513   0.121   3.022  0.0209  0.6815  0.0555
 3657TIP3    H132462   4.515   0.209   3.059 -0.0124  0.9219 -0.4993
 3657TIP3    H232463   4.588   0.119   2.962 -1.1549  1.0444 -1.4891
 3658TIP3   OH232464   4.084   4.567  16.010 -0.1455  0.2930  0.3279
 3658TIP3    H132465   4.177   4.568  16.035  0.1072  0.8084 -0.5902
 3658TIP3    H232466   4.084   4.580  15.916 -1.1669  0.5505  0.3473
 3659TIP3   OH232467   1.884   5.979   3.971 -0.5516  0.3881  0.5264
 3659TIP3    H132468   1.897   6.052   4.032  0.6325 -0.0030  0.7664
 3659TIP3    H232469   1.926   5.904   4.013  1.9227  0.4926 -1.5026
 3660TIP3   OH232470   6.632   3.362   2.702 -0.2652 -0.1297  0.5300
 3660TIP3    H132471   6.695   3.323   2.642 -0.7337  0.9526 -0.6982
 3660TIP3    H232472   6.570   3.292   2.720 -0.2010 -0.4301 -0.3717
 3661TIP3   OH232473   4.797   6.337   6.301  0.1197  0.2300 -0.4717
 3661TIP3    H132474   4.812   6.366   6.391 -3.5168  1.3121 -0.0476
 3661TIP3    H232475   4.800   6.241   6.306  0.0892  0.2797  0.8038
 3662TIP3   OH232476   2.204   6.017  13.510 -0.1876  0.1423 -0.3945
 3662TIP3    H132477   2.285   6.067  13.498  0.1010 -0.1115  0.4012
 3662TIP3    H232478   2.230   5.926  13.497 -0.3861  0.0791 -0.3442
 3663TIP3   OH232479   5.028   6.817   5.426 -0.3982  0.2398  0.0425
 3663TIP3    H132480   5.050   6.836   5.517 -2.0669  0.3101  0.4655
 3663TIP3    H232481   5.044   6.723   5.416 -0.9585  0.0764  0.6482
 3664TIP3   OH232482   6.052   1.447   2.754  0.6245  0.4938  0.0410
 3664TIP3    H132483   5.970   1.495   2.743 -0.0751 -0.3790  1.1669
 3664TIP3    H232484   6.065   1.402   2.671 -0.5707 -0.1152  0.1552
 3665TIP3   OH232485   6.316   6.110   6.279  0.0293 -0.9344  0.6553
 3665TIP3    H132486   6.222   6.106   6.299  0.2277  0.3182  1.9475
 3665TIP3    H232487   6.335   6.025   6.239 -1.7280 -1.0642  0.0015
 3666TIP3   OH232488   0.598   6.234   2.083  0.2371  0.0143 -0.0049
 3666TIP3    H132489   0.503   6.231   2.070  0.0724 -0.6874  1.1730
 3666TIP3    H232490   0.612   6.187   2.165  1.6121  0.1098 -0.1635
 3667TIP3   OH232491   2.716   4.232  15.946  0.5089  0.3026 -0.9185
 3667TIP3    H132492   2.732   4.149  15.991  1.4084  0.2375 -1.3388
 3667TIP3    H232493   2.698   4.206  15.855 -1.2333  0.4333 -0.6446
 3668TIP3   OH232494   1.739   2.553  13.653  0.2726 -0.1786 -0.6825
 3668TIP3    H132495   1.826   2.533  13.689  0.4298 -0.4899 -1.2221
 3668TIP3    H232496   1.739   2.512  13.567 -0.6787 -0.8069 -0.4041
 3669TIP3   OH232497   5.333   6.431  16.526 -1.2539  0.0690  0.0066
 3669TIP3    H132498   5.405   6.376  16.557 -0.5155  1.4180  0.7517
 3669TIP3    H232499   5.265   6.422  16.593 -0.6552  0.9966  0.7550
 3670TIP3   OH232500   0.417   5.620  10.527  0.6467 -0.5284 -0.2297
 3670TIP3    H132501   0.454   5.661  10.605  0.9766 -0.6969 -0.2935
 3670TIP3    H232502   0.450   5.674  10.455 -1.2957  0.8661 -0.1572
 3671TIP3   OH232503   3.063   1.488  12.509  0.3592 -0.5946  0.0993
 3671TIP3    H132504   2.978   1.445  12.518 -1.0416  1.7313 -1.1169
 3671TIP3    H232505   3.068   1.511  12.416  2.0635 -0.1420  0.2754
 3672TIP3   OH232506   1.017   0.699   0.987 -0.8874  0.4070  0.9086
 3672TIP3    H132507   1.101   0.727   1.022 -0.1781 -0.9851  0.4179
 3672TIP3    H232508   1.002   0.755   0.911 -0.2353  0.4382  0.8012
 3673TIP3   OH232509   5.559   5.997  11.034 -0.0411  0.1538 -0.0502
 3673TIP3    H132510   5.470   5.961  11.031 -1.1644  2.5796  1.1877
 3673TIP3    H232511   5.587   5.997  10.943 -0.9388 -1.4264 -0.3749
 3674TIP3   OH232512   3.169   4.741   0.116  0.0128 -0.2397  0.3457
 3674TIP3    H132513   3.236   4.744   0.049 -0.1108  3.3783  0.2082
 3674TIP3    H232514   3.088   4.764   0.070 -0.6601 -0.7762  1.2179
 3675TIP3   OH232515   1.930   1.780   4.351 -0.2908 -0.1297 -0.7380
 3675TIP3    H132516   1.904   1.860   4.306 -1.7298 -0.1846 -0.0547
 3675TIP3    H232517   1.855   1.757   4.405  0.5405 -1.3062 -0.0282
 3676TIP3   OH232518   6.515   1.499   0.299 -0.4979 -0.5821  0.0222
 3676TIP3    H132519   6.509   1.516   0.205 -1.2071  0.8936  0.3052
 3676TIP3    H232520   6.427   1.520   0.333 -0.4254 -1.6407  0.9484
 3677TIP3   OH232521   1.773   1.029  15.016 -0.0429 -0.2170 -0.0442
 3677TIP3    H132522   1.704   0.964  15.005 -2.0943  1.5973  1.2215
 3677TIP3    H232523   1.839   0.985  15.070 -0.8705 -1.5654 -0.0787
 3678TIP3   OH232524   1.744   4.879   3.344  0.7942 -0.8321  0.3838
 3678TIP3    H132525   1.697   4.848   3.421 -0.4067  1.2377  0.5326
 3678TIP3    H232526   1.684   4.861   3.271  1.4267 -1.6897  0.0570
 3679TIP3   OH232527   3.401   4.737  17.247 -0.3387 -0.2752  0.5740
 3679TIP3    H132528   3.453   4.807  17.287  0.0181  0.2226 -0.7192
 3679TIP3    H232529   3.463   4.667  17.229 -0.8372 -1.3351  2.6506
 3680TIP3   OH232530   3.277   4.262   2.585 -0.3639 -0.6105 -0.3856
 3680TIP3    H132531   3.221   4.232   2.656  0.5665 -0.2585  0.5222
 3680TIP3    H232532   3.334   4.328   2.625 -0.4320  0.2696 -1.6691
 3681TIP3   OH232533   6.027   4.226  11.508  0.2040 -0.2335 -0.0381
 3681TIP3    H132534   5.990   4.297  11.560 -0.7419  0.2615 -1.3299
 3681TIP3    H232535   5.976   4.149  11.534  1.1977 -0.4535  1.3270
 3682TIP3   OH232536   4.825   3.285   4.303  0.0763  0.0874 -0.3749
 3682TIP3    H132537   4.850   3.199   4.270  0.3964 -0.5332  1.4154
 3682TIP3    H232538   4.766   3.268   4.375  0.3844  1.3561  0.2071
 3683TIP3   OH232539   6.268   5.292   2.414 -0.2301 -0.1153 -0.1059
 3683TIP3    H132540   6.328   5.226   2.449  0.7334  1.3062  1.0834
 3683TIP3    H232541   6.257   5.269   2.322 -0.4747 -2.2901  0.4147
 3684TIP3   OH232542   2.919   0.946   5.382 -0.1609  0.1109 -0.4008
 3684TIP3    H132543   2.880   1.031   5.359 -0.2316  0.7747  1.9330
 3684TIP3    H232544   3.013   0.958   5.368 -0.3815 -0.4877 -3.0158
 3685TIP3   OH232545   0.825   0.928  12.492 -0.1144  0.1509  0.5595
 3685TIP3    H132546   0.793   0.848  12.450  0.3396 -0.6447  1.6831
 3685TIP3    H232547   0.749   0.986  12.492 -0.1815  0.1076 -1.1388
 3686TIP3   OH232548   4.181   2.080   2.655  0.3822  0.3274  0.0160
 3686TIP3    H132549   4.129   2.027   2.594  0.3936  0.6676 -0.2892
 3686TIP3    H232550   4.170   2.170   2.624  0.8573  0.4385  0.1707
 3687TIP3   OH232551   2.845   5.013   1.411  0.0114  0.2577  0.2261
 3687TIP3    H132552   2.763   5.041   1.371 -0.7251 -0.9202  0.8650
 3687TIP3    H232553   2.819   4.950   1.478  1.4164  0.1312  0.6857
 3688TIP3   OH232554   1.323   1.480   1.478 -0.7008 -0.3320 -0.5810
 3688TIP3    H132555   1.415   1.457   1.493 -0.2084  0.8958 -1.5367
 3688TIP3    H232556   1.322   1.576   1.480 -1.6578 -0.2820 -2.1265
 3689TIP3   OH232557   0.846   6.095  13.267  0.7545  0.2707  0.4321
 3689TIP3    H132558   0.857   6.002  13.287 -1.2878 -0.4866 -1.5639
 3689TIP3    H232559   0.926   6.118  13.219  0.3119 -1.1244 -1.0675
 3690TIP3   OH232560   6.732   3.295   1.126 -0.6013 -0.7327  0.2712
 3690TIP3    H132561   6.768   3.256   1.046 -0.7621  1.2875 -0.8622
 3690TIP3    H232562   6.673   3.229   1.161  1.3364 -2.6749  0.1350
 3691TIP3   OH232563   6.032   5.084  13.698 -0.2532  0.7581 -0.0841
 3691TIP3    H132564   6.055   5.174  13.720  1.8271  0.4502 -0.7785
 3691TIP3    H232565   6.051   5.034  13.777 -0.5834  0.7934  0.0205
 3692TIP3   OH232566   2.303   1.713   1.779  0.8598 -0.2226  0.1623
 3692TIP3    H132567   2.278   1.701   1.687 -0.2373 -0.8643  0.5259
 3692TIP3    H232568   2.387   1.759   1.775  0.4288  0.5141 -1.1447
 3693TIP3   OH232569   1.038   4.492  11.146  0.2246  0.0432 -0.1663
 3693TIP3    H132570   1.063   4.526  11.061 -0.0553  0.6204 -0.0241
 3693TIP3    H232571   1.050   4.397  11.139  1.1867  0.1815 -0.5127
 3694TIP3   OH232572   2.865   0.735  15.300 -0.1473 -0.4394  0.2429
 3694TIP3    H132573   2.895   0.647  15.322 -2.8914 -1.1990  1.4274
 3694TIP3    H232574   2.780   0.721  15.258  0.2297  1.5876 -1.3422
 3695TIP3   OH232575   0.578   3.788   3.855  0.3511 -0.3533  0.0668
 3695TIP3    H132576   0.493   3.830   3.868  0.8735  0.5847  0.5885
 3695TIP3    H232577   0.585   3.726   3.927  0.2597 -0.1760  0.2293
 3696TIP3   OH232578   3.820   0.507  12.776 -0.0287 -0.1727  0.2185
 3696TIP3    H132579   3.844   0.483  12.686 -1.7457  1.7889 -0.8643
 3696TIP3    H232580   3.724   0.511  12.774 -0.1286 -0.4924  2.2890
 3697TIP3   OH232581   1.853   6.248   1.760 -0.3251  0.1891 -0.2692
 3697TIP3    H132582   1.831   6.181   1.695 -1.6302 -0.4515  0.7816
 3697TIP3    H232583   1.846   6.203   1.844  3.6677  0.3404  0.3325
 3698TIP3   OH232584   5.602   4.817   5.684 -0.1870 -0.2113 -0.0285
 3698TIP3    H132585   5.549   4.881   5.635  1.1253  0.2093 -0.9582
 3698TIP3    H232586   5.540   4.749   5.709 -0.9167 -0.5785 -2.5431
 3699TIP3   OH232587   5.780   4.197   0.833 -0.2420 -0.0180  0.2816
 3699TIP3    H132588   5.776   4.133   0.903 -0.3138  1.9573  2.1710
 3699TIP3    H232589   5.836   4.156   0.766 -2.4233 -3.1038  0.1524
 3700TIP3   OH232590   6.134   0.363  12.165 -0.5987 -0.2121  0.3403
 3700TIP3    H132591   6.091   0.439  12.125 -1.1214 -0.9373 -0.5236
 3700TIP3    H232592   6.124   0.377  12.259 -0.9741  0.6315  0.1855
 3701TIP3   OH232593   6.538   3.205   3.232  0.5985 -0.3538 -0.8683
 3701TIP3    H132594   6.597   3.225   3.160  0.1203  0.5756 -1.0245
 3701TIP3    H232595   6.549   3.278   3.293  1.4312 -1.4076  0.3074
 3702TIP3   OH232596   6.049   1.356   2.221 -0.3499  0.4708  0.0717
 3702TIP3    H132597   6.044   1.362   2.125 -2.5562 -0.0341  0.1161
 3702TIP3    H232598   5.982   1.416   2.252 -1.2564 -1.0705  1.2322
 3703TIP3   OH232599   0.822   0.781  16.617  0.0500 -0.7221  0.0386
 3703TIP3    H132600   0.828   0.727  16.697 -0.9207  1.6772  1.8442
 3703TIP3    H232601   0.733   0.766  16.586  0.1669 -1.0458 -0.1461
 3704TIP3   OH232602   4.388   0.573  16.998 -0.4444 -0.4554  0.6294
 3704TIP3    H132603   4.308   0.621  17.021 -0.3658 -0.6435  1.3014
 3704TIP3    H232604   4.425   0.622  16.925  0.6906  1.6893  2.5310
 3705TIP3   OH232605   0.151   4.391  12.435  0.1698  0.2283 -0.3351
 3705TIP3    H132606   0.227   4.335  12.416  0.7300  2.0613 -4.3759
 3705TIP3    H232607   0.182   4.450  12.504  1.7146 -0.3462 -0.4867
 3706TIP3   OH232608   6.467   6.454  12.041 -0.2674  0.1311 -0.3105
 3706TIP3    H132609   6.372   6.443  12.042 -0.1652 -0.8985 -0.7373
 3706TIP3    H232610   6.484   6.514  11.968 -0.5373 -0.3309 -0.7597
 3707TIP3   OH232611   2.162   1.347   2.146 -0.1696  0.5034 -0.7394
 3707TIP3    H132612   2.080   1.367   2.193  0.7636  3.3587 -0.1449
 3707TIP3    H232613   2.228   1.339   2.215  0.7101  1.9813 -1.3658
 3708TIP3   OH232614   3.133   2.645  15.468  0.0893 -0.0297  0.0396
 3708TIP3    H132615   3.161   2.737  15.464 -0.7006  0.1883 -1.5718
 3708TIP3    H232616   3.144   2.620  15.559  1.9499  1.1391  0.1875
 3709TIP3   OH232617   1.048   5.885   4.785  0.1096  0.5481  0.0765
 3709TIP3    H132618   1.084   5.810   4.832 -0.5881  0.7090  0.9068
 3709TIP3    H232619   1.091   5.961   4.824  1.1186  0.5808 -1.0415
 3710TIP3   OH232620   1.351   0.613  11.450 -0.3444 -0.0288  0.0984
 3710TIP3    H132621   1.282   0.564  11.495  0.0127  0.3546  1.1057
 3710TIP3    H232622   1.417   0.628  11.518  0.0819  0.8292 -0.4905
 3711TIP3   OH232623   0.933   1.049  12.883 -0.4345  0.0095 -1.2100
 3711TIP3    H132624   1.017   1.039  12.839 -0.0236 -1.9255 -0.1116
 3711TIP3    H232625   0.923   1.143  12.895  2.9050  0.2609  1.0443
 3712TIP3   OH232626   6.013   0.545  14.634  0.8261  0.2315  0.2273
 3712TIP3    H132627   6.048   0.567  14.548  0.8028 -3.7627 -0.9913
 3712TIP3    H232628   6.085   0.563  14.695  2.7584 -1.5630 -1.3648
 3713TIP3   OH232629   1.133   5.807  17.061  0.1815  0.2334  0.1056
 3713TIP3    H132630   1.119   5.862  17.138 -1.2485  0.3393 -0.2017
 3713TIP3    H232631   1.053   5.755  17.053 -0.0032  0.7251 -1.7076
 3714TIP3   OH232632   2.897   4.070  16.429 -0.4569 -0.2001  0.0839
 3714TIP3    H132633   2.990   4.077  16.408 -0.0269 -2.0329  1.1309
 3714TIP3    H232634   2.866   3.995  16.378 -1.3467  0.3013 -0.1475
 3715TIP3   OH232635   3.490   3.106   1.134  0.3156 -0.2916 -0.2998
 3715TIP3    H132636   3.443   3.177   1.178 -0.2827 -1.5073  1.1119
 3715TIP3    H232637   3.582   3.127   1.148  0.1442  0.0261  0.4454
 3716TIP3   OH232638   4.679   6.728   3.220  0.7170  0.6505 -0.3824
 3716TIP3    H132639   4.735   6.782   3.164 -2.4194  1.8954 -2.5645
 3716TIP3    H232640   4.635   6.790   3.278  0.2805 -0.0858  0.0947
 3717TIP3   OH232641   3.122   3.815   1.086  0.3900  0.0980 -0.4957
 3717TIP3    H132642   3.170   3.848   1.011 -0.0306  1.1269 -0.3257
 3717TIP3    H232643   3.142   3.721   1.088  0.3542  0.0397 -1.9163
 3718TIP3   OH232644   5.137   1.510   6.072 -0.0253 -0.1766  0.2924
 3718TIP3    H132645   5.232   1.517   6.063 -0.0888 -0.2067 -0.5227
 3718TIP3    H232646   5.123   1.436   6.131  0.4745  0.5106  1.2948
 3719TIP3   OH232647   4.277   4.332  13.080 -0.0451 -0.1366  0.3592
 3719TIP3    H132648   4.252   4.374  12.998 -1.1048 -0.2721  0.5976
 3719TIP3    H232649   4.354   4.280  13.058 -1.2015 -1.4127 -0.9374
 3720TIP3   OH232650   0.735   3.863  16.961  0.1216  0.9117 -0.9920
 3720TIP3    H132651   0.668   3.921  16.998  0.7640 -1.0327  4.0056
 3720TIP3    H232652   0.807   3.922  16.938  0.6291  2.4608  3.5484
 3721TIP3   OH232653   5.829   2.486  14.277  0.3995 -0.5267  0.1726
 3721TIP3    H132654   5.769   2.486  14.202  1.8306  2.1033 -1.1315
 3721TIP3    H232655   5.912   2.454  14.242  0.8687 -0.0609  0.8357
 3722TIP3   OH232656   2.311   5.226  14.853 -0.1781 -0.4540  0.0989
 3722TIP3    H132657   2.323   5.195  14.942 -0.3179  0.4041  0.4254
 3722TIP3    H232658   2.217   5.232  14.841 -0.1829 -1.2934 -0.3749
 3723TIP3   OH232659   0.268   5.331  11.577  0.0588 -0.1231 -0.0527
 3723TIP3    H132660   0.186   5.287  11.555 -0.4281  1.1889 -0.9586
 3723TIP3    H232661   0.254   5.364  11.666 -0.4329  0.1916 -0.2456
 3724TIP3   OH232662   5.024   4.187  15.914  0.3373  0.2563 -0.3042
 3724TIP3    H132663   5.080   4.155  15.985  0.1553  0.4512 -0.0735
 3724TIP3    H232664   5.085   4.231  15.854  0.3764  0.8540  0.1655
 3725TIP3   OH232665   2.994   1.255  11.790  0.5980  0.2391 -0.2180
 3725TIP3    H132666   3.016   1.165  11.812  0.6106 -0.0313 -1.2708
 3725TIP3    H232667   2.899   1.256  11.781  0.6453  0.2078 -0.7249
 3726TIP3   OH232668   0.131   1.097   4.082 -0.3283 -0.3580 -0.2408
 3726TIP3    H132669   0.100   1.188   4.083  1.2283  0.2250 -1.5216
 3726TIP3    H232670   0.146   1.078   3.989 -2.0807 -2.4781 -0.1647
 3727TIP3   OH232671   2.594   1.778   2.203 -0.3157  0.3101 -0.3177
 3727TIP3    H132672   2.653   1.849   2.230 -1.9796  0.9644  1.8841
 3727TIP3    H232673   2.652   1.703   2.189  1.1096  1.0422  1.3356
 3728TIP3   OH232674   5.623   3.569  14.566  0.0047 -0.5019  0.2395
 3728TIP3    H132675   5.599   3.624  14.641  0.5932 -1.8411  1.4577
 3728TIP3    H232676   5.540   3.529  14.539 -0.2547  0.1875 -0.0004
 3729TIP3   OH232677   6.115   5.797  14.298  0.6043  0.3343 -0.5130
 3729TIP3    H132678   6.116   5.789  14.202  1.3081 -0.7296 -0.4320
 3729TIP3    H232679   6.155   5.883  14.314  0.2003  0.6581 -1.1777
 3730TIP3   OH232680   5.402   0.812  12.906  0.5689 -0.2236  0.1231
 3730TIP3    H132681   5.477   0.792  12.849  0.8453  0.7943  0.1041
 3730TIP3    H232682   5.401   0.908  12.910 -2.3317 -0.0181 -2.0557
 3731TIP3   OH232683   3.126   6.535   2.293 -0.5921  0.2219 -0.1232
 3731TIP3    H132684   3.042   6.576   2.313 -0.1550  2.0167 -1.6405
 3731TIP3    H232685   3.109   6.483   2.215 -0.8068 -1.3982  0.9661
 3732TIP3   OH232686   2.893   6.773   0.526 -0.0928  0.4468 -0.1436
 3732TIP3    H132687   2.807   6.748   0.492 -0.0680  0.9490 -0.5858
 3732TIP3    H232688   2.916   6.852   0.478  0.5630  0.3886  0.0612
 3733TIP3   OH232689   3.938   0.714   2.938  0.3943 -0.2162  0.1556
 3733TIP3    H132690   4.030   0.714   2.912  1.2148 -1.4026  2.6980
 3733TIP3    H232691   3.898   0.646   2.885  1.5340 -1.2389  0.5539
 3734TIP3   OH232692   3.095   6.631  16.302 -0.6509  0.3854  0.8133
 3734TIP3    H132693   3.078   6.618  16.395  2.1876  0.1100  1.3791
 3734TIP3    H232694   3.016   6.673  16.269 -1.5524  0.9556  3.4436
 3735TIP3   OH232695   0.973   1.333  12.865 -0.3631 -0.2252 -0.2532
 3735TIP3    H132696   1.004   1.412  12.911  0.3195  0.2766 -1.5095
 3735TIP3    H232697   1.033   1.325  12.790 -1.2479 -1.1906 -0.8742
 3736TIP3   OH232698   1.326   5.188  14.053 -0.2097  0.0301 -0.1297
 3736TIP3    H132699   1.246   5.227  14.016 -0.1525  0.4474  0.1870
 3736TIP3    H232700   1.374   5.262  14.090 -1.6323 -0.6454  3.4469
 3737TIP3   OH232701   4.747   0.846  15.356 -0.0094  0.0016  0.1257
 3737TIP3    H132702   4.806   0.922  15.353 -0.0631  0.0621  0.5036
 3737TIP3    H232703   4.663   0.880  15.327 -0.2436  0.2981  1.0967
 3738TIP3   OH232704   1.253   1.144  12.528 -0.0422 -0.0568  0.2189
 3738TIP3    H132705   1.208   1.076  12.479  2.5491  0.0501 -2.6048
 3738TIP3    H232706   1.184   1.204  12.555 -1.7817 -0.4939 -2.8167
 3739TIP3   OH232707   6.430   0.511  16.462 -0.0344  0.3886  0.1911
 3739TIP3    H132708   6.454   0.592  16.417 -0.2431  0.6817  0.6058
 3739TIP3    H232709   6.379   0.462  16.397  0.0952  0.5853 -0.0602
 3740TIP3   OH232710   2.726   6.346  15.745 -0.3422 -0.6530  0.1127
 3740TIP3    H132711   2.671   6.267  15.749 -0.1981 -0.6924  2.4397
 3740TIP3    H232712   2.801   6.326  15.801 -0.2078  1.0510  0.5950
 3741TIP3   OH232713   4.908   1.470   5.227  0.3137  0.5977  0.1630
 3741TIP3    H132714   4.893   1.379   5.253 -0.8520  0.3413 -1.2310
 3741TIP3    H232715   4.968   1.505   5.292 -1.6986 -0.2272  2.6383
 3742TIP3   OH232716   1.528   6.478  16.357 -0.4862  0.0177  0.2905
 3742TIP3    H132717   1.568   6.516  16.279 -1.0287  1.8916  0.8806
 3742TIP3    H232718   1.473   6.407  16.324 -0.6993  0.7672 -1.0219
 3743TIP3   OH232719   3.782   3.493  14.281 -0.0886 -0.1497 -0.4751
 3743TIP3    H132720   3.853   3.430  14.267  0.1521 -0.4375  1.6794
 3743TIP3    H232721   3.750   3.473  14.369 -0.5937  2.1978 -0.0737
 3744TIP3   OH232722   5.508   5.887  16.358  0.2062 -0.0906  0.1016
 3744TIP3    H132723   5.558   5.812  16.326  2.7980  1.2036  0.8432
 3744TIP3    H232724   5.484   5.863  16.448  1.4768  0.1119  0.5185
 3745TIP3   OH232725   1.981   5.379  12.198  0.1142 -0.2544 -0.5899
 3745TIP3    H132726   1.966   5.467  12.164  0.0887  0.4845  1.2335
 3745TIP3    H232727   1.927   5.323  12.142  1.3148  0.6447 -2.7634
 3746TIP3   OH232728   2.775   1.122   5.210  0.4366 -0.2192  0.3842
 3746TIP3    H132729   2.762   1.098   5.119 -1.6304 -2.1399  1.0957
 3746TIP3    H232730   2.693   1.166   5.235  0.7085 -0.3096  1.4760
 3747TIP3   OH232731   2.262   4.700  16.914  0.5723  0.3389 -0.3884
 3747TIP3    H132732   2.224   4.654  16.988  1.1021 -1.2917 -1.0681
 3747TIP3    H232733   2.328   4.758  16.952 -0.1901  0.6378  0.5061
 3748TIP3   OH232734   5.043   5.321   5.997 -0.3107 -0.5741 -0.4505
 3748TIP3    H132735   4.968   5.363   5.955 -1.0643  1.0215  2.2748
 3748TIP3    H232736   5.119   5.371   5.967 -0.9474  1.2354  0.7999
 3749TIP3   OH232737   5.762   3.797  16.406  0.2740  0.5919  0.0149
 3749TIP3    H132738   5.822   3.806  16.332  2.5099  2.2189  1.8901
 3749TIP3    H232739   5.800   3.727  16.459 -1.1762 -0.3972 -0.2025
 3750TIP3   OH232740   1.183   4.015  13.583  0.4591 -0.1829  0.3542
 3750TIP3    H132741   1.104   4.030  13.532 -1.2474  0.2353  2.9214
 3750TIP3    H232742   1.234   4.095  13.573 -0.1645  0.1617 -0.1418
 3751TIP3   OH232743   1.826   5.883   1.778  0.0182  0.0270 -0.0846
 3751TIP3    H132744   1.773   5.818   1.824 -0.4663  0.7909  0.4729
 3751TIP3    H232745   1.822   5.857   1.686 -1.6707  0.2785 -0.1158
 3752TIP3   OH232746   0.967   1.679   2.329  0.0871  0.1517 -0.3575
 3752TIP3    H132747   0.945   1.585   2.332  2.2646 -0.3683  1.8309
 3752TIP3    H232748   0.925   1.716   2.406  0.9503  0.5588 -0.0765
 3753TIP3   OH232749   0.220   2.466   5.857  0.1997  0.3130 -0.1691
 3753TIP3    H132750   0.126   2.480   5.870  0.0814 -1.4958  1.4359
 3753TIP3    H232751   0.260   2.550   5.880 -0.9528  0.8177  0.0704
 3754TIP3   OH232752   5.948   5.700  14.913  0.2516 -0.3008  0.2153
 3754TIP3    H132753   5.902   5.655  14.983  2.3987 -0.9328  1.3309
 3754TIP3    H232754   5.994   5.772  14.957  1.4037 -0.5236 -0.5808
 3755TIP3   OH232755   3.818   0.673  13.447 -0.3301  1.1222 -0.2175
 3755TIP3    H132756   3.811   0.670  13.351 -2.5119  0.2705 -0.0918
 3755TIP3    H232757   3.793   0.585  13.475 -2.6977  2.1630  1.2099
 3756TIP3   OH232758   0.581   2.555  10.611  0.9051 -0.3970 -0.0014
 3756TIP3    H132759   0.560   2.548  10.518 -1.9522  3.0876  0.1768
 3756TIP3    H232760   0.677   2.566  10.612  0.9157  0.6353 -2.6691
 3757TIP3   OH232761   1.428   1.861  10.969 -0.9474  0.3490 -0.3439
 3757TIP3    H132762   1.433   1.800  10.895 -0.3914  0.4271 -0.3785
 3757TIP3    H232763   1.352   1.915  10.950 -1.4597 -0.3375 -0.3069
 3758TIP3   OH232764   2.722   5.865  14.557  0.4433  0.1467 -0.6614
 3758TIP3    H132765   2.745   5.906  14.640  1.1622 -0.7737 -0.3888
 3758TIP3    H232766   2.669   5.931  14.511  1.4029  1.2928 -0.1712
 3759TIP3   OH232767   6.115   2.142  13.483 -0.0821 -0.0834 -0.1689
 3759TIP3    H132768   6.130   2.216  13.543 -0.0756 -0.2689  0.0625
 3759TIP3    H232769   6.186   2.148  13.419  1.0918 -1.0017  0.9632
 3760TIP3   OH232770   0.889   5.349   2.700  0.0861  0.4314  0.0474
 3760TIP3    H132771   0.897   5.433   2.655  0.4335 -0.0585 -0.8221
 3760TIP3    H232772   0.829   5.366   2.772  0.0952  1.4088 -0.1642
 3761TIP3   OH232773   6.332   0.128  14.987  0.2466 -0.2634  0.3820
 3761TIP3    H132774   6.333   0.101  14.895 -0.3945 -0.1324  0.3309
 3761TIP3    H232775   6.311   0.048  15.035 -0.8175 -0.0507  0.2960
 3762TIP3   OH232776   6.435   4.322  11.967 -0.1171  0.0398 -0.0010
 3762TIP3    H132777   6.486   4.375  11.906 -0.6190  0.4892 -0.0311
 3762TIP3    H232778   6.395   4.385  12.027 -1.7084 -0.1764 -0.7780
 3763TIP3   OH232779   2.576   2.403   2.392  0.4968  0.5816  0.0374
 3763TIP3    H132780   2.607   2.333   2.335  3.2048 -0.4399  2.4917
 3763TIP3    H232781   2.492   2.429   2.355  0.2369 -2.6689 -2.0701
 3764TIP3   OH232782   5.968   6.634   5.382  0.1155 -0.8762 -0.1711
 3764TIP3    H132783   6.020   6.567   5.427 -1.6817 -2.7401 -0.7047
 3764TIP3    H232784   6.026   6.669   5.315  0.3952 -3.7948 -1.6160
 3765TIP3   OH232785   2.420   2.594   3.574  0.2088  0.0288 -0.0511
 3765TIP3    H132786   2.440   2.674   3.524 -0.1344 -0.3545 -0.8244
 3765TIP3    H232787   2.385   2.534   3.508  1.2892 -1.0799  0.3513
 3766TIP3   OH232788   0.023   6.445   2.113  0.8383  0.6005  0.4994
 3766TIP3    H132789  -0.066   6.475   2.133 -0.1445 -1.4623 -0.4903
 3766TIP3    H232790   0.071   6.458   2.195 -1.0126 -0.4420  1.8170
 3767TIP3   OH232791   2.286   3.486   1.297  0.0593 -0.1344 -0.5225
 3767TIP3    H132792   2.321   3.401   1.269  1.5144  0.4893 -0.6935
 3767TIP3    H232793   2.244   3.522   1.219  0.9184  0.0214 -0.9250
 3768TIP3   OH232794   2.824   0.658  13.048 -0.5311 -0.2418 -0.2196
 3768TIP3    H132795   2.864   0.594  13.106 -0.7588  0.9964  1.3525
 3768TIP3    H232796   2.824   0.615  12.962  2.5067 -0.9688  0.0416
 3769TIP3   OH232797   3.998   4.124   5.923 -0.0252 -0.0763  0.2984
 3769TIP3    H132798   4.053   4.052   5.955  0.0020  0.9868  2.8129
 3769TIP3    H232799   4.059   4.181   5.876  0.7248  0.2443  1.6228
 3770TIP3   OH232800   3.607   1.348   5.789 -0.0650 -0.0422  0.4433
 3770TIP3    H132801   3.686   1.384   5.749  0.7762 -1.3031  0.8971
 3770TIP3    H232802   3.615   1.370   5.882 -0.6063  0.4356  0.3798
 3771TIP3   OH232803   1.742   0.588   4.711  0.1257  0.4174 -0.0119
 3771TIP3    H132804   1.754   0.664   4.655 -0.6987  1.4688  1.1796
 3771TIP3    H232805   1.648   0.569   4.707  0.1387  0.1923  0.6161
 3772TIP3   OH232806   5.820   6.648  15.604 -0.1702  0.4345  0.3897
 3772TIP3    H132807   5.909   6.627  15.578  0.1588  0.7079  1.2457
 3772TIP3    H232808   5.765   6.601  15.542  0.5661  0.5500 -0.3643
 3773TIP3   OH232809   3.398   5.369  14.239 -0.1530  0.2408 -0.1414
 3773TIP3    H132810   3.406   5.463  14.228 -1.1042  0.3556  0.0657
 3773TIP3    H232811   3.435   5.332  14.159  0.8617  0.7529  0.0776
 3774TIP3   OH232812   2.326   2.672  13.091  0.1897  0.2235 -0.5603
 3774TIP3    H132813   2.268   2.631  13.155 -0.4576 -0.4514 -1.5574
 3774TIP3    H232814   2.413   2.668  13.132 -0.3393  0.6040  0.6446
 3775TIP3   OH232815   4.230   3.280   0.520 -0.0842  0.1341  0.0618
 3775TIP3    H132816   4.206   3.286   0.427 -1.7824  1.2132  0.5321
 3775TIP3    H232817   4.306   3.338   0.529  0.4042 -0.3609 -0.7333
 3776TIP3   OH232818   0.651   5.893   3.721  0.1176  0.9786  0.8063
 3776TIP3    H132819   0.740   5.915   3.751  0.7339 -1.1746  0.7097
 3776TIP3    H232820   0.600   5.886   3.802  0.5137  0.3699  1.0143
 3777TIP3   OH232821   0.624   1.039  15.331 -0.4736  0.7223  0.9467
 3777TIP3    H132822   0.585   1.098  15.266 -0.8700  0.0880  0.6027
 3777TIP3    H232823   0.591   1.072  15.415 -1.5668  0.3491  0.6821
 3778TIP3   OH232824   0.768   0.553   0.219  0.2836  0.2600 -0.1535
 3778TIP3    H132825   0.849   0.565   0.170  0.8082 -1.0812  0.3344
 3778TIP3    H232826   0.740   0.464   0.198  1.0602 -0.7583  2.6567
 3779TIP3   OH232827   3.714   1.773   1.520 -0.1137 -0.3094  0.0027
 3779TIP3    H132828   3.686   1.825   1.444  0.7383 -0.8164 -0.6867
 3779TIP3    H232829   3.633   1.749   1.564 -0.6132  0.1732 -0.6324
 3780TIP3   OH232830   5.153   1.254  11.560  0.0964  0.1333  0.5166
 3780TIP3    H132831   5.128   1.332  11.510  2.6110  0.5412 -0.2494
 3780TIP3    H232832   5.122   1.180  11.508 -1.9122  0.5539  1.0272
 3781TIP3   OH232833   3.641   2.829   4.590  0.0743  0.6783 -0.0759
 3781TIP3    H132834   3.691   2.748   4.576  2.0807  1.9255 -0.4735
 3781TIP3    H232835   3.553   2.799   4.612  1.0266 -1.6279  0.8827
 3782TIP3   OH232836   2.229   3.675  13.820 -0.6901  0.5320  0.0719
 3782TIP3    H132837   2.252   3.737  13.751  0.9495 -1.3342 -1.2027
 3782TIP3    H232838   2.228   3.726  13.900  2.2109  1.9608 -0.6734
 3783TIP3   OH232839   6.275   4.239   3.834 -0.1522 -0.0960  0.3088
 3783TIP3    H132840   6.200   4.288   3.799  0.1998  0.1611 -0.0941
 3783TIP3    H232841   6.350   4.297   3.819  0.1514 -0.4244  0.5567
 3784TIP3   OH232842   6.174   4.239   0.872 -0.3532 -0.4830  0.8352
 3784TIP3    H132843   6.219   4.183   0.936  0.9254  0.0525  0.4390
 3784TIP3    H232844   6.191   4.198   0.788 -1.2040 -0.6425  0.7307
 3785TIP3   OH232845   4.223   3.162  13.285 -0.0145 -0.6765 -0.2203
 3785TIP3    H132846   4.283   3.236  13.296 -0.3003 -0.4257 -0.3411
 3785TIP3    H232847   4.155   3.177  13.350 -0.0247 -0.8830 -0.1837
 3786TIP3   OH232848   5.913   0.620   2.057 -0.7275 -0.8173  0.0644
 3786TIP3    H132849   6.001   0.654   2.070 -1.5141  1.6877 -0.6533
 3786TIP3    H232850   5.921   0.559   1.984  0.4507 -0.8490  0.2091
 3787TIP3   OH232851   6.150   0.851   0.059 -0.4006 -0.0729  0.1224
 3787TIP3    H132852   6.112   0.860   0.147 -0.6060  0.4552 -0.0121
 3787TIP3    H232853   6.086   0.893   0.001 -0.7568 -1.3174 -0.4162
 3788TIP3   OH232854   4.376   0.248   5.003  0.5995  0.0483 -0.1206
 3788TIP3    H132855   4.428   0.327   5.004  1.7435 -0.6878  0.6860
 3788TIP3    H232856   4.335   0.246   4.917  1.7818  0.7269 -0.7032
 3789TIP3   OH232857   2.693   4.828  16.991 -0.4904  0.6193 -0.0397
 3789TIP3    H132858   2.711   4.901  17.050  1.0629  0.4421 -0.2604
 3789TIP3    H232859   2.659   4.759  17.048  0.2167  0.7289  0.5317
 3790TIP3   OH232860   5.226   2.887   4.981 -0.3971 -0.2869  0.2188
 3790TIP3    H132861   5.252   2.949   5.049 -0.4111 -0.4854  0.4063
 3790TIP3    H232862   5.302   2.883   4.922  0.0910 -1.0124  0.8719
 3791TIP3   OH232863   3.376   5.403  14.572  0.0677 -0.3522 -0.0920
 3791TIP3    H132864   3.462   5.441  14.558  0.4890 -0.3652  2.1344
 3791TIP3    H232865   3.335   5.403  14.485  2.1518 -0.0330 -1.1292
 3792TIP3   OH232866   2.374   1.982  16.704  0.2647 -0.3991 -0.1061
 3792TIP3    H132867   2.310   2.039  16.746  0.5753 -0.7615  0.8667
 3792TIP3    H232868   2.332   1.957  16.621 -0.7055 -0.3371  0.3471
 3793TIP3   OH232869   0.069   2.328   2.734 -0.2839  0.5907 -0.0932
 3793TIP3    H132870  -0.008   2.380   2.710  0.3560  0.7799 -1.9017
 3793TIP3    H232871   0.094   2.283   2.653 -0.7395 -2.5305  1.3711
 3794TIP3   OH232872   2.825   0.827  16.345  0.1854  0.2641  0.2986
 3794TIP3    H132873   2.803   0.872  16.263  0.8220  0.6966  0.3529
 3794TIP3    H232874   2.769   0.868  16.411 -1.8262 -1.4907 -0.2395
 3795TIP3   OH232875   1.866   3.012   1.799 -0.0257  0.2331  0.6260
 3795TIP3    H132876   1.881   2.982   1.710  2.1957 -1.8883  1.6066
 3795TIP3    H232877   1.939   3.071   1.818  0.2251 -0.3166  1.4236
 3796TIP3   OH232878   0.971   2.115  13.217 -0.0072  0.2900  0.0684
 3796TIP3    H132879   1.012   2.157  13.293  0.9736  0.0894 -0.3363
 3796TIP3    H232880   1.000   2.167  13.142  2.0071 -1.5876 -0.5616
 3797TIP3   OH232881   6.714   5.837  16.313 -0.1325  0.2277  0.0385
 3797TIP3    H132882   6.768   5.856  16.237  2.6465 -1.7638  1.3453
 3797TIP3    H232883   6.626   5.824  16.278  0.9412 -0.1371 -2.7642
 3798TIP3   OH232884   0.999   2.166   0.949 -0.0884  0.6613 -0.5760
 3798TIP3    H132885   0.935   2.098   0.930  1.2533 -0.5305 -1.0225
 3798TIP3    H232886   1.056   2.128   1.016  1.2196  0.9702 -1.4673
 3799TIP3   OH232887   3.660   4.490   2.823 -0.4406  0.0405 -0.0887
 3799TIP3    H132888   3.755   4.488   2.837  0.0098 -1.1101 -2.7122
 3799TIP3    H232889   3.628   4.409   2.863 -0.3744  0.5264  0.9747
 3800TIP3   OH232890   1.081   1.983   5.927 -0.3068 -0.4479  0.0462
 3800TIP3    H132891   1.108   1.985   6.019 -0.6490 -1.3686  0.1758
 3800TIP3    H232892   1.054   2.073   5.908 -0.1398 -0.2237  0.8136
 3801TIP3   OH232893   6.439   1.260   0.428 -0.2737 -0.2290 -0.1696
 3801TIP3    H132894   6.372   1.314   0.387 -0.0263  0.3118  0.1303
 3801TIP3    H232895   6.521   1.289   0.389 -0.2147 -0.9578 -0.6131
 3802TIP3   OH232896   2.245   0.018  16.484  0.6695  0.3436  0.6213
 3802TIP3    H132897   2.274   0.084  16.421 -1.5191  0.9319  0.1157
 3802TIP3    H232898   2.230  -0.061  16.432 -0.6055  0.6726  0.4330
 3803TIP3   OH232899   3.377   1.265  11.539  0.4698  0.2880 -0.3953
 3803TIP3    H132900   3.446   1.290  11.479  1.2180  1.0335  0.7257
 3803TIP3    H232901   3.403   1.304  11.623  0.2336 -1.9397  0.7754
 3804TIP3   OH232902   0.947   2.960  15.817 -0.1995 -0.0070 -0.7059
 3804TIP3    H132903   1.039   2.953  15.845 -0.0388 -0.6132 -1.3380
 3804TIP3    H232904   0.898   2.917  15.886  0.0689 -0.3438 -0.7197
 3805TIP3   OH232905   6.407   0.534  11.761  0.2001  0.3701 -0.4215
 3805TIP3    H132906   6.479   0.474  11.778  0.2588 -0.3442 -2.8767
 3805TIP3    H232907   6.391   0.527  11.667 -1.2621  2.5778 -0.4048
 3806TIP3   OH232908   6.456   0.282   3.861  0.7163  0.8107 -0.0027
 3806TIP3    H132909   6.452   0.245   3.949 -0.6446 -1.0654 -0.7734
 3806TIP3    H232910   6.530   0.238   3.819  0.1006  0.1594 -0.4193
 3807TIP3   OH232911   1.673   5.214  13.923 -0.2664 -0.2640  0.0463
 3807TIP3    H132912   1.679   5.159  14.002  0.4178 -0.4666 -0.1452
 3807TIP3    H232913   1.686   5.303  13.955  1.1916 -0.4479  0.0137
 3808TIP3   OH232914   5.619   6.023   5.285  0.5661  0.1453  0.0734
 3808TIP3    H132915   5.638   6.037   5.193  0.2461 -0.4400 -0.0863
 3808TIP3    H232916   5.653   6.100   5.329  0.4325  0.5749 -0.5728
 3809TIP3   OH232917   1.969   5.675   3.629  0.2244  0.3263 -0.0732
 3809TIP3    H132918   1.943   5.584   3.622 -1.0115  0.6876 -0.3797
 3809TIP3    H232919   1.888   5.722   3.650  0.8293  1.3582  0.0275
 3810TIP3   OH232920   0.799   3.021   5.637  0.1846  0.5183 -0.1528
 3810TIP3    H132921   0.835   2.968   5.566  0.0340  0.5274 -0.2349
 3810TIP3    H232922   0.777   3.105   5.595 -2.9575 -0.5365 -0.8191
 3811TIP3   OH232923   3.546   3.149  12.956  0.5760  0.3728  0.5684
 3811TIP3    H132924   3.583   3.064  12.930 -0.4102 -0.6532  2.3633
 3811TIP3    H232925   3.479   3.166  12.890 -0.1090 -0.9016  0.8953
 3812TIP3   OH232926   1.428   2.986  16.126  0.1579 -0.5856  0.1822
 3812TIP3    H132927   1.475   2.945  16.198  0.8291 -0.0748  0.0489
 3812TIP3    H232928   1.370   3.050  16.168 -1.3202 -2.0284  0.4315
 3813TIP3   OH232929   5.199   3.566  17.144 -0.1689 -0.2001 -0.2084
 3813TIP3    H132930   5.205   3.633  17.076 -2.1374  0.1166 -0.1450
 3813TIP3    H232931   5.180   3.485  17.096 -0.8423 -0.1140 -0.0961
 3814TIP3   OH232932   0.624   5.665  14.854  0.0143 -0.3719 -0.1672
 3814TIP3    H132933   0.711   5.666  14.815  0.2403 -1.8009  0.2253
 3814TIP3    H232934   0.630   5.724  14.929  0.3462  0.3173 -0.7338
 3815TIP3   OH232935   1.994   3.247   2.364 -0.3180 -0.0783  0.4538
 3815TIP3    H132936   1.934   3.191   2.412  0.0838  0.8886  2.1466
 3815TIP3    H232937   1.948   3.331   2.356 -0.6398 -0.3911 -1.4617
 3816TIP3   OH232938   5.820   4.706   5.487  0.3544 -0.0443  0.3346
 3816TIP3    H132939   5.780   4.763   5.552 -0.9514  0.2281 -0.6702
 3816TIP3    H232940   5.906   4.744   5.471 -0.0355  0.9631  0.5515
 3817TIP3   OH232941   1.262   3.710   1.725 -0.5970 -0.1647 -0.8637
 3817TIP3    H132942   1.298   3.792   1.691  0.4491  0.2384  1.0618
 3817TIP3    H232943   1.338   3.651   1.729 -0.4781  0.0546  1.3778
 3818TIP3   OH232944   6.625   3.975  17.034  0.4176 -0.4206 -0.1250
 3818TIP3    H132945   6.667   3.974  16.948  1.3515  0.6050  0.3000
 3818TIP3    H232946   6.531   3.984  17.015  0.6495  0.1549 -1.0370
 3819TIP3   OH232947   5.897   3.681  16.631  0.0692 -0.4048 -0.8155
 3819TIP3    H132948   5.934   3.762  16.665 -0.9003 -0.5792  0.7419
 3819TIP3    H232949   5.964   3.615  16.648 -0.1762 -0.3840  0.2961
 3820TIP3   OH232950   5.397   2.028  15.142 -0.1882 -0.3385  0.0511
 3820TIP3    H132951   5.309   1.991  15.142 -0.0582 -0.6575 -0.5491
 3820TIP3    H232952   5.385   2.116  15.177 -0.8843 -0.0825 -0.7779
 3821TIP3   OH232953   4.905   1.748  13.263 -0.5273  0.5076 -0.7015
 3821TIP3    H132954   4.919   1.744  13.169  0.2730 -0.3191 -0.5624
 3821TIP3    H232955   4.950   1.670  13.297 -0.4165  1.0405  0.4090
 3822TIP3   OH232956   0.472   2.641  17.168 -0.5661 -0.2534  0.1080
 3822TIP3    H132957   0.431   2.679  17.090 -1.7763 -0.8407  0.4428
 3822TIP3    H232958   0.560   2.679  17.169 -0.8686  0.5356 -0.9866
 3823TIP3   OH232959   0.770   5.120   1.295  0.6664 -0.3057  0.3157
 3823TIP3    H132960   0.761   5.033   1.256 -0.9820 -0.1006  0.1804
 3823TIP3    H232961   0.829   5.106   1.369 -0.4782 -1.7968  1.0114
 3824TIP3   OH232962   2.091   1.640   0.848  0.2138 -0.2897  0.1363
 3824TIP3    H132963   2.119   1.564   0.798  0.1544 -0.3540  0.2007
 3824TIP3    H232964   2.159   1.653   0.913  0.1245 -0.4108  0.2556
 3825TIP3   OH232965   4.349   3.245   6.648  0.6507 -0.4066 -0.3882
 3825TIP3    H132966   4.265   3.290   6.635  0.9401  0.3849  0.3223
 3825TIP3    H232967   4.325   3.163   6.691  0.3364  0.6431  1.5812
 3826TIP3   OH232968   2.949   6.537  11.375  0.5397  0.0262  0.2045
 3826TIP3    H132969   2.962   6.461  11.319  0.4150 -0.3583  0.6854
 3826TIP3    H232970   3.037   6.561  11.403  1.3165  3.3165 -4.0410
 3827TIP3   OH232971   3.857   5.460   4.035  0.4880 -0.1884  0.5219
 3827TIP3    H132972   3.877   5.409   4.114  3.1561 -0.1513 -0.0401
 3827TIP3    H232973   3.900   5.544   4.050  0.5687  0.0063 -0.7355
 3828TIP3   OH232974   5.376   5.902  14.120  0.5890 -0.2177 -0.1465
 3828TIP3    H132975   5.418   5.868  14.199  1.1473 -2.5642 -1.3505
 3828TIP3    H232976   5.425   5.982  14.099  2.0576 -0.9029  0.5300
 3829TIP3   OH232977   4.522   1.725   3.055 -0.4860  0.4338  0.1692
 3829TIP3    H132978   4.452   1.778   3.093 -0.0570  0.7958  0.4717
 3829TIP3    H232979   4.477   1.663   2.998 -1.3403 -1.2404  2.4885
 3830TIP3   OH232980   4.905   2.737   6.337 -0.0268 -0.0503 -0.0354
 3830TIP3    H132981   4.871   2.665   6.283  0.4950 -1.1058  0.9947
 3830TIP3    H232982   4.987   2.761   6.295  0.7168 -1.3300  0.6336
 3831TIP3   OH232983   4.217   5.757  13.928  1.1013 -0.7824  0.3269
 3831TIP3    H132984   4.180   5.830  13.978  0.6198 -0.2404 -0.7911
 3831TIP3    H232985   4.277   5.798  13.866 -2.0210 -0.7931 -3.0366
 3832TIP3   OH232986   1.658   6.043   2.858 -0.3060 -0.5377 -0.2799
 3832TIP3    H132987   1.567   6.062   2.879 -0.3813  0.1031 -1.1368
 3832TIP3    H232988   1.678   5.962   2.905 -1.8166 -1.6062 -1.4076
 3833TIP3   OH232989   6.380   1.639   3.393  0.1584 -0.5868 -0.3780
 3833TIP3    H132990   6.335   1.583   3.329  0.6221  1.0981 -2.2908
 3833TIP3    H232991   6.454   1.674   3.345  0.1241  1.3277  0.8766
 3834TIP3   OH232992   0.832   2.218  17.075  0.5232 -0.2811  0.1392
 3834TIP3    H132993   0.767   2.286  17.053  1.0956  0.6268  1.1438
 3834TIP3    H232994   0.781   2.149  17.117 -0.0005 -0.2579 -0.4417
 3835TIP3   OH232995   1.068   5.046   6.538 -0.0839  0.0533  0.3692
 3835TIP3    H132996   1.131   4.979   6.564 -0.4718 -0.7425 -0.6848
 3835TIP3    H232997   1.002   5.046   6.608  0.4834  0.1015  0.9099
 3836TIP3   OH232998   1.310   6.449  12.338  0.4479 -0.2578  0.1360
 3836TIP3    H132999   1.331   6.541  12.321 -0.8675 -0.0854 -0.7009
 3836TIP3    H233000   1.304   6.409  12.251 -2.3734 -0.3065  0.2371
 3837TIP3   OH233001   1.306   5.112   5.753  0.0952  0.3987  0.2334
 3837TIP3    H133002   1.336   5.022   5.767 -0.9465  0.2986  2.1480
 3837TIP3    H233003   1.342   5.161   5.828 -1.1704  1.0931  0.4143
 3838TIP3   OH233004   3.543   0.644   2.149  0.0978 -0.7604 -0.0608
 3838TIP3    H133005   3.473   0.587   2.116  0.7946 -2.1399  0.7831
 3838TIP3    H233006   3.521   0.731   2.114 -2.8371 -0.8224  1.3255
 3839TIP3   OH233007   1.135   3.153   0.501  0.5419 -0.5582 -0.4049
 3839TIP3    H133008   1.199   3.083   0.515 -0.0576 -0.9055  0.7607
 3839TIP3    H233009   1.094   3.132   0.418  0.7767 -1.2645 -0.3496
 3840TIP3   OH233010   4.788   2.819   2.203  0.0802 -0.3552  0.2643
 3840TIP3    H133011   4.819   2.782   2.286  0.8499  0.0731  0.1687
 3840TIP3    H233012   4.848   2.785   2.137 -1.0870 -1.4665 -0.2750
 3841TIP3   OH233013   4.897   0.326   0.204  0.5202  0.2234  0.5184
 3841TIP3    H133014   4.963   0.260   0.224 -1.6357 -2.0315  0.6871
 3841TIP3    H233015   4.928   0.369   0.124  1.4955 -1.7492 -0.2153
 3842TIP3   OH233016   0.988   3.984   4.331  0.3140 -0.2136 -0.3429
 3842TIP3    H133017   1.020   3.896   4.312 -0.4879 -0.7442  0.6410
 3842TIP3    H233018   1.052   4.042   4.292  1.6278 -1.2407  0.2079
 3843TIP3   OH233019   3.209   5.632   2.692  0.1337  0.4867  0.0461
 3843TIP3    H133020   3.151   5.663   2.622  0.7968  0.2609 -0.6150
 3843TIP3    H233021   3.245   5.550   2.658  1.4741  1.0416  0.1014
 3844TIP3   OH233022   0.693   0.604   2.945 -0.2961  0.7933  0.2971
 3844TIP3    H133023   0.654   0.528   2.989 -2.4182  1.1097 -0.8546
 3844TIP3    H233024   0.713   0.572   2.857  3.1098  0.3947  1.1042
 3845TIP3   OH233025   2.752   5.823   3.612  0.2025 -0.1327  0.5786
 3845TIP3    H133026   2.737   5.907   3.568  1.0706 -0.1002  0.3160
 3845TIP3    H233027   2.799   5.771   3.547 -0.4615 -0.8849  0.6835
 3846TIP3   OH233028   1.488   3.541   1.736 -0.3477  0.2237  0.7459
 3846TIP3    H133029   1.512   3.448   1.734  1.6071  0.6876 -1.1023
 3846TIP3    H233030   1.540   3.580   1.666 -3.5973  2.1645 -0.7905
 3847TIP3   OH233031   2.553   1.776  12.011 -0.4532 -0.4659  0.4233
 3847TIP3    H133032   2.499   1.740  11.941  0.6738 -2.1519  0.3689
 3847TIP3    H233033   2.628   1.718  12.016  0.9280  1.2925  1.1110
 3848TIP3   OH233034   3.802   5.730   3.654  0.1459 -0.0602  0.0239
 3848TIP3    H133035   3.730   5.730   3.591  0.8828  2.5038 -0.9594
 3848TIP3    H233036   3.760   5.730   3.740 -0.8986 -2.5689 -0.4070
 3849TIP3   OH233037   4.276   2.258   4.598  0.4188  0.7963  0.6032
 3849TIP3    H133038   4.348   2.246   4.661  0.0729  1.2283  1.0862
 3849TIP3    H233039   4.230   2.336   4.629 -0.3577  0.4288  0.3886
 3850TIP3   OH233040   3.137   3.679  14.120 -0.3171 -0.4672 -0.0415
 3850TIP3    H133041   3.170   3.714  14.038  1.5722 -1.5365  0.2038
 3850TIP3    H233042   3.210   3.690  14.182 -1.3586 -0.5359  1.2502
 3851TIP3   OH233043   6.037   4.915  10.832  0.5015 -0.6133  0.1733
 3851TIP3    H133044   6.123   4.941  10.866  0.1144  0.9550  0.0386
 3851TIP3    H233045   5.974   4.965  10.884 -0.1858  0.3667 -1.5185
 3852TIP3   OH233046   4.504   5.314   5.870 -0.4096 -0.3708  0.6759
 3852TIP3    H133047   4.516   5.358   5.785  0.6261 -0.2961  0.8486
 3852TIP3    H233048   4.490   5.222   5.847 -1.3523 -0.1560  0.3694
 3853TIP3   OH233049   3.335   1.273   2.745 -0.0724  0.1130  0.2005
 3853TIP3    H133050   3.320   1.201   2.806 -2.2581 -0.2342 -0.6330
 3853TIP3    H233051   3.252   1.321   2.744 -0.2837 -0.1160 -2.7226
 3854TIP3   OH233052   5.377   0.003   2.611  0.1791  0.0824  0.0058
 3854TIP3    H133053   5.307   0.069   2.609 -0.4247 -0.5581 -1.7419
 3854TIP3    H233054   5.361  -0.047   2.691 -0.4345  0.9182  0.4137
 3855TIP3   OH233055   3.369   4.876   5.057  0.2633 -0.2341 -0.3072
 3855TIP3    H133056   3.420   4.892   4.978 -2.3992  1.8793 -1.7549
 3855TIP3    H233057   3.324   4.793   5.040  0.2279 -0.1336 -0.7154
 3856TIP3   OH233058   4.318   6.072  15.110 -0.2389 -0.9476  0.3052
 3856TIP3    H133059   4.391   6.079  15.049 -0.4711  0.1939  0.1321
 3856TIP3    H233060   4.244   6.113  15.065 -0.6235 -0.8206  1.0225
 3857TIP3   OH233061   4.990   5.637   3.482 -0.6940  0.0414  0.1337
 3857TIP3    H133062   4.951   5.602   3.402 -2.2151  2.4394 -0.2685
 3857TIP3    H233063   4.926   5.619   3.551 -1.0548  1.0916  0.0972
 3858TIP3   OH233064   4.709   4.433  14.091 -0.5641 -0.3041  0.9578
 3858TIP3    H133065   4.762   4.423  14.011  0.3874 -0.7382  1.6172
 3858TIP3    H233066   4.621   4.452  14.059 -0.1782 -0.3550 -0.1972
 3859TIP3   OH233067   1.198   4.034  16.810 -0.5876 -0.0317  0.0540
 3859TIP3    H133068   1.184   3.959  16.752  0.4347 -1.0583  1.0685
 3859TIP3    H233069   1.198   3.997  16.898 -1.1571  1.3470  0.6739
 3860TIP3   OH233070   4.984   5.892  14.576 -0.4314 -0.4775  0.2424
 3860TIP3    H133071   5.036   5.821  14.614  2.3025  1.9007  1.3798
 3860TIP3    H233072   4.966   5.951  14.650 -3.7666 -0.5232 -0.3909
 3861TIP3   OH233073   4.400   3.997  11.488  0.2517  0.1639  0.2860
 3861TIP3    H133074   4.368   4.078  11.448  0.9825  1.1444  1.5624
 3861TIP3    H233075   4.487   3.985  11.450  1.0630  1.2525  1.6997
 3862TIP3   OH233076   3.322   0.399  11.119 -0.3427  0.1661  0.3607
 3862TIP3    H133077   3.332   0.447  11.201 -2.9793  1.7693 -0.1009
 3862TIP3    H233078   3.376   0.447  11.056 -0.1146  0.3425  0.6920
 3863TIP3   OH233079   1.610   1.467   4.789  0.2160 -0.6651  0.5079
 3863TIP3    H133080   1.566   1.399   4.839 -0.7939 -0.2564  0.2011
 3863TIP3    H233081   1.566   1.548   4.815  0.5853 -0.2831 -0.0321
 3864TIP3   OH233082   0.034   4.893   1.599 -0.2828  0.1890  0.2552
 3864TIP3    H133083  -0.008   4.807   1.601 -0.1502  0.0508 -1.2696
 3864TIP3    H233084   0.114   4.879   1.549  0.4355  0.9256  1.1703
 3865TIP3   OH233085   4.969   0.327  16.752  0.5038  0.4060 -0.6429
 3865TIP3    H133086   4.877   0.301  16.751  0.6370 -0.1138  0.2648
 3865TIP3    H233087   4.968   0.419  16.726 -0.1362  0.0422 -2.0318
 3866TIP3   OH233088   2.410   6.239   5.718 -0.0939  0.1337  0.7769
 3866TIP3    H133089   2.404   6.292   5.798 -4.1568 -1.3010  1.7003
 3866TIP3    H233090   2.331   6.263   5.669  1.4409 -0.2643 -2.0552
 3867TIP3   OH233091   3.951   4.946   3.794 -0.0269  0.1238 -1.2482
 3867TIP3    H133092   3.894   5.020   3.772  0.3934  0.5761 -0.8389
 3867TIP3    H233093   4.026   4.955   3.735  1.0729  1.3010  0.2464
 3868TIP3   OH233094   4.716   5.869   5.910 -0.2159 -0.0934 -0.2248
 3868TIP3    H133095   4.807   5.870   5.941  0.3762 -2.4035 -1.6391
 3868TIP3    H233096   4.697   5.777   5.893 -2.6272  0.3992 -0.6059
 3869TIP3   OH233097   1.711   4.795   3.785  0.0683  0.6436  0.1276
 3869TIP3    H133098   1.805   4.807   3.797  0.1520  0.4373 -0.3007
 3869TIP3    H233099   1.675   4.795   3.873  0.1183  3.5087  0.2493
 3870TIP3   OH233100   4.560   1.780  14.839 -0.6889 -0.2390 -0.4615
 3870TIP3    H133101   4.596   1.773  14.751 -0.3424 -0.1145 -0.3333
 3870TIP3    H233102   4.619   1.727  14.893  0.5738  1.6343  0.1186
 3871TIP3   OH233103   1.195   6.074  11.438  0.4934 -0.0716 -0.5339
 3871TIP3    H133104   1.231   5.995  11.476  0.5398  0.6042  0.9079
 3871TIP3    H233105   1.153   6.119  11.512 -1.1930  0.3394 -1.6714
 3872TIP3   OH233106   4.015   0.771  15.958  0.6070  0.2890  0.0018
 3872TIP3    H133107   4.003   0.863  15.938 -0.5441  0.0033 -0.6981
 3872TIP3    H233108   3.926   0.739  15.977  1.2982  0.1647  4.1081
 3873TIP3   OH233109   5.544   4.878  14.543  0.4448 -0.1786 -0.5619
 3873TIP3    H133110   5.473   4.834  14.497  1.2038 -1.1619 -0.8323
 3873TIP3    H233111   5.605   4.906  14.474  0.3999  0.5318 -0.3252
 3874TIP3   OH233112   2.360   3.726   0.407 -0.1177  0.1262 -0.1852
 3874TIP3    H133113   2.325   3.793   0.348  0.6557  1.3401  0.6839
 3874TIP3    H233114   2.284   3.697   0.459 -0.1355  1.7044  0.7174
 3875TIP3   OH233115   3.876   2.196   5.437 -0.4478  0.3425 -0.1351
 3875TIP3    H133116   3.862   2.262   5.369 -0.2088  2.6659  1.8928
 3875TIP3    H233117   3.968   2.170   5.427 -0.4634  0.5345 -0.8033
 3876TIP3   OH233118   5.080   5.460  12.221  0.2191  0.1476  0.4047
 3876TIP3    H133119   5.009   5.481  12.282  0.2223  1.9669 -0.1411
 3876TIP3    H233120   5.160   5.474  12.272  0.2204  1.6145  0.0530
 3877TIP3   OH233121   1.902   1.414   1.950  0.1863 -0.1483 -0.8680
 3877TIP3    H133122   1.912   1.367   2.034  0.8501  0.1718 -0.7649
 3877TIP3    H233123   1.992   1.432   1.922 -0.0548  0.5468 -1.2024
 3878TIP3   OH233124   0.960   3.942   1.730  0.2273 -0.1522 -0.3538
 3878TIP3    H133125   0.951   3.933   1.635 -1.5582  0.1578 -0.2381
 3878TIP3    H233126   0.987   4.033   1.743  0.2892 -0.1413 -0.5447
 3879TIP3   OH233127   4.397   3.405  14.530 -0.0008 -0.3370 -0.0080
 3879TIP3    H133128   4.359   3.356  14.457  0.2688 -1.9505  0.8832
 3879TIP3    H233129   4.488   3.421  14.503  0.6763 -2.5961  0.6758
 3880TIP3   OH233130   0.490   2.428   1.917  0.0511  0.2104  0.6662
 3880TIP3    H133131   0.555   2.391   1.857  0.1740  1.7103 -0.1552
 3880TIP3    H233132   0.440   2.490   1.864 -0.7287  0.5849  1.7948
 3881TIP3   OH233133   2.697   1.791   3.568 -0.2699  0.3400 -0.0626
 3881TIP3    H133134   2.652   1.836   3.496  0.8443  0.0128 -0.9810
 3881TIP3    H233135   2.627   1.773   3.631 -1.0515  1.7898 -0.4521
 3882TIP3   OH233136   3.400   1.468   0.821 -0.1112  0.2502  0.4833
 3882TIP3    H133137   3.478   1.463   0.766 -1.0693  0.2936 -0.9247
 3882TIP3    H233138   3.340   1.403   0.783 -1.5017  1.5912  0.3134
 3883TIP3   OH233139   3.521   6.546   1.790  0.1997  0.2414 -0.1973
 3883TIP3    H133140   3.606   6.508   1.811 -0.7773 -1.4388  0.9293
 3883TIP3    H233141   3.536   6.599   1.712  1.9201 -1.3301 -0.9779
 3884TIP3   OH233142   5.174   4.802   5.807  0.4623  0.0438 -0.1756
 3884TIP3    H133143   5.198   4.894   5.805  1.6594 -0.2424 -2.6338
 3884TIP3    H233144   5.256   4.755   5.820  0.0122 -0.7234 -0.0150
 3885TIP3   OH233145   3.128   2.525   3.758  0.0298  0.0442  0.2184
 3885TIP3    H133146   3.056   2.586   3.742  0.1075 -0.5248 -2.7442
 3885TIP3    H233147   3.195   2.578   3.801 -0.5359  1.6335 -0.7862
 3886TIP3   OH233148   2.050   4.616  13.819 -0.2354  0.1992  0.3719
 3886TIP3    H133149   2.032   4.580  13.732  2.5813  1.6942 -0.9329
 3886TIP3    H233150   2.006   4.701  13.819 -0.3536  0.1396  0.4992
 3887TIP3   OH233151   4.626   0.072  14.347  0.6682  0.8488  0.4615
 3887TIP3    H133152   4.594   0.126  14.419  0.9985  0.9926  0.4990
 3887TIP3    H233153   4.587  -0.014  14.363 -0.3359  1.2099  0.0860
 3888TIP3   OH233154   2.890   4.228   2.357 -0.7289 -0.4414 -0.2485
 3888TIP3    H133155   2.953   4.299   2.345 -1.0739 -0.4163 -2.4292
 3888TIP3    H233156   2.826   4.242   2.286 -2.3242 -1.3617  0.9392
 3889TIP3   OH233157   2.989   0.237   6.594  0.6483  0.3535  0.8433
 3889TIP3    H133158   2.982   0.159   6.538  1.0446  2.1829 -1.9717
 3889TIP3    H233159   2.927   0.222   6.665 -1.6530 -1.1810 -1.3392
 3890TIP3   OH233160   6.671   3.653  15.826  0.2590  0.3053  0.4472
 3890TIP3    H133161   6.583   3.671  15.792  0.9928  1.7972 -0.8105
 3890TIP3    H233162   6.706   3.586  15.766 -0.0442 -0.3983  1.0362
 3891TIP3   OH233163   2.718   4.269  16.905  0.5167 -0.5352  0.4947
 3891TIP3    H133164   2.813   4.275  16.909  0.4750 -0.3600  1.3206
 3891TIP3    H233165   2.700   4.176  16.891  0.7837 -0.7289  1.3938
 3892TIP3   OH233166   4.949   5.374   4.407 -0.6632 -0.2263 -0.4468
 3892TIP3    H133167   4.942   5.434   4.333 -1.8126 -0.0455 -0.2102
 3892TIP3    H233168   4.944   5.431   4.484 -0.4474 -0.5100 -0.2220
 3893TIP3   OH233169   3.247   4.883  12.516 -0.4212  0.1057 -0.7235
 3893TIP3    H133170   3.296   4.803  12.495 -1.8443 -1.2534  0.8282
 3893TIP3    H233171   3.180   4.888  12.448  1.1182  1.3805 -2.2294
 3894TIP3   OH233172   4.921   3.735  13.277  0.0473  0.6269 -0.4272
 3894TIP3    H133173   4.888   3.825  13.275 -0.9081  0.3029  0.1194
 3894TIP3    H233174   4.998   3.736  13.220  1.1486  2.2133  0.9762
 3895TIP3   OH233175   4.139   3.610   5.080 -0.0270  0.0792 -0.2452
 3895TIP3    H133176   4.073   3.540   5.070 -0.1969  0.2602 -0.3906
 3895TIP3    H233177   4.088   3.688   5.102  0.1820  0.1133  0.1188
 3896TIP3   OH233178   4.221   4.105   2.414 -0.2015 -0.0457 -0.3244
 3896TIP3    H133179   4.239   4.011   2.421  1.6503  0.3697  1.1573
 3896TIP3    H233180   4.177   4.127   2.496  1.7447  0.8191  0.5453
 3897TIP3   OH233181   4.169   2.288  13.892  0.0957  0.7455 -0.5850
 3897TIP3    H133182   4.175   2.376  13.929 -0.9720  0.8943 -0.7459
 3897TIP3    H233183   4.251   2.277  13.845  0.7336  1.2155  0.3698
 3898TIP3   OH233184   3.391   5.002   4.244  0.7867  0.6736 -0.2808
 3898TIP3    H133185   3.339   4.942   4.297  1.2413  0.8213  0.3444
 3898TIP3    H233186   3.351   5.088   4.258  0.4646  0.6027 -0.7520
 3899TIP3   OH233187   3.241   2.507   2.592 -0.0582 -0.5074  0.1242
 3899TIP3    H133188   3.334   2.529   2.597 -0.1007 -0.5838  1.9341
 3899TIP3    H233189   3.236   2.416   2.620 -0.7508 -0.2791  0.7692
 3900TIP3   OH233190   1.250   1.179   1.183 -0.0203 -0.6144  0.0604
 3900TIP3    H133191   1.196   1.203   1.258  0.6499 -1.0237  0.6869
 3900TIP3    H233192   1.328   1.234   1.190  1.3667 -2.6016  1.3111
 3901TIP3   OH233193   2.312   5.467   3.240  0.3218 -0.2465 -0.8357
 3901TIP3    H133194   2.252   5.530   3.199  0.6902 -0.3461 -1.5441
 3901TIP3    H233195   2.257   5.391   3.260  0.1667 -0.2553 -1.2889
 3902TIP3   OH233196   5.423   1.634   2.287 -0.7957 -0.1654  0.3100
 3902TIP3    H133197   5.390   1.662   2.201 -0.7988 -0.4119  0.2324
 3902TIP3    H233198   5.435   1.716   2.335  3.2047  0.3947 -1.2890
 3903TIP3   OH233199   3.425   5.372   0.098 -0.0007  0.2509 -0.1741
 3903TIP3    H133200   3.468   5.456   0.114 -0.6883  0.5835 -0.0311
 3903TIP3    H233201   3.449   5.350   0.008  3.5147 -1.4109  0.9621
 3904TIP3   OH233202   1.354   3.031  13.297 -0.0352 -0.0964  0.3831
 3904TIP3    H133203   1.441   3.058  13.269 -0.0704  1.7462  1.8820
 3904TIP3    H233204   1.354   2.935  13.288  1.2034  0.0632 -2.1451
 3905TIP3   OH233205   2.519   6.291   4.941 -0.0647  0.2526  0.0837
 3905TIP3    H133206   2.475   6.366   4.900 -0.4223 -0.4355 -0.8137
 3905TIP3    H233207   2.544   6.323   5.028 -0.3719  1.3547 -0.2188
 3906TIP3   OH233208   6.176   2.718   1.994 -0.6023  0.3364 -0.2552
 3906TIP3    H133209   6.254   2.741   2.045 -0.0619  1.1990 -1.4116
 3906TIP3    H233210   6.112   2.786   2.016  0.0944  1.5198 -1.6831
 3907TIP3   OH233211   3.217   2.689  12.440  0.1264  0.0808  0.0043
 3907TIP3    H133212   3.145   2.651  12.390  0.3601 -1.6040  0.8724
 3907TIP3    H233213   3.245   2.765  12.388 -1.5608  0.1476 -0.8738
 3908TIP3   OH233214   1.836   1.248   1.575  0.0781 -0.6930 -0.4129
 3908TIP3    H133215   1.866   1.337   1.558  2.8422 -1.6949 -1.2985
 3908TIP3    H233216   1.819   1.211   1.488 -1.9553 -0.8259 -0.0224
 3909TIP3   OH233217   5.732   4.898  17.260  0.1210  0.2791 -0.0776
 3909TIP3    H133218   5.712   4.978  17.212 -0.5251 -0.0748 -0.4092
 3909TIP3    H233219   5.808   4.861  17.216  0.1279  0.4637 -0.2197
 3910TIP3   OH233220   6.071   4.516  11.601 -0.6793 -0.4491  0.2480
 3910TIP3    H133221   6.144   4.467  11.638 -0.5264  0.7637  1.6599
 3910TIP3    H233222   6.078   4.503  11.506  0.8458 -1.0502  0.4223
 3911TIP3   OH233223   5.030   2.979  15.166  0.5019  0.4713 -0.8153
 3911TIP3    H133224   5.008   2.925  15.090 -0.4108  1.9326 -1.6178
 3911TIP3    H233225   5.117   2.949  15.192 -0.2452 -1.9112 -0.7383
 3912TIP3   OH233226   5.308   4.956   5.212  0.1787 -0.1425 -0.0472
 3912TIP3    H133227   5.256   4.898   5.157  0.9921 -1.0281  0.1037
 3912TIP3    H233228   5.322   4.906   5.293 -2.0268  1.5671  1.5338
 3913TIP3   OH233229   1.291   0.301  12.453 -0.2137  0.0643 -0.3056
 3913TIP3    H133230   1.277   0.217  12.498 -1.0693  0.1408 -0.4105
 3913TIP3    H233231   1.375   0.333  12.487  0.0187 -0.7325 -0.1098
 3914TIP3   OH233232   3.873   1.232  14.449 -0.3545 -0.1819  0.2981
 3914TIP3    H133233   3.787   1.266  14.476 -1.1074 -1.3990 -0.5143
 3914TIP3    H233234   3.867   1.138  14.464  0.7302 -0.3213 -0.1002
 3915TIP3   OH233235   0.175   0.913   4.494  0.2032  0.5214  0.4564
 3915TIP3    H133236   0.242   0.934   4.429  0.0798  0.6993  0.3864
 3915TIP3    H233237   0.102   0.878   4.443  0.4137 -0.1053  0.5730
 3916TIP3   OH233238   3.049   4.050   3.579 -0.0848  0.5835  0.0400
 3916TIP3    H133239   3.123   3.989   3.577 -0.6181 -0.1608  1.6826
 3916TIP3    H233240   3.020   4.054   3.488 -1.5322 -3.5600  0.0890
 3917TIP3   OH233241   3.863   2.568  14.640  0.0497  0.6409  0.2866
 3917TIP3    H133242   3.784   2.582  14.588 -0.8408  1.4731  1.7747
 3917TIP3    H233243   3.875   2.473  14.640  0.0977  0.6237 -1.4148
 3918TIP3   OH233244   1.456   4.050   0.883  0.8855  0.0421 -0.5900
 3918TIP3    H133245   1.535   3.998   0.893  0.4723 -0.5516 -0.3543
 3918TIP3    H233246   1.427   4.034   0.793  1.8890  1.5102 -1.2205
 3919TIP3   OH233247   5.447   2.282  11.972 -0.0949 -0.1099 -0.5523
 3919TIP3    H133248   5.530   2.235  11.965 -0.1547 -0.0331 -2.4581
 3919TIP3    H233249   5.390   2.225  12.024  1.0902 -0.2260  0.6538
 3920TIP3   OH233250   5.543   6.760  12.966 -0.0486  0.8706 -0.2829
 3920TIP3    H133251   5.613   6.819  12.938  1.3458 -0.1565  0.9096
 3920TIP3    H233252   5.471   6.818  12.989  1.9312  2.3513  2.7289
 3921TIP3   OH233253   0.183   6.082   4.945  0.7329  0.1597  0.2968
 3921TIP3    H133254   0.098   6.054   4.979  0.9602  0.5745  1.2260
 3921TIP3    H233255   0.210   6.153   5.003  1.0313  1.0489 -0.8958
 3922TIP3   OH233256   0.088   4.412   4.881 -0.0718 -0.3378 -0.2594
 3922TIP3    H133257   0.066   4.483   4.941  0.7241 -1.2141  1.1518
 3922TIP3    H233258   0.012   4.403   4.824 -2.1493 -1.2758  2.4364
 3923TIP3   OH233259   6.030   6.726  11.807 -0.2134 -0.2464 -0.2216
 3923TIP3    H133260   6.110   6.705  11.758 -0.3577  1.7954 -1.4800
 3923TIP3    H233261   6.061   6.745  11.895  0.6889  0.1835 -0.6108
 3924TIP3   OH233262   1.663   0.169  14.465 -0.0940  1.0146  0.2667
 3924TIP3    H133263   1.652   0.104  14.535  0.0428  1.6057  0.8501
 3924TIP3    H233264   1.758   0.178  14.456 -0.1020  0.4732 -0.4484
 3925TIP3   OH233265   0.645   2.498  11.322  0.5401 -0.2391 -0.4746
 3925TIP3    H133266   0.722   2.554  11.332 -0.2288  0.4332  2.6198
 3925TIP3    H233267   0.652   2.435  11.394 -1.3161 -0.7787 -0.7287
 3926TIP3   OH233268   5.354   1.216  15.724  0.3757  0.2329 -0.4576
 3926TIP3    H133269   5.405   1.279  15.674  0.0662  0.6290 -0.2819
 3926TIP3    H233270   5.309   1.163  15.658  0.3278  0.4511 -0.5988
 3927TIP3   OH233271   2.250   1.811   5.119  0.0451  0.5954  0.1860
 3927TIP3    H133272   2.190   1.884   5.105  0.2278  0.9824  1.3700
 3927TIP3    H233273   2.267   1.811   5.213 -1.2283 -1.9723  0.5232
 3928TIP3   OH233274   0.790   1.571  16.547  0.3797 -0.5373  0.0579
 3928TIP3    H133275   0.797   1.647  16.606  1.8304  0.9578 -1.9002
 3928TIP3    H233276   0.875   1.567  16.503 -0.8745 -0.9984 -2.5354
 3929TIP3   OH233277   0.598   2.930   4.635 -0.0540  0.6122  0.0643
 3929TIP3    H133278   0.694   2.933   4.636 -0.0037  0.4642 -1.4500
 3929TIP3    H233279   0.576   2.848   4.678  0.5139  0.5287  0.2068
 3930TIP3   OH233280   3.466   5.221  15.552  0.1078  0.4357  0.6751
 3930TIP3    H133281   3.440   5.301  15.597 -1.0413 -1.0199  2.7613
 3930TIP3    H233282   3.383   5.183  15.521  0.5950 -0.1201  0.0207
 3931TIP3   OH233283   0.747   3.242   4.399 -0.1597  0.0059 -0.2202
 3931TIP3    H133284   0.693   3.315   4.429 -0.0075 -0.5089  1.3969
 3931TIP3    H233285   0.768   3.193   4.479  0.4112 -1.3543 -1.1642
 3932TIP3   OH233286   1.676   3.451  15.333 -0.1849 -0.3370 -0.5837
 3932TIP3    H133287   1.655   3.399  15.411  1.4143  1.2386  1.0088
 3932TIP3    H233288   1.745   3.510  15.362 -1.1791  1.9733 -2.5910
 3933TIP3   OH233289   1.596   2.938   3.545  0.0327  0.1273 -1.0099
 3933TIP3    H133290   1.586   3.021   3.498  0.4062  0.2217 -0.9265
 3933TIP3    H233291   1.550   2.952   3.627 -2.5189 -0.7755 -2.2067
 3934TIP3   OH233292   5.621   0.688  12.782 -0.1339  0.2263 -0.0022
 3934TIP3    H133293   5.659   0.600  12.779  1.4606  0.8912 -0.9131
 3934TIP3    H233294   5.693   0.743  12.811 -0.7757  1.3901 -0.5738
 3935TIP3   OH233295   5.099   3.459   3.446  0.4358  0.2829  0.0793
 3935TIP3    H133296   5.040   3.383   3.446  0.8691 -0.0569  0.4681
 3935TIP3    H233297   5.067   3.514   3.375  1.1249 -1.0765 -1.3560
 3936TIP3   OH233298   3.769   0.684  14.570  0.4994 -0.0240  0.1077
 3936TIP3    H133299   3.765   0.648  14.482 -0.4888  0.2313  0.0360
 3936TIP3    H233300   3.682   0.668  14.607  0.7486  0.2935  0.8676
 3937TIP3   OH233301   6.045   5.845   0.313  0.7311 -0.0282 -0.3799
 3937TIP3    H133302   5.955   5.860   0.344  0.1315 -0.7276 -1.7121
 3937TIP3    H233303   6.090   5.928   0.329 -0.1139  0.2935  0.4204
 3938TIP3   OH233304   2.306   0.258   3.457 -0.1655  0.2211 -0.4978
 3938TIP3    H133305   2.248   0.326   3.423 -1.2837  0.4903  1.7683
 3938TIP3    H233306   2.258   0.176   3.443 -0.7267  0.3546  0.5894
 3939TIP3   OH233307   6.195   1.361   2.966  0.1330 -0.1757 -0.1071
 3939TIP3    H133308   6.161   1.280   3.002 -0.7081  0.2814  0.1630
 3939TIP3    H233309   6.157   1.366   2.878  2.8063 -1.6844 -1.4691
 3940TIP3   OH233310   5.331   6.571  15.190 -0.5313 -0.2578  0.0508
 3940TIP3    H133311   5.401   6.603  15.132 -0.7859 -0.7540 -0.5351
 3940TIP3    H233312   5.376   6.556  15.274  0.4490 -2.1480 -0.7580
 3941TIP3   OH233313   4.169   3.232   0.840  0.2406 -0.2201 -0.3437
 3941TIP3    H133314   4.103   3.180   0.794  1.0069 -1.6633  0.1309
 3941TIP3    H233315   4.252   3.207   0.800  0.5375  1.5930 -0.9461
 3942TIP3   OH233316   5.373   5.371   4.468  0.0760  0.3625 -0.0400
 3942TIP3    H133317   5.380   5.369   4.564 -0.0871  0.4351 -0.0265
 3942TIP3    H233318   5.336   5.457   4.448  1.2357  0.8411 -0.2444
 3943TIP3   OH233319   3.571   2.214   4.874  0.4509 -0.3017 -0.1515
 3943TIP3    H133320   3.486   2.254   4.854 -1.4330 -2.4535  2.7749
 3943TIP3    H233321   3.588   2.237   4.965  2.1486 -1.3983 -0.1406
 3944TIP3   OH233322   6.516   6.239   0.421 -0.0691 -0.2002 -0.0108
 3944TIP3    H133323   6.607   6.250   0.394  0.1623 -3.0849 -0.7976
 3944TIP3    H233324   6.518   6.240   0.517  0.8222 -0.4456 -0.0238
 3945TIP3   OH233325   1.588   2.700  15.528  0.0852 -0.1032  0.3272
 3945TIP3    H133326   1.580   2.662  15.441 -0.6106  0.5364  0.0952
 3945TIP3    H233327   1.500   2.732  15.548  0.3137  0.0351  1.1309
 3946TIP3   OH233328   3.200   1.578  15.844 -0.0006  0.4480 -0.0405
 3946TIP3    H133329   3.152   1.495  15.844 -1.2667  1.1364  1.7051
 3946TIP3    H233330   3.135   1.644  15.866  1.1628  1.8094 -0.5569
 3947TIP3   OH233331   1.955   5.244   2.709  0.1288 -0.2623 -0.1091
 3947TIP3    H133332   1.943   5.219   2.801 -0.0917 -1.1332 -0.3680
 3947TIP3    H233333   1.985   5.335   2.713  1.2004 -0.6297  0.8755
 3948TIP3   OH233334   2.529   6.390  16.160 -0.4312  0.0007  0.3659
 3948TIP3    H133335   2.598   6.386  16.226  0.2657  0.4954 -0.3021
 3948TIP3    H233336   2.553   6.323  16.096  0.5136  1.4400 -0.8491
 3949TIP3   OH233337   0.945   2.977   4.025 -0.4464  0.3775 -0.2486
 3949TIP3    H133338   1.023   2.965   3.972 -0.6373  1.6923 -0.8666
 3949TIP3    H233339   0.872   2.951   3.968 -0.5222 -0.0553  0.0408
 3950TIP3   OH233340   5.844   6.712  12.220 -0.5477 -0.1322  0.1539
 3950TIP3    H133341   5.842   6.721  12.125  1.5743 -0.6963 -0.0067
 3950TIP3    H233342   5.935   6.730  12.243 -1.1707  0.6818  2.1781
 3951TIP3   OH233343   3.570   2.192   4.287 -0.3186 -0.2978 -0.0706
 3951TIP3    H133344   3.553   2.199   4.381  1.6151  0.5754  0.2837
 3951TIP3    H233345   3.518   2.262   4.248  1.0424  1.2690  0.7554
 3952TIP3   OH233346   2.572   4.137  14.820 -0.1152 -0.8198  0.0455
 3952TIP3    H133347   2.558   4.130  14.914  2.4319  2.5808  0.9042
 3952TIP3    H233348   2.664   4.163  14.812 -0.3268 -0.7416 -3.3845
 3953TIP3   OH233349   2.530   4.721   6.715 -0.1556  0.4722 -0.6646
 3953TIP3    H133350   2.596   4.790   6.717 -0.1564  0.4665 -0.0844
 3953TIP3    H233351   2.447   4.768   6.704 -0.1621  0.5726 -0.2115
 3954TIP3   OH233352   6.056   0.452  13.288 -0.1572  0.3042  0.0455
 3954TIP3    H133353   6.117   0.378  13.294  0.0299  0.4553  0.0327
 3954TIP3    H233354   5.994   0.427  13.220 -1.6158 -0.9454  1.7473
 3955TIP3   OH233355   1.597   0.027  16.308  0.0274 -0.5083 -0.1455
 3955TIP3    H133356   1.592  -0.056  16.261  0.8438 -0.1946 -0.8143
 3955TIP3    H233357   1.570   0.093  16.244  0.0666 -0.1940  0.1565
 3956TIP3   OH233358   0.207   2.531   0.268  0.3357 -0.7639  0.2645
 3956TIP3    H133359   0.145   2.458   0.267  0.4522 -0.8712 -1.0122
 3956TIP3    H233360   0.230   2.544   0.176 -1.5199  2.4082  0.0727
 3957TIP3   OH233361   5.867   2.694  11.228  0.1887  0.2782 -0.0523
 3957TIP3    H133362   5.945   2.722  11.180  1.1115 -0.6984  0.8478
 3957TIP3    H233363   5.877   2.600  11.239 -0.1188  0.4238  1.8326
 3958TIP3   OH233364   5.752   5.132   1.403  0.3013 -0.0657 -0.0994
 3958TIP3    H133365   5.767   5.071   1.475  2.7457 -0.4934 -0.8658
 3958TIP3    H233366   5.784   5.216   1.436 -0.6034  0.2469  0.0266
 3959TIP3   OH233367   1.318   2.090   4.890  0.1176 -0.4295  0.2980
 3959TIP3    H133368   1.367   2.106   4.971  1.6107 -0.6020 -0.5339
 3959TIP3    H233369   1.232   2.128   4.906  0.6127  0.1622  1.7079
 3960TIP3   OH233370   3.322   5.446  16.881 -0.0841 -0.9858 -0.7877
 3960TIP3    H133371   3.356   5.401  16.804 -0.6051 -1.1261 -0.9409
 3960TIP3    H233372   3.319   5.539  16.856  1.4690 -0.7818 -0.2974
 3961TIP3   OH233373   3.063   2.281   1.375  0.3326  0.2864  0.4864
 3961TIP3    H133374   3.115   2.204   1.397 -1.2446 -1.0475 -0.2087
 3961TIP3    H233375   2.983   2.271   1.426  0.3563  1.8293  0.8804
 3962TIP3   OH233376   3.408   1.549  14.387  0.4380 -0.6460 -0.5515
 3962TIP3    H133377   3.409   1.454  14.380  2.1767 -0.6390 -0.9178
 3962TIP3    H233378   3.445   1.567  14.474 -1.7927 -0.3107  0.3834
 3963TIP3   OH233379   3.579   4.317   0.015 -0.0857  0.0735  0.4953
 3963TIP3    H133380   3.674   4.315   0.006 -0.0940  2.9636 -1.1988
 3963TIP3    H233381   3.564   4.322   0.109  1.5261  1.4718  0.7109
 3964TIP3   OH233382   3.471   0.632   4.692 -0.4743 -0.2416 -0.5387
 3964TIP3    H133383   3.487   0.663   4.781  0.8087 -1.2489 -0.3952
 3964TIP3    H233384   3.500   0.704   4.636  0.1903 -0.2132 -0.1680
 3965TIP3   OH233385   5.739   1.895   5.195 -0.0193 -0.2173 -0.5520
 3965TIP3    H133386   5.777   1.835   5.131  0.7295  1.0956 -1.3852
 3965TIP3    H233387   5.803   1.899   5.266 -0.2341 -0.6588 -0.3293
 3966TIP3   OH233388   5.576   6.525   4.128 -0.2399  0.0504  0.1960
 3966TIP3    H133389   5.601   6.608   4.168  0.7933  0.4332 -1.1672
 3966TIP3    H233390   5.586   6.460   4.198 -0.6133  0.9930  1.1478
 3967TIP3   OH233391   4.738   3.139   5.336 -0.1116 -0.8777  0.0719
 3967TIP3    H133392   4.666   3.126   5.274 -1.0690  2.2969  0.3097
 3967TIP3    H233393   4.811   3.169   5.282  0.7766 -3.1550 -0.0527
 3968TIP3   OH233394   2.434   2.528  16.497  0.2229  0.4162 -0.2229
 3968TIP3    H133395   2.377   2.593  16.457  0.2307  0.5432 -0.0286
 3968TIP3    H233396   2.479   2.486  16.424 -0.3609  0.0879 -0.3939
 3969TIP3   OH233397   5.277   5.607  13.149  0.2526 -0.4264 -0.3277
 3969TIP3    H133398   5.319   5.533  13.103 -0.2373 -1.1536  0.3682
 3969TIP3    H233399   5.190   5.613  13.110  0.6212  0.4330 -1.0629
 3970TIP3   OH233400   5.717   5.947   5.641 -0.2742 -0.2041  0.3297
 3970TIP3    H133401   5.763   5.923   5.722  0.4600  2.0717  0.6775
 3970TIP3    H233402   5.659   6.018   5.667 -2.0567 -1.2411 -0.6609
 3971TIP3   OH233403   4.475   3.540   3.354  0.4196  0.3264  0.0682
 3971TIP3    H133404   4.566   3.514   3.372  0.9791  2.1503  0.0709
 3971TIP3    H233405   4.435   3.548   3.441  0.8514  1.4751  0.1727
 3972TIP3   OH233406   5.758   1.540   5.511 -0.8922 -0.7428 -0.3069
 3972TIP3    H133407   5.818   1.474   5.477 -0.3585 -0.4498  0.0606
 3972TIP3    H233408   5.782   1.621   5.466 -0.5524 -0.4741  0.3444
 3973TIP3   OH233409   1.621   5.141  11.822 -0.6615 -0.2974  0.3156
 3973TIP3    H133410   1.551   5.181  11.772  0.3455  0.1859 -0.7658
 3973TIP3    H233411   1.680   5.104  11.755  0.2905 -0.3749  1.1652
 3974TIP3   OH233412   0.935   0.977   1.564 -0.0489 -0.2325 -0.1965
 3974TIP3    H133413   0.847   0.961   1.530 -0.0648  0.8591 -0.7173
 3974TIP3    H233414   0.921   1.015   1.651 -0.1035  0.1451 -0.3684
 3975TIP3   OH233415   6.795   0.154  15.519  0.0800  0.5751 -0.2333
 3975TIP3    H133416   6.700   0.147  15.525  0.1693  0.5076  1.7868
 3975TIP3    H233417   6.822   0.073  15.476 -0.6887 -0.2200  0.7248
 3976TIP3   OH233418   3.790   5.576  14.767 -0.1720  0.2132  0.1106
 3976TIP3    H133419   3.769   5.486  14.743 -0.1548  0.1329  0.3968
 3976TIP3    H233420   3.775   5.626  14.687  3.7691 -0.6089 -1.3413
 3977TIP3   OH233421   2.420   3.147  15.627 -0.3978  0.1209 -0.2373
 3977TIP3    H133422   2.371   3.159  15.708  1.1940  1.2327  0.6292
 3977TIP3    H233423   2.494   3.207  15.635  1.6231 -2.1167 -1.0587
 3978TIP3   OH233424   2.674   3.405   3.300  0.6602 -0.2619  0.2928
 3978TIP3    H133425   2.691   3.332   3.240 -0.6698 -0.7988  0.5349
 3978TIP3    H233426   2.715   3.480   3.258 -0.2096 -0.6312 -1.3197
 3979TIP3   OH233427   5.894   4.142   1.471  0.4279 -0.2301 -0.7960
 3979TIP3    H133428   5.886   4.112   1.562 -0.0948  1.2123 -0.3487
 3979TIP3    H233429   5.986   4.167   1.462  0.1324  1.1412 -0.1624
 3980TIP3   OH233430   4.172   3.342  10.873  0.1697 -0.6875 -0.5558
 3980TIP3    H133431   4.200   3.251  10.862 -2.1439 -1.5279 -0.2672
 3980TIP3    H233432   4.250   3.394  10.856  1.7390 -2.7431 -0.0768
 3981TIP3   OH233433   4.127   4.151   0.639 -0.4668 -0.0206 -0.5175
 3981TIP3    H133434   4.220   4.145   0.618  0.5982 -1.3229  3.5214
 3981TIP3    H233435   4.090   4.069   0.606  0.2063 -0.2481 -0.7355
 3982TIP3   OH233436   4.781   3.509   0.853 -0.3025 -0.3665  0.4835
 3982TIP3    H133437   4.722   3.452   0.903  0.9419 -3.1525 -0.9981
 3982TIP3    H233438   4.863   3.508   0.901  0.5196 -2.0481 -0.8760
 3983TIP3   OH233439   2.110   3.302  10.658 -0.6475  0.1585  0.3934
 3983TIP3    H133440   2.170   3.332  10.727 -0.1558  1.2704 -0.5046
 3983TIP3    H233441   2.077   3.382  10.617  0.1926 -0.4728 -1.6289
 3984TIP3   OH233442   4.494   5.682   6.352  0.1819  0.1248 -0.0137
 3984TIP3    H133443   4.429   5.613   6.351 -0.2897  0.5645 -1.4996
 3984TIP3    H233444   4.524   5.689   6.261  1.0983  1.0471  0.3346
 3985TIP3   OH233445   3.607   2.873  14.383 -0.4493  0.1776  0.0673
 3985TIP3    H133446   3.575   2.944  14.328 -2.2564 -2.1697 -2.1762
 3985TIP3    H233447   3.622   2.800  14.322  0.9749 -1.5162  2.2608
 3986TIP3   OH233448   5.637   2.680  15.976 -0.2247  0.6732  0.2542
 3986TIP3    H133449   5.560   2.734  15.956  0.6020  1.1594 -1.8667
 3986TIP3    H233450   5.711   2.739  15.962  0.7218 -0.9308 -2.1593
 3987TIP3   OH233451   2.207   1.852   5.393  0.1136  1.3146  0.2619
 3987TIP3    H133452   2.255   1.826   5.471  0.7939  3.0373  0.4719
 3987TIP3    H233453   2.135   1.790   5.387  1.3639 -0.2813  0.9251
 3988TIP3   OH233454   2.785   2.446  12.267 -0.1233 -0.3611 -0.3441
 3988TIP3    H133455   2.778   2.510  12.337 -1.5056 -0.2277 -0.5811
 3988TIP3    H233456   2.697   2.410  12.258  0.0514 -0.4464 -1.9419
 3989TIP3   OH233457   3.793   2.273   3.239  0.0715  0.0267 -0.4029
 3989TIP3    H133458   3.869   2.224   3.270 -0.7326 -1.2754 -0.4256
 3989TIP3    H233459   3.826   2.362   3.225  1.2111 -0.1183  1.0921
 3990TIP3   OH233460   3.721   1.930   3.596 -0.5383  0.5582 -0.3373
 3990TIP3    H133461   3.674   2.014   3.599  0.6480  1.2482 -0.2189
 3990TIP3    H233462   3.746   1.914   3.687 -0.5256  0.1984 -0.4024
 3991TIP3   OH233463   4.892   0.912  14.084  0.0361 -0.0974  0.7249
 3991TIP3    H133464   4.848   0.940  14.164  0.1673  0.9048  0.4664
 3991TIP3    H233465   4.969   0.969  14.078 -0.3476  0.3207 -0.4671
 3992TIP3   OH233466   6.183   2.829  13.516  0.1417 -0.1908 -0.3619
 3992TIP3    H133467   6.148   2.889  13.451 -0.6667 -0.2641 -0.0015
 3992TIP3    H233468   6.213   2.886  13.587 -0.9333 -0.2068  0.1291
 3993TIP3   OH233469   1.505   3.392   5.161 -0.8391  0.0159  0.0296
 3993TIP3    H133470   1.460   3.321   5.115  0.2799  0.2705 -1.5257
 3993TIP3    H233471   1.442   3.465   5.158 -2.0024 -0.8536  1.6614
 3994TIP3   OH233472   3.035   1.252   4.647 -0.3556  0.0707 -0.1126
 3994TIP3    H133473   3.111   1.285   4.694 -1.0934  2.2460 -0.3222
 3994TIP3    H233474   3.063   1.248   4.555 -0.1455 -0.2539 -0.0345
 3995TIP3   OH233475   1.708   4.497   3.225  0.0302  0.4702 -0.0454
 3995TIP3    H133476   1.682   4.577   3.180 -1.5828  0.6563  1.1204
 3995TIP3    H233477   1.766   4.527   3.295 -0.6425  0.6661  0.4458
 3996TIP3   OH233478   3.796   5.809   2.185 -0.8569  0.5414  0.3334
 3996TIP3    H133479   3.818   5.788   2.094 -1.7598 -0.0379  0.2340
 3996TIP3    H233480   3.713   5.765   2.200  0.3250 -1.2185  2.1562
 3997TIP3   OH233481   4.482   3.424   0.468  0.1454 -0.9576  0.3549
 3997TIP3    H133482   4.519   3.478   0.538 -1.0906 -0.1967  0.4702
 3997TIP3    H233483   4.550   3.361   0.446  0.4501 -1.4373  2.4812
 3998TIP3   OH233484   5.316   0.008   3.906  0.3361  0.0668 -0.0340
 3998TIP3    H133485   5.239  -0.006   3.852 -0.7156  1.0305  1.1425
 3998TIP3    H233486   5.371   0.069   3.856  0.7213 -1.2113 -1.2087
 3999TIP3   OH233487   5.479   2.574   4.094 -0.3447 -0.5184 -0.3605
 3999TIP3    H133488   5.387   2.555   4.074 -1.4184  0.2954  3.0924
 3999TIP3    H233489   5.490   2.544   4.184  2.9435 -0.9105 -0.7833
 4000TIP3   OH233490   5.583   4.237   3.512  0.3361  0.1100  0.1893
 4000TIP3    H133491   5.662   4.196   3.478  0.8455 -0.9656  2.4427
 4000TIP3    H233492   5.567   4.192   3.595 -2.1783  0.8753  0.1967
 4001TIP3   OH233493   4.711   3.436   6.104 -0.2859  0.1316  0.3017
 4001TIP3    H133494   4.798   3.399   6.117  0.0771  0.5524 -0.8556
 4001TIP3    H233495   4.692   3.481   6.187  1.8492  2.5389 -0.3886
 4002TIP3   OH233496   2.297   1.633   3.861 -0.3131  0.0254  0.1960
 4002TIP3    H133497   2.381   1.627   3.815 -0.2716  0.5601  0.1972
 4002TIP3    H233498   2.249   1.702   3.817 -0.3660  0.3868  0.8005
 4003TIP3   OH233499   3.106   1.444  13.700  0.0731  0.7623  0.0086
 4003TIP3    H133500   3.095   1.351  13.719  0.5174  0.9304  1.1421
 4003TIP3    H233501   3.107   1.486  13.786  1.7176  1.6124 -0.3847
 4004TIP3   OH233502   1.849   4.208   6.375  0.4291  0.2886 -0.3537
 4004TIP3    H133503   1.764   4.235   6.411  0.4644  0.3576 -0.3229
 4004TIP3    H233504   1.907   4.201   6.451  0.6143  0.8414 -0.4395
 4005TIP3   OH233505   2.493   5.177   3.411  0.4843  0.6204 -0.1588
 4005TIP3    H133506   2.538   5.092   3.409 -1.1817 -0.4001  1.9464
 4005TIP3    H233507   2.424   5.169   3.345 -0.1653 -0.0175  0.5676
 4006TIP3   OH233508   3.123   6.062   2.304  0.1318  0.5413 -0.4399
 4006TIP3    H133509   3.142   6.111   2.225 -1.0838  0.3813 -0.8555
 4006TIP3    H233510   3.052   6.002   2.279  0.4835 -0.2847  0.4761
 4007TIP3   OH233511   6.428   4.667   2.122 -0.6369  0.5992  0.1157
 4007TIP3    H133512   6.406   4.582   2.084 -0.9469  1.1684 -1.0351
 4007TIP3    H233513   6.344   4.708   2.139 -0.4975  0.3774  1.3961
 4008TIP3   OH233514   4.770   5.103   5.939 -0.0841  0.5536  0.1284
 4008TIP3    H133515   4.770   5.065   6.027  0.7580  1.1363  0.3959
 4008TIP3    H233516   4.696   5.062   5.895 -0.6424  0.4031  1.1752
 4009TIP3   OH233517   1.872   2.642  16.951  0.1875 -0.3716  0.0736
 4009TIP3    H133518   1.858   2.715  16.891  1.6889  0.1902  0.3722
 4009TIP3    H233519   1.855   2.564  16.897  0.7611  0.1380 -0.8759
 4010TIP3   OH233520   3.525   4.047   0.776  0.1933 -0.1177 -0.0239
 4010TIP3    H133521   3.573   3.998   0.843  0.8201  1.3669  0.6690
 4010TIP3    H233522   3.592   4.100   0.733 -0.8799  2.8498  1.7033
 4011TIP3   OH233523   0.865   5.781   4.203  0.1817  0.1968  0.0712
 4011TIP3    H133524   0.804   5.723   4.157  0.7989  0.8855 -1.7163
 4011TIP3    H233525   0.818   5.810   4.281 -0.8241 -1.2225  0.0212
 4012TIP3   OH233526   3.555   1.774  17.093  0.5149  0.0357  0.2601
 4012TIP3    H133527   3.583   1.789  17.183  1.5978 -1.2366  0.1645
 4012TIP3    H233528   3.589   1.850  17.045 -0.7109  1.1088  1.0052
 4013TIP3   OH233529   3.810   4.144   2.698  0.3417  0.3362 -0.1994
 4013TIP3    H133530   3.876   4.199   2.656  0.1907  1.8136  1.4001
 4013TIP3    H233531   3.812   4.170   2.790 -1.1024 -0.9983  0.2573
 4014TIP3   OH233532   0.717   3.993   1.483  0.1057 -0.0078 -0.0870
 4014TIP3    H133533   0.676   3.946   1.556 -0.2145 -0.6963 -0.7001
 4014TIP3    H233534   0.742   3.925   1.421  0.6354  0.5476 -0.4977
 4015TIP3   OH233535   1.893   0.866  13.483 -0.5370 -0.0581 -0.0465
 4015TIP3    H133536   1.867   0.775  13.491  0.9208 -0.4731  0.1928
 4015TIP3    H233537   1.812   0.915  13.497 -1.0752 -1.2580  1.3367
 4016TIP3   OH233538   4.111   4.921  16.170 -0.3901  0.0160 -0.5292
 4016TIP3    H133539   4.167   4.997  16.154  0.4418 -0.3963  0.3469
 4016TIP3    H233540   4.171   4.849  16.187 -1.1523 -0.2331  1.4211
 4017TIP3   OH233541   0.777   1.469  15.875  0.6863  0.3006  0.5438
 4017TIP3    H133542   0.869   1.450  15.890  0.8514 -0.4916 -1.1916
 4017TIP3    H233543   0.755   1.419  15.796 -0.5991  2.2944 -0.4553
 4018TIP3   OH233544   2.248   5.444  17.134 -0.7108  0.3014 -0.0243
 4018TIP3    H133545   2.245   5.351  17.114  0.8229  0.2240  0.0046
 4018TIP3    H233546   2.274   5.485  17.051 -0.6594  0.6241  0.1513
 4019TIP3   OH233547   3.875   1.574   2.442 -0.3835 -0.2278  0.4049
 4019TIP3    H133548   3.842   1.614   2.361  0.5936 -0.1296  0.0404
 4019TIP3    H233549   3.890   1.482   2.418 -0.8180 -0.3804  0.7008
 4020TIP3   OH233550   4.269   6.218   5.225  0.0559  0.2260 -0.2658
 4020TIP3    H133551   4.325   6.290   5.255  0.2256  0.0700 -0.2097
 4020TIP3    H233552   4.190   6.226   5.278  0.8638 -0.8315  1.1503
 4021TIP3   OH233553   3.490   3.296  11.519  0.0856 -0.3760 -0.2575
 4021TIP3    H133554   3.544   3.362  11.562 -1.9197  0.7361  0.6597
 4021TIP3    H233555   3.483   3.225  11.582 -1.9064  0.7669  0.9114
 4022TIP3   OH233556   6.386   0.021  16.043 -0.0816  1.1643  0.1854
 4022TIP3    H133557   6.330   0.099  16.048 -0.4279  0.8879  0.8800
 4022TIP3    H233558   6.348  -0.031  15.972 -0.1516  1.4057  0.0457
 4023TIP3   OH233559   2.865   5.006   6.559 -0.0267 -0.3192 -0.0239
 4023TIP3    H133560   2.931   4.942   6.587 -0.4366 -0.4281  0.7133
 4023TIP3    H233561   2.915   5.086   6.542  0.1182  0.1334  2.2293
 4024TIP3   OH233562   5.341   0.997  14.852 -0.0295 -0.2083  0.1823
 4024TIP3    H133563   5.420   1.041  14.883  1.6807 -1.5461 -1.9570
 4024TIP3    H233564   5.305   0.953  14.929  0.8927  0.9971  1.3374
 4025TIP3   OH233565   2.249   3.247   2.659 -0.0875 -0.3224  0.2264
 4025TIP3    H133566   2.189   3.244   2.733 -1.0400  0.9766 -0.4490
 4025TIP3    H233567   2.336   3.250   2.698 -0.6079  1.4582  1.3532
 4026TIP3   OH233568   4.402   3.198  11.056  0.3960 -0.5384  0.9154
 4026TIP3    H133569   4.452   3.204  10.974 -0.3796  0.2987  0.4855
 4026TIP3    H233570   4.392   3.104  11.071  1.1799 -0.7096  0.4470
 4027TIP3   OH233571   1.551   2.767  12.740 -0.1533 -0.2524  0.2789
 4027TIP3    H133572   1.499   2.807  12.810 -1.3243 -0.6884 -0.3305
 4027TIP3    H233573   1.569   2.840  12.680 -1.0433 -0.3254 -0.0886
 4028TIP3   OH233574   6.361   4.736   2.856  0.7890  0.0859  0.2684
 4028TIP3    H133575   6.436   4.692   2.896  1.2486 -1.4066 -2.0528
 4028TIP3    H233576   6.371   4.719   2.763 -1.3473  1.6253 -0.2934
 4029TIP3   OH233577   6.042   0.804  14.866 -0.2188  0.4246  1.1907
 4029TIP3    H133578   5.989   0.735  14.906  0.0925  0.3732  1.5217
 4029TIP3    H233579   5.979   0.865  14.829 -0.5045 -0.2499  0.5203
 4030TIP3   OH233580   4.778   0.129  14.680 -0.3349  0.4517 -0.0451
 4030TIP3    H133581   4.804   0.101  14.768 -0.3703 -0.0141 -0.1769
 4030TIP3    H233582   4.749   0.048  14.637  0.5944  0.5019 -0.8052
 4031TIP3   OH233583   3.130   5.950   0.118 -0.9967 -0.3516 -0.2923
 4031TIP3    H133584   3.100   5.964   0.208  0.1584 -0.9325  0.2117
 4031TIP3    H233585   3.069   5.887   0.082 -1.4799 -0.1035  0.0822
 4032TIP3   OH233586   0.802   2.277   2.307  0.1485 -0.1628  0.5359
 4032TIP3    H133587   0.801   2.349   2.244  0.9459 -1.2570 -0.7732
 4032TIP3    H233588   0.710   2.257   2.322 -0.2396  2.6647  2.8274
 4033TIP3   OH233589   4.561   5.478   1.985 -0.2743  0.0486 -0.2959
 4033TIP3    H133590   4.625   5.517   1.926 -1.2642  0.5569 -1.0864
 4033TIP3    H233591   4.569   5.384   1.971  1.4256 -0.0012  0.8553
 4034TIP3   OH233592   4.031   0.256  12.148  0.2607 -0.6414 -0.8812
 4034TIP3    H133593   4.025   0.351  12.148  0.2216 -0.6317 -1.8320
 4034TIP3    H233594   3.980   0.228  12.224  1.1844  0.1395  0.0520
 4035TIP3   OH233595   5.999   2.302   5.143 -0.3080  0.1597  0.4044
 4035TIP3    H133596   6.079   2.255   5.119  0.2405  0.5615  1.3499
 4035TIP3    H233597   6.028   2.392   5.159 -1.2619  0.7435 -0.9505
 4036TIP3   OH233598   5.899   6.102  11.520 -0.2098  0.2544  0.9203
 4036TIP3    H133599   5.971   6.039  11.525 -0.7266 -0.3948  0.4381
 4036TIP3    H233600   5.825   6.056  11.561 -0.6452  0.4732  0.3904
 4037TIP3   OH233601   2.857   1.586  11.180 -0.3210 -0.0464 -0.0381
 4037TIP3    H133602   2.925   1.530  11.143  0.6746  0.1476  1.3984
 4037TIP3    H233603   2.775   1.544  11.156  0.2985 -0.3804 -1.6732
 4038TIP3   OH233604   5.325   2.526  14.855  0.7925  0.4916  0.5209
 4038TIP3    H133605   5.413   2.496  14.833  0.6583  0.8581 -0.5556
 4038TIP3    H233606   5.298   2.470  14.928  1.9244  0.3931  0.8756
 4039TIP3   OH233607   5.945   0.391   1.895  0.4602  0.0577 -0.8697
 4039TIP3    H133608   5.983   0.305   1.880  0.5601  0.0193 -0.4194
 4039TIP3    H233609   5.921   0.422   1.808 -0.8450 -0.9990 -0.9063
 4040TIP3   OH233610   3.487   1.802   2.340  0.2577  0.5633 -0.5148
 4040TIP3    H133611   3.412   1.779   2.285 -1.7486  0.8369  1.8822
 4040TIP3    H233612   3.513   1.889   2.310 -0.3738  0.4644 -1.3930
 4041TIP3   OH233613   6.259   0.799  16.896  0.1657 -0.2619 -0.2038
 4041TIP3    H133614   6.281   0.785  16.988 -0.4496  0.8860  0.1425
 4041TIP3    H233615   6.342   0.788  16.850  0.8260  0.7832  0.6862
 4042TIP3   OH233616   0.207   5.997  11.723  0.6068  0.1250  0.3449
 4042TIP3    H133617   0.255   5.925  11.683  0.5099 -0.0953  0.6231
 4042TIP3    H233618   0.239   6.002  11.813  0.7062  0.5134  0.2914
 4043TIP3   OH233619   2.429   3.344   3.367  0.0819  0.0009 -0.3176
 4043TIP3    H133620   2.519   3.371   3.347  0.1884  0.8199  1.1059
 4043TIP3    H233621   2.377   3.423   3.353 -0.2853 -0.2375 -0.3087
 4044TIP3   OH233622   2.399   1.204  12.436  0.3396  0.2615 -1.1130
 4044TIP3    H133623   2.442   1.267  12.494 -1.3049 -0.0478  0.5145
 4044TIP3    H233624   2.331   1.254  12.392  0.8109  0.2169 -1.9157
 4045TIP3   OH233625   6.028   0.137  12.538  0.0251 -0.1364 -0.1037
 4045TIP3    H133626   6.116   0.160  12.508 -0.0663  0.9260  0.4129
 4045TIP3    H233627   6.043   0.069  12.604  0.5654  0.8404  0.8219
 4046TIP3   OH233628   6.384   5.280   5.455 -0.4877 -0.2684 -0.3292
 4046TIP3    H133629   6.309   5.265   5.514 -1.3018  0.6211 -1.0913
 4046TIP3    H233630   6.426   5.358   5.490 -1.4827  0.7710 -1.3870
 4047TIP3   OH233631   6.142   6.366   3.520 -0.1413 -0.0484  0.2090
 4047TIP3    H133632   6.052   6.343   3.540 -0.4086  0.0801 -0.7810
 4047TIP3    H233633   6.140   6.461   3.506 -0.0660 -0.1837 -0.8099
 4048TIP3   OH233634   2.376   4.894  15.104  0.0071 -0.2498 -0.3579
 4048TIP3    H133635   2.388   4.887  15.199  1.8222  1.3072 -0.4062
 4048TIP3    H233636   2.376   4.804  15.073 -1.3313 -0.8182  1.1629
 4049TIP3   OH233637   5.327   1.590   1.195 -0.3427  0.1849 -0.8475
 4049TIP3    H133638   5.258   1.603   1.130 -0.2793  0.4937 -0.8529
 4049TIP3    H233639   5.408   1.586   1.145  0.1076  3.5327 -0.6114
 4050TIP3   OH233640   6.810   2.476  15.301 -0.0360 -0.5005  0.0955
 4050TIP3    H133641   6.753   2.468  15.225 -0.4029  0.6645  0.2333
 4050TIP3    H233642   6.877   2.408  15.288 -0.6970 -1.0134 -0.7214
 4051TIP3   OH233643   1.968   3.482  13.604 -0.0275  0.0588  0.1625
 4051TIP3    H133644   2.036   3.429  13.647 -0.7484 -0.8441  0.2206
 4051TIP3    H233645   1.966   3.450  13.514 -0.0677  0.3956  0.0428
 4052TIP3   OH233646   3.771   2.652   5.955 -0.3246 -0.2744  0.2545
 4052TIP3    H133647   3.848   2.703   5.932 -0.0599 -0.0620  1.5458
 4052TIP3    H233648   3.801   2.591   6.023 -1.5195  0.6578  1.7016
 4053TIP3   OH233649   0.397   0.515   6.004  0.5179 -0.3314  0.1986
 4053TIP3    H133650   0.327   0.509   5.939 -0.3946  0.5634  1.0517
 4053TIP3    H233651   0.469   0.558   5.958  0.2546 -0.6163 -0.4916
 4054TIP3   OH233652   4.732   1.812   2.899 -0.0087  0.2374 -0.1478
 4054TIP3    H133653   4.702   1.756   2.970 -0.1737  0.0141 -0.3930
 4054TIP3    H233654   4.657   1.868   2.879 -0.3977 -0.5558 -0.9952
 4055TIP3   OH233655   3.201   2.277  12.470 -0.5503 -0.1483  0.7062
 4055TIP3    H133656   3.240   2.294  12.556  1.7930  0.5280 -0.3927
 4055TIP3    H233657   3.123   2.332  12.467  1.8155  3.6101  0.7616
 4056TIP3   OH233658   6.140   5.287  16.544  0.5508  0.5227  0.1840
 4056TIP3    H133659   6.131   5.201  16.586 -0.8064  1.0536  1.0553
 4056TIP3    H233660   6.145   5.267  16.451 -1.1363 -0.4811  0.2584
 4057TIP3   OH233661   1.841   3.229  15.540  0.3173 -0.4945  1.1289
 4057TIP3    H133662   1.854   3.147  15.587  1.3037 -1.1623 -0.2173
 4057TIP3    H233663   1.746   3.237  15.531  0.2123 -1.7631  0.8648
 4058TIP3   OH233664   0.764   4.790  17.139 -0.0094  0.0296  0.0368
 4058TIP3    H133665   0.734   4.699  17.129  0.5049  0.0582 -2.3404
 4058TIP3    H233666   0.859   4.784  17.132 -0.0290  0.8324 -1.1847
 4059TIP3   OH233667   4.165   3.537  14.603  0.0113 -0.1677  0.3071
 4059TIP3    H133668   4.192   3.599  14.536  0.2629 -0.8504 -0.2338
 4059TIP3    H233669   4.242   3.482  14.618 -0.4422 -0.8424  0.2183
 4060TIP3   OH233670   6.013   0.192  14.358 -0.0083  0.2184 -0.1551
 4060TIP3    H133671   5.932   0.188  14.409 -0.1808  0.1338 -0.4314
 4060TIP3    H233672   5.986   0.168  14.269  0.5394 -1.1119  0.0117
 4061TIP3   OH233673   2.651   5.541  16.800 -0.2763  0.3085 -0.1845
 4061TIP3    H133674   2.665   5.586  16.717  1.8908 -0.3007 -0.2047
 4061TIP3    H233675   2.724   5.479  16.806 -0.4124  0.3073  2.1591
 4062TIP3   OH233676   1.184   3.029   2.046  0.0807 -0.3490  0.4441
 4062TIP3    H133677   1.233   2.949   2.067  1.6662  0.3297 -0.4457
 4062TIP3    H233678   1.171   3.073   2.130  2.7189  0.3523  0.5903
 4063TIP3   OH233679   2.783   5.363   3.351  0.5128 -0.2617 -0.0485
 4063TIP3    H133680   2.739   5.300   3.294 -0.2275 -1.2117  1.4843
 4063TIP3    H233681   2.757   5.449   3.318 -2.1837 -0.7783  0.5004
 4064TIP3   OH233682   3.372   2.556  13.854  0.1776  0.3356  0.3070
 4064TIP3    H133683   3.320   2.634  13.873 -0.8280  0.0183 -0.9528
 4064TIP3    H233684   3.320   2.484  13.891 -0.4449 -0.0049 -1.1407
 4065TIP3   OH233685   6.605   1.012   0.763  0.0544  0.1691 -0.0611
 4065TIP3    H133686   6.577   0.931   0.720  0.2880 -0.0332  0.1673
 4065TIP3    H233687   6.680   1.042   0.713  2.2510 -1.6519  1.9046
 4066TIP3   OH233688   4.203   6.609  16.717  0.0093  0.0037 -0.7240
 4066TIP3    H133689   4.242   6.602  16.804 -1.0650 -1.2317 -0.3242
 4066TIP3    H233690   4.277   6.630  16.660  1.0237 -0.8864  0.2189
 4067TIP3   OH233691   4.704   2.153   4.412  0.6315 -0.1483  0.1880
 4067TIP3    H133692   4.687   2.202   4.493 -2.2506 -0.6410 -0.0152
 4067TIP3    H233693   4.690   2.062   4.437  0.1892 -0.3432 -0.7460
 4068TIP3   OH233694   6.095   3.714  15.255  0.3320  0.4961  0.1730
 4068TIP3    H133695   6.073   3.748  15.341 -0.0497 -0.6061  0.5326
 4068TIP3    H233696   6.035   3.641  15.242 -1.3772  2.1787 -2.1200
 4069TIP3   OH233697   4.518   1.050  15.197 -0.0453 -0.1246 -0.3445
 4069TIP3    H133698   4.550   1.140  15.201 -2.0944  0.7865 -2.2732
 4069TIP3    H233699   4.435   1.052  15.244 -0.5714 -0.7577 -1.2231
 4070TIP3   OH233700   6.252   3.323   6.664 -0.1551 -1.0190 -0.4195
 4070TIP3    H133701   6.240   3.413   6.694 -0.6845 -1.2607  0.1160
 4070TIP3    H233702   6.340   3.322   6.626 -0.7389  0.0971 -1.8665
 4071TIP3   OH233703   0.607   5.106   5.002 -0.3823 -0.2262 -0.2679
 4071TIP3    H133704   0.525   5.108   4.953 -0.8859  0.3698  0.5532
 4071TIP3    H233705   0.657   5.180   4.968 -1.4318  1.2605  1.1942
 4072TIP3   OH233706   4.893   4.479   6.566  0.7597  0.3617 -0.0558
 4072TIP3    H133707   4.816   4.523   6.602 -0.0748 -1.1437  0.0714
 4072TIP3    H233708   4.962   4.494   6.631 -0.3611 -1.1377  1.5836
 4073TIP3   OH233709   4.636   0.096  15.151 -0.0194  0.0046 -0.4096
 4073TIP3    H133710   4.688   0.016  15.148  1.5602  0.9798 -3.8272
 4073TIP3    H233711   4.643   0.126  15.242  3.6773 -1.0696 -0.1798
 4074TIP3   OH233712   5.121   0.131  11.395 -0.1839 -0.5454 -0.1167
 4074TIP3    H133713   5.035   0.164  11.370  0.8845  2.0003 -0.7630
 4074TIP3    H233714   5.126   0.145  11.489 -0.6441 -1.1679  0.0045
 4075TIP3   OH233715   5.612   0.984  14.388  0.2990 -0.1871 -0.1712
 4075TIP3    H133716   5.565   1.058  14.351 -1.5554 -0.7649  0.9292
 4075TIP3    H233717   5.663   1.022  14.460 -0.2838  0.1018  0.0948
 4076TIP3   OH233718   3.442   3.572  16.098  0.2719  0.8481 -0.4275
 4076TIP3    H133719   3.392   3.631  16.040  1.2219  0.1108 -2.0666
 4076TIP3    H233720   3.389   3.492  16.101  2.3161 -0.9631 -4.3180
 4077TIP3   OH233721   0.768   6.277   2.868 -0.2356  0.6410 -0.7345
 4077TIP3    H133722   0.734   6.355   2.826  1.2083  0.9373 -1.4378
 4077TIP3    H233723   0.769   6.210   2.799  1.6413  0.9782 -1.0944
 4078TIP3   OH233724   1.022   3.651   3.647  0.2757 -0.5528 -0.2183
 4078TIP3    H133725   1.042   3.704   3.570 -0.8001  0.2968  0.0531
 4078TIP3    H233726   0.946   3.694   3.686  0.6072 -1.1548  1.1403
 4079TIP3   OH233727   6.019   1.708  13.365 -0.1375  0.1082 -0.0083
 4079TIP3    H133728   6.027   1.635  13.304 -0.5797  0.0383  0.0119
 4079TIP3    H233729   5.937   1.752  13.339 -0.2023  0.2190  0.3790
 4080TIP3   OH233730   1.351   5.800  16.871 -0.9453  1.0897 -0.0363
 4080TIP3    H133731   1.396   5.880  16.897  1.5158 -0.1406 -0.1805
 4080TIP3    H233732   1.297   5.777  16.946  1.7247  0.6085  1.8915
 4081TIP3   OH233733   6.556   4.060   6.234  0.1273 -0.6229  0.0495
 4081TIP3    H133734   6.507   3.980   6.251  0.0678 -0.6086 -0.0532
 4081TIP3    H233735   6.492   4.130   6.243 -0.3338 -0.7194 -1.8951
 4082TIP3   OH233736   3.413   4.839   0.578  0.1053 -0.1993  0.9331
 4082TIP3    H133737   3.399   4.815   0.486 -2.0144  1.3760  0.7690
 4082TIP3    H233738   3.473   4.772   0.612  0.5359 -1.1111 -1.4411
 4083TIP3   OH233739   3.471   1.049  11.165 -0.1179  0.3334 -0.4366
 4083TIP3    H133740   3.394   1.097  11.196 -1.5988 -1.8557 -0.4770
 4083TIP3    H233741   3.531   1.049  11.239  0.2088  2.6240 -0.6094
 4084TIP3   OH233742   6.684   0.495  16.593 -0.2382  0.8301  0.1389
 4084TIP3    H133743   6.695   0.431  16.664 -0.2638  2.2351  1.4405
 4084TIP3    H233744   6.592   0.488  16.569 -0.1339  0.0473 -0.0713
 4085TIP3   OH233745   4.462   3.624   4.842  0.4371  0.0012 -0.8626
 4085TIP3    H133746   4.454   3.696   4.780  0.4753 -0.5052 -1.4757
 4085TIP3    H233747   4.541   3.577   4.813  1.3504  0.6202  0.4999
 4086TIP3   OH233748   3.347   0.041   0.857 -0.2979 -0.2556  0.1161
 4086TIP3    H133749   3.374   0.022   0.946  0.4369 -0.0578 -0.0535
 4086TIP3    H233750   3.252   0.050   0.861 -0.4230 -1.6435  0.6086
 4087TIP3   OH233751   1.412   3.496   5.527 -0.0319  0.5857 -0.4482
 4087TIP3    H133752   1.392   3.406   5.500  1.2213  0.1235  0.0995
 4087TIP3    H233753   1.327   3.539   5.529 -0.7292 -0.7300 -0.2052
 4088TIP3   OH233754   3.884   4.065  14.228  0.5636  0.1707 -0.0664
 4088TIP3    H133755   3.870   4.041  14.320  1.0084  3.1893  0.8838
 4088TIP3    H233756   3.796   4.080  14.194  0.3911 -1.0388 -0.2266
 4089TIP3   OH233757   3.013   2.656   0.860  0.2029  0.1688  0.0099
 4089TIP3    H133758   3.060   2.577   0.889  1.0588  0.5382 -0.3294
 4089TIP3    H233759   2.968   2.687   0.938  0.4143 -0.2780  0.3167
 4090TIP3   OH233760   4.283   3.864   4.383  0.3734 -0.3423 -0.4957
 4090TIP3    H133761   4.250   3.896   4.467 -1.3383 -0.5264 -1.0545
 4090TIP3    H233762   4.313   3.942   4.337 -1.1920  0.1385 -0.7566
 4091TIP3   OH233763   4.521   1.798   6.132  0.1508  0.6065  0.0690
 4091TIP3    H133764   4.563   1.750   6.061  0.2518  1.0452 -0.1671
 4091TIP3    H233765   4.568   1.771   6.211  1.4385  1.7214 -0.2840
 4092TIP3   OH233766   4.749   5.189   4.451 -0.6578 -0.1098  0.0140
 4092TIP3    H133767   4.824   5.247   4.436  0.6665 -1.5162  0.8827
 4092TIP3    H233768   4.788   5.102   4.461 -2.2020 -0.6251  2.3908
 4093TIP3   OH233769   0.417   3.534  12.220 -0.0376 -0.3772  0.5397
 4093TIP3    H133770   0.350   3.527  12.152  0.0741 -0.7192  0.4657
 4093TIP3    H233771   0.498   3.550  12.173  0.3241 -2.2346  0.4736
 4094TIP3   OH233772   6.393   5.526  15.272 -0.8678  0.4036  0.0207
 4094TIP3    H133773   6.342   5.508  15.193 -0.4129  0.4431 -0.2868
 4094TIP3    H233774   6.454   5.453  15.278 -0.1113  1.0004 -0.3227
 4095TIP3   OH233775   2.824   3.862   2.071 -0.5820 -0.4429 -0.0898
 4095TIP3    H133776   2.864   3.776   2.063  1.3108 -0.0673  3.1882
 4095TIP3    H233777   2.891   3.923   2.039 -0.1127 -0.0450  1.5227
 4096TIP3   OH233778   2.150   3.584  12.118 -0.3744 -0.5399 -0.1861
 4096TIP3    H133779   2.087   3.571  12.189  0.2621  0.7360  0.6372
 4096TIP3    H233780   2.234   3.560  12.156  0.3732  2.5701  0.3927
 4097TIP3   OH233781   6.063   0.710  13.241  0.2069 -0.3487 -0.1330
 4097TIP3    H133782   6.046   0.616  13.240  2.5061 -0.8268  0.3046
 4097TIP3    H233783   5.988   0.748  13.287 -1.0842 -1.8595 -0.9016
 4098TIP3   OH233784   4.105   6.425   5.014 -0.1812  0.6812  0.2431
 4098TIP3    H133785   4.130   6.333   5.012 -0.4834  0.5930  0.5721
 4098TIP3    H233786   4.169   6.466   5.073 -0.2386  0.6263  0.3433
 4099TIP3   OH233787   6.465   4.930   5.047  0.4021 -0.4638 -0.0255
 4099TIP3    H133788   6.445   5.011   5.001  0.3685 -0.1827  0.4713
 4099TIP3    H233789   6.406   4.930   5.122 -1.0561 -1.9574 -1.1038
 4100TIP3   OH233790   2.982   4.391  11.120  0.5001  1.2950  0.6092
 4100TIP3    H133791   2.970   4.443  11.040  1.2949  0.7313  0.1010
 4100TIP3    H233792   3.007   4.304  11.088  0.9076  1.0858  1.4694
 4101TIP3   OH233793   1.630   2.451   4.333 -0.3665  0.0030  0.9427
 4101TIP3    H133794   1.585   2.529   4.300  0.4523  0.5104  0.9970
 4101TIP3    H233795   1.659   2.476   4.421 -0.1874 -0.4005  0.9999
 4102TIP3   OH233796   5.753   0.885  12.991 -0.1105 -0.4353  0.1899
 4102TIP3    H133797   5.752   0.868  13.085  0.5555 -2.3946 -0.1008
 4102TIP3    H233798   5.838   0.925  12.975 -1.3811  2.8012  0.7724
 4103TIP3   OH233799   3.957   5.535  15.552  0.3675  0.6446  0.0747
 4103TIP3    H133800   3.945   5.596  15.625 -1.6040  0.2772  0.1234
 4103TIP3    H233801   3.908   5.574  15.480  1.6578  0.6234 -0.8558
 4104TIP3   OH233802   4.325   2.860  15.524 -0.1031 -0.9083  0.0599
 4104TIP3    H133803   4.395   2.803  15.491  1.1024  0.5463  0.0373
 4104TIP3    H233804   4.261   2.862  15.453  0.2690 -1.4883 -0.3040
 4105TIP3   OH233805   0.823   6.178   5.447  0.0253  0.1846  0.6485
 4105TIP3    H133806   0.885   6.109   5.425  1.4818  0.8121  2.5135
 4105TIP3    H233807   0.874   6.259   5.444 -1.2879  1.0446 -0.0375
 4106TIP3   OH233808   3.535   3.334   0.503 -0.3937  0.3702  0.0816
 4106TIP3    H133809   3.567   3.388   0.575 -0.2025  1.2484 -0.6377
 4106TIP3    H233810   3.553   3.386   0.425 -1.6249 -0.0578 -0.5123
 4107TIP3   OH233811   5.217   5.669  11.711  0.2823  0.7787  0.4867
 4107TIP3    H133812   5.268   5.623  11.777 -0.5897  0.3561  0.8873
 4107TIP3    H233813   5.267   5.748  11.691  1.4235  0.0361  0.3497
 4108TIP3   OH233814   5.404   3.721   2.192 -0.0723  0.5375  0.0819
 4108TIP3    H133815   5.313   3.692   2.181 -0.0888  0.9914 -1.1302
 4108TIP3    H233816   5.455   3.640   2.192 -0.6692 -0.0052  3.8063
 4109TIP3   OH233817   3.836   3.523  12.723  0.2935  0.4572 -0.3982
 4109TIP3    H133818   3.816   3.611  12.754  1.4736  0.8206 -0.6046
 4109TIP3    H233819   3.800   3.465  12.790  0.6874  1.1569  0.4432
 4110TIP3   OH233820   2.509   0.672  16.912  0.5062  0.0324 -0.5163
 4110TIP3    H133821   2.531   0.629  16.995  0.1988  3.3139  1.4335
 4110TIP3    H233822   2.529   0.606  16.845  0.7535 -2.7902  2.1042
 4111TIP3   OH233823   3.898   1.167  12.662  0.4814  0.1100  0.4538
 4111TIP3    H133824   3.833   1.146  12.729 -2.7088  0.5298 -2.2711
 4111TIP3    H233825   3.905   1.262  12.664 -1.3028  0.3300 -1.1160
 4112TIP3   OH233826   5.911   3.987  15.124  0.1527 -0.3649  0.3047
 4112TIP3    H133827   5.919   4.028  15.210 -0.1185 -1.4671  0.8736
 4112TIP3    H233828   5.947   3.899  15.136 -0.3843 -0.7165 -0.5707
 4113TIP3   OH233829   1.170   4.702   1.714  0.1026 -0.4273  0.3999
 4113TIP3    H133830   1.249   4.742   1.678  0.4413 -1.4217 -0.0012
 4113TIP3    H233831   1.194   4.677   1.803 -0.0387  0.0505  0.5742
 4114TIP3   OH233832   2.914   3.163   2.560  0.3996 -0.2497 -0.0955
 4114TIP3    H133833   2.922   3.093   2.495  1.4006 -0.3457  0.1190
 4114TIP3    H233834   2.917   3.118   2.644 -2.3947 -0.2954  0.0783
 4115TIP3   OH233835   3.967   6.015  12.034 -0.5739  0.1424 -0.1832
 4115TIP3    H133836   4.046   6.060  12.063  0.6564 -2.2117  0.4180
 4115TIP3    H233837   3.895   6.073  12.058  0.9345  2.1623 -0.3622
 4116TIP3   OH233838   3.264   3.448   0.711 -0.4169  0.0710 -0.2492
 4116TIP3    H133839   3.201   3.516   0.685  0.6124  0.8631 -0.7666
 4116TIP3    H233840   3.268   3.389   0.636  0.0600  0.4923 -0.5678
 4117TIP3   OH233841   6.445   2.052   3.453 -0.3738 -0.0953  0.0212
 4117TIP3    H133842   6.365   2.000   3.444  0.2694 -0.7660 -2.5551
 4117TIP3    H233843   6.459   2.090   3.366  2.2421 -0.2242  0.3140
 4118TIP3   OH233844   0.403   1.045   2.142 -0.0783  0.3764  0.2444
 4118TIP3    H133845   0.432   0.985   2.210 -0.2723 -0.1075 -0.0947
 4118TIP3    H233846   0.443   1.129   2.165 -0.6217  0.3615  1.2806
 4119TIP3   OH233847   4.394   3.895  14.478  0.0205  0.0420  0.2240
 4119TIP3    H133848   4.402   3.953  14.554  0.8699  1.1584 -0.6863
 4119TIP3    H233849   4.448   3.819  14.501 -1.8198 -0.8764  1.8042
 4120TIP3   OH233850   5.641   5.774  12.123  0.3209 -0.2064  0.2434
 4120TIP3    H133851   5.570   5.838  12.116 -0.2968 -0.9007 -0.0385
 4120TIP3    H233852   5.626   5.715  12.049  0.3567 -1.1852  1.0086
 4121TIP3   OH233853   2.571   2.059   6.492  0.0742 -0.5659 -0.5963
 4121TIP3    H133854   2.574   2.011   6.575  0.0549 -0.6097 -0.6207
 4121TIP3    H233855   2.611   2.143   6.512  0.0211 -0.5565 -0.5285
 4122TIP3   OH233856   1.817   3.825   0.715  0.1353  0.3692 -0.1823
 4122TIP3    H133857   1.805   3.777   0.797  0.5269  2.1390  0.9703
 4122TIP3    H233858   1.729   3.831   0.678  0.0390 -0.9361 -0.2187
 4123TIP3   OH233859   1.923   4.049   5.962  0.0012 -0.5627  0.0352
 4123TIP3    H133860   1.931   3.992   5.885 -0.2490 -0.9355  0.2840
 4123TIP3    H233861   1.931   3.990   6.036  0.5017 -0.1674  0.3065
 4124TIP3   OH233862   1.680   4.419  15.741 -0.6113 -0.2000  0.1969
 4124TIP3    H133863   1.704   4.375  15.660  0.9421  3.3094 -1.4843
 4124TIP3    H233864   1.597   4.462  15.722 -1.1297 -0.7720  1.1037
 4125TIP3   OH233865   3.025   2.610   1.655  0.9776 -0.4662  0.0451
 4125TIP3    H133866   3.118   2.601   1.634  0.8727  1.0050 -1.2722
 4125TIP3    H233867   2.985   2.528   1.628  1.7615 -0.7974 -0.1256
 4126TIP3   OH233868   5.859   2.032   0.519  0.0898 -0.0070 -0.0280
 4126TIP3    H133869   5.932   2.094   0.514 -0.9866  1.4339  1.0929
 4126TIP3    H233870   5.882   1.974   0.591  0.3432  0.1340  0.0064
 4127TIP3   OH233871   5.739   1.175  13.877 -0.3271 -0.0602 -0.2834
 4127TIP3    H133872   5.691   1.239  13.824 -2.4903 -1.0991  0.2737
 4127TIP3    H233873   5.781   1.227  13.945 -1.2202  0.8917 -0.4272
 4128TIP3   OH233874   6.275   4.290   2.650  0.1004  0.1417  0.6156
 4128TIP3    H133875   6.267   4.384   2.631 -1.7215 -0.0933  0.0210
 4128TIP3    H233876   6.350   4.284   2.708  2.0481  1.6540 -1.5473
 4129TIP3   OH233877   6.564   2.550  14.680 -0.1457  0.1432 -0.0827
 4129TIP3    H133878   6.591   2.489  14.749 -0.7734  0.6960  0.6762
 4129TIP3    H233879   6.625   2.534  14.608  1.9960  1.0640  1.4033
 4130TIP3   OH233880   4.373   3.374  13.334  0.0225 -0.4821 -0.7575
 4130TIP3    H133881   4.431   3.418  13.270  0.2954  0.7084  0.2665
 4130TIP3    H233882   4.406   3.403  13.419 -1.5739 -0.4676 -0.1268
 4131TIP3   OH233883   1.466   2.601   0.963 -0.0343  0.5168 -0.0313
 4131TIP3    H133884   1.558   2.583   0.984 -0.5391 -0.7077  1.2987
 4131TIP3    H233885   1.463   2.600   0.867  1.2614  0.1182 -0.0872
 4132TIP3   OH233886   1.386   0.831  12.614 -0.2490  0.0484 -0.3823
 4132TIP3    H133887   1.329   0.777  12.669  0.3787 -1.0746 -0.8068
 4132TIP3    H233888   1.446   0.873  12.676 -0.2965 -0.2862 -0.1030
 4133TIP3   OH233889   5.605   2.085   3.923  0.0118 -0.2147 -0.1025
 4133TIP3    H133890   5.619   2.021   3.992 -1.6437  0.4232  0.8999
 4133TIP3    H233891   5.639   2.167   3.959 -1.2479  0.2120  0.1651
 4134TIP3   OH233892   3.805   6.001  16.246  0.0615  0.7738  0.2408
 4134TIP3    H133893   3.805   5.925  16.304  0.8676 -1.5004 -2.4782
 4134TIP3    H233894   3.884   6.050  16.270 -0.7626  1.1433  2.4017
 4135TIP3   OH233895   0.474   3.900  11.814  0.4928 -0.2583  0.2801
 4135TIP3    H133896   0.392   3.928  11.855  0.7339 -0.1796  0.7115
 4135TIP3    H233897   0.522   3.855  11.884  1.6609  1.3923  0.5809
 4136TIP3   OH233898   0.635   4.946  11.015  0.0752 -0.3717  0.0401
 4136TIP3    H133899   0.696   4.872  11.020  1.6920  0.9021 -0.0466
 4136TIP3    H233900   0.691   5.023  11.009 -1.5756  0.8295 -0.6310
 4137TIP3   OH233901   0.019   5.839  16.930  0.4207  0.4389 -0.0712
 4137TIP3    H133902   0.045   5.751  16.958  0.0732  0.1542 -0.6246
 4137TIP3    H233903  -0.001   5.830  16.837  2.3135  1.5459 -0.6261
 4138TIP3   OH233904   3.838   4.661  16.116  0.3830 -0.0707  0.0348
 4138TIP3    H133905   3.775   4.622  16.055  1.0036 -0.3614 -0.4287
 4138TIP3    H233906   3.918   4.670  16.065  0.7020  0.3487  0.6066
 4139TIP3   OH233907   2.557   5.369   3.599  0.2167  0.4605  0.1707
 4139TIP3    H133908   2.559   5.464   3.599 -1.7297  0.5555 -0.0228
 4139TIP3    H233909   2.564   5.345   3.506  1.8344  0.3260  0.2978
 4140TIP3   OH233910   0.274   6.554   0.486 -0.3930 -0.5953  0.2095
 4140TIP3    H133911   0.350   6.568   0.543  0.0479  1.1916 -0.7293
 4140TIP3    H233912   0.260   6.460   0.486  1.6230 -0.9303  0.6876
 4141TIP3   OH233913   5.853   4.151   3.380  0.0009 -0.1316  0.1137
 4141TIP3    H133914   5.881   4.148   3.288  0.1073  1.3709  0.0797
 4141TIP3    H233915   5.933   4.132   3.430  0.8061  2.4447 -0.0391
 4142TIP3   OH233916   5.422   0.814   0.900  0.4306  0.2831 -0.6091
 4142TIP3    H133917   5.501   0.816   0.846  1.3402  1.1721  0.7028
 4142TIP3    H233918   5.387   0.903   0.894  0.4711  0.3572  0.1532
 4143TIP3   OH233919   2.742   5.470  17.237 -0.2329 -0.1699 -0.4681
 4143TIP3    H133920   2.683   5.395  17.249 -0.7372  0.4293  0.9518
 4143TIP3    H233921   2.687   5.546  17.252  0.4867  0.4749 -1.0283
 4144TIP3   OH233922   4.661   1.456   5.122  0.2789 -0.9322 -0.4081
 4144TIP3    H133923   4.744   1.468   5.168 -0.1241  1.9737 -0.2354
 4144TIP3    H233924   4.643   1.542   5.083 -2.5043 -1.5635 -0.7074
 4145TIP3   OH233925   1.707   4.753  12.810 -0.1793  0.0336  0.0558
 4145TIP3    H133926   1.612   4.748  12.823 -0.2837  2.2567  0.5687
 4145TIP3    H233927   1.742   4.768  12.897  0.3655  1.6531 -0.3929
 4146TIP3   OH233928   5.245   5.173   0.302  0.1425 -0.5239  0.3022
 4146TIP3    H133929   5.188   5.143   0.373  1.0408 -1.5091  0.6240
 4146TIP3    H233930   5.227   5.113   0.230  1.8099 -1.8087  0.8881
 4147TIP3   OH233931   5.600   5.900  12.546 -0.1392  0.1939  0.1337
 4147TIP3    H133932   5.628   5.808  12.542 -1.6809 -0.2759 -2.0251
 4147TIP3    H233933   5.517   5.897  12.594 -0.8926  0.1931 -1.1134
 4148TIP3   OH233934   3.193   4.256   0.599 -0.0584 -0.3558  0.1150
 4148TIP3    H133935   3.136   4.326   0.566  0.2010 -1.1105 -2.1518
 4148TIP3    H233936   3.136   4.180   0.607 -0.0854 -0.2140  1.3627
 4149TIP3   OH233937   4.782   4.580  12.669  0.3250 -0.2918 -0.1964
 4149TIP3    H133938   4.788   4.612  12.759  0.0060 -2.0452  0.4829
 4149TIP3    H233939   4.691   4.551  12.659  0.8297 -1.9098 -0.4081
 4150TIP3   OH233940   3.000   6.284   0.649 -0.3761 -0.1363 -0.3041
 4150TIP3    H133941   3.026   6.370   0.616  0.2899 -0.0553  0.3971
 4150TIP3    H233942   2.996   6.229   0.572  0.4041  0.2333 -0.6233
 4151TIP3   OH233943   6.713   5.649  13.643 -0.2240 -0.2927  0.3822
 4151TIP3    H133944   6.677   5.566  13.611  0.6177 -1.3515  2.0076
 4151TIP3    H233945   6.700   5.644  13.738  0.3816  1.1819  0.5580
 4152TIP3   OH233946   2.482   4.599   2.308  0.0279 -0.6476  0.0441
 4152TIP3    H133947   2.529   4.516   2.316 -0.4865 -0.8612  0.9912
 4152TIP3    H233948   2.470   4.611   2.214  2.0265 -0.5502 -0.2323
 4153TIP3   OH233949   1.603   3.013   4.509 -0.1043 -0.7380 -0.6206
 4153TIP3    H133950   1.651   2.971   4.439  1.5468 -0.3230  0.2012
 4153TIP3    H233951   1.552   3.081   4.466 -0.0552 -1.2713 -1.5429
 4154TIP3   OH233952   1.735   1.568  12.715  0.4810 -0.8822  0.0291
 4154TIP3    H133953   1.660   1.620  12.688 -0.3687 -1.5303  1.0460
 4154TIP3    H233954   1.697   1.492  12.759  1.7228 -1.5633 -0.0064
 4155TIP3   OH233955   5.138   2.620  15.120 -0.1745 -0.1883  0.4730
 4155TIP3    H133956   5.175   2.702  15.088  0.6762 -0.6717  0.1876
 4155TIP3    H233957   5.088   2.645  15.198  3.5237  0.0967  2.9935
 4156TIP3   OH233958   2.106   5.144   0.916 -0.4606  0.0250 -0.3112
 4156TIP3    H133959   2.012   5.142   0.900 -0.5892  1.4309  0.1494
 4156TIP3    H233960   2.124   5.065   0.967 -1.1392 -0.9813 -1.5773
 4157TIP3   OH233961   4.594   5.230  14.348  0.2207  0.0831  0.1140
 4157TIP3    H133962   4.510   5.259  14.385 -0.5088 -0.9671 -0.6396
 4157TIP3    H233963   4.628   5.307  14.302 -0.4258  0.4802  0.2830
 4158TIP3   OH233964   2.800   4.407   3.714 -0.5076 -0.2483 -0.2254
 4158TIP3    H133965   2.754   4.483   3.749 -1.3615  0.1617 -2.1193
 4158TIP3    H233966   2.731   4.341   3.701 -0.1590 -0.5046 -0.8139
 4159TIP3   OH233967   5.955   2.081  11.744  0.4078  0.1447  0.1894
 4159TIP3    H133968   5.971   2.009  11.805 -0.1478 -0.5403 -0.4506
 4159TIP3    H233969   5.931   2.037  11.662  3.5208  0.9120 -1.3091
 4160TIP3   OH233970   3.542   2.191  11.891 -0.7491 -0.5660  0.3344
 4160TIP3    H133971   3.528   2.261  11.954 -0.5648  0.3268 -0.5785
 4160TIP3    H233972   3.637   2.176  11.892 -0.5668  0.3436 -0.6052
 4161TIP3   OH233973   2.968   5.243   0.774 -0.1430  0.5547  0.3631
 4161TIP3    H133974   3.049   5.193   0.761 -0.5850  0.2005 -1.2974
 4161TIP3    H233975   2.964   5.302   0.699 -0.5400  1.8438  1.3697
 4162TIP3   OH233976   2.279   0.458  11.988  0.0941  0.6105  0.1456
 4162TIP3    H133977   2.278   0.554  11.984 -2.2462  0.5977 -0.9883
 4162TIP3    H233978   2.238   0.430  11.906  0.0998 -1.3693  0.7754
 4163TIP3   OH233979   0.423   5.700  11.317  0.2655  0.5643  0.6288
 4163TIP3    H133980   0.354   5.635  11.329  0.3088  0.3297 -0.3711
 4163TIP3    H233981   0.484   5.684  11.390 -1.3084  1.5707  2.2659
 4164TIP3   OH233982   1.649   6.401  12.255  0.2569  0.2901  0.3886
 4164TIP3    H133983   1.663   6.311  12.284 -0.9290 -0.1330 -0.2680
 4164TIP3    H233984   1.579   6.433  12.312  0.4607  0.6902  0.4129
 4165TIP3   OH233985   2.995   4.489   4.134 -0.0967 -0.8056 -0.2421
 4165TIP3    H133986   2.926   4.520   4.192  0.4141  0.9664 -0.5260
 4165TIP3    H233987   3.063   4.456   4.192  0.0752  0.2228  0.1620
 4166TIP3   OH233988   1.470   6.286  15.847  0.4961  0.7927 -0.4776
 4166TIP3    H133989   1.491   6.265  15.938 -0.5771 -0.2862 -0.4449
 4166TIP3    H233990   1.554   6.298  15.804  1.2613 -2.6002 -0.2206
 4167TIP3   OH233991   5.173   6.122   4.137  0.1299 -0.0230 -0.3975
 4167TIP3    H133992   5.223   6.043   4.118 -0.8709 -0.9329  0.6365
 4167TIP3    H233993   5.209   6.188   4.077  0.4801 -1.4350 -1.8055
 4168TIP3   OH233994   4.049   5.429  10.887  0.5902 -0.2575  0.1576
 4168TIP3    H133995   4.107   5.502  10.865 -0.5741  1.0633  1.2475
 4168TIP3    H233996   3.967   5.448  10.840  0.1082 -0.5821  0.8454
 4169TIP3   OH233997   1.720   2.924   5.249 -0.6154 -0.3580  0.3153
 4169TIP3    H133998   1.778   2.905   5.323 -1.5634  0.7945  1.3877
 4169TIP3    H233999   1.668   2.999   5.277 -1.0074  0.1206 -1.5290
 4170TIP3   OH234000   3.420   0.961  15.009  0.4027 -0.0907 -0.1167
 4170TIP3    H134001   3.416   0.887  15.070 -1.5272  0.8229  0.9486
 4170TIP3    H234002   3.478   1.024  15.051  1.7314 -0.8001 -0.8384
 4171TIP3   OH234003   2.448   4.356  13.200 -0.1556 -0.2014 -0.0609
 4171TIP3    H134004   2.466   4.265  13.223 -0.0261  0.0455  0.8869
 4171TIP3    H234005   2.362   4.373  13.239  0.2237  0.3357  0.5571
 4172TIP3   OH234006   4.972   5.925   3.416  0.1761  0.2718  0.4942
 4172TIP3    H134007   4.996   5.842   3.456 -0.4590 -0.7065 -1.0594
 4172TIP3    H234008   4.877   5.922   3.409  0.2917 -0.5843 -2.8599
 4173TIP3   OH234009   0.767   4.796  15.895  0.8526 -0.2804  0.9059
 4173TIP3    H134010   0.858   4.768  15.900  0.7978 -0.2626  2.1924
 4173TIP3    H234011   0.716   4.715  15.901  0.7701 -0.4590 -1.3304
 4174TIP3   OH234012   0.537   4.396  11.490  0.3295  0.0553  0.0413
 4174TIP3    H134013   0.604   4.448  11.446 -0.0552 -0.7536 -1.6083
 4174TIP3    H234014   0.479   4.366  11.419 -2.3278  1.4426  1.4702
 4175TIP3   OH234015   1.613   1.863   0.968 -0.1362  0.8174 -0.3591
 4175TIP3    H134016   1.631   1.921   0.894  1.9622  0.6374 -0.0532
 4175TIP3    H234017   1.617   1.775   0.932  0.0108  0.7581 -0.2000
 4176TIP3   OH234018   1.255   3.155  12.547  0.2209 -0.1048  0.4486
 4176TIP3    H134019   1.285   3.161  12.638 -0.7674  1.2055  0.7238
 4176TIP3    H234020   1.334   3.137  12.496  0.4786 -3.3169  1.7656
 4177TIP3   OH234021   6.819   1.118  14.871 -0.1368  0.1991 -0.7144
 4177TIP3    H134022   6.814   1.209  14.900 -0.2137  0.4210 -1.4064
 4177TIP3    H234023   6.863   1.072  14.943 -1.1953  0.5453  0.1785
 4178TIP3   OH234024   0.538   4.493  11.092  0.0935 -0.5543  0.3307
 4178TIP3    H134025   0.454   4.455  11.067  1.0966 -3.0385  0.4920
 4178TIP3    H234026   0.551   4.566  11.031 -1.2292 -1.4360 -1.0500
 4179TIP3   OH234027   6.358   2.794  17.058  0.0270  0.4489 -0.1798
 4179TIP3    H134028   6.296   2.859  17.092 -1.0837 -0.2975 -0.7307
 4179TIP3    H234029   6.393   2.751  17.135 -1.0565  0.0573  0.1065
 4180TIP3   OH234030   4.309   2.681  13.219 -0.1262  0.4146 -0.1113
 4180TIP3    H134031   4.325   2.756  13.277 -2.0393  0.3399  0.5913
 4180TIP3    H234032   4.343   2.708  13.134 -1.3802  2.3985 -0.0511
 4181TIP3   OH234033   4.596   2.754  15.400 -0.4331 -0.3601 -0.0698
 4181TIP3    H134034   4.684   2.779  15.372 -0.6413 -0.5132 -0.8969
 4181TIP3    H234035   4.568   2.689  15.336 -1.2701 -0.0815 -0.0023
 4182TIP3   OH234036   6.484   0.564   6.670  0.4593  0.2537 -0.2823
 4182TIP3    H134037   6.571   0.577   6.633  0.0660  1.2205 -0.8871
 4182TIP3    H234038   6.490   0.600   6.759  0.7849 -0.0678 -0.1697
 4183TIP3   OH234039   5.090   5.169  14.474  0.0124  0.0706 -0.3953
 4183TIP3    H134040   5.067   5.218  14.553  0.6747 -0.7077  0.2930
 4183TIP3    H234041   5.006   5.140  14.438 -0.3283  0.9197 -0.3152
 4184TIP3   OH234042   0.665   1.468   0.252  0.7917  0.3810 -0.4729
 4184TIP3    H134043   0.642   1.376   0.260 -0.0047  0.5012 -1.2301
 4184TIP3    H234044   0.717   1.487   0.330 -0.9110 -0.1534  0.8448
 4185TIP3   OH234045   6.041   5.894   6.004 -0.9082 -0.3512 -0.5508
 4185TIP3    H134046   5.986   5.971   5.999 -0.5345  0.2774  2.9240
 4185TIP3    H234047   5.988   5.829   6.050 -1.0767 -2.1453 -3.0792
 4186TIP3   OH234048   5.554   2.819  16.576 -0.2678  0.2159  0.0638
 4186TIP3    H134049   5.575   2.742  16.629  0.5363 -0.1251 -0.7219
 4186TIP3    H234050   5.484   2.863  16.624  1.6123  0.9166  2.3754
 4187TIP3   OH234051   1.437   4.979   1.798  0.4657 -0.5332  0.8231
 4187TIP3    H134052   1.429   4.896   1.845  0.4518  0.0989  1.9980
 4187TIP3    H234053   1.421   5.045   1.865 -1.9463  0.4096 -0.5518
 4188TIP3   OH234054   0.582   5.598  13.352  0.7005 -0.2526 -0.0416
 4188TIP3    H134055   0.528   5.581  13.274  0.3288  0.0050  0.1588
 4188TIP3    H234056   0.636   5.519  13.360  0.1087 -0.6686 -0.0451
 4189TIP3   OH234057   3.115   5.096   2.176  0.2476 -0.2744 -0.2161
 4189TIP3    H134058   3.096   5.177   2.129 -1.8959 -1.7054 -2.0415
 4189TIP3    H234059   3.151   5.125   2.260  0.0465  2.5211 -0.9817
 4190TIP3   OH234060   4.181   4.401  16.424 -0.3058  0.1232  0.4220
 4190TIP3    H134061   4.253   4.459  16.398 -0.1041 -0.3349 -0.0316
 4190TIP3    H234062   4.207   4.314  16.394 -0.0641 -0.4279  2.1290
 4191TIP3   OH234063   3.266   2.545  11.108 -0.6175  0.5072  0.6618
 4191TIP3    H134064   3.339   2.486  11.088 -0.5583  1.3067 -1.8040
 4191TIP3    H234065   3.306   2.614  11.161  0.4500  0.9083 -0.6118
 4192TIP3   OH234066   0.517   1.222  14.594  0.0840 -0.1295  0.0964
 4192TIP3    H134067   0.470   1.180  14.522  1.4244 -0.3995 -0.6766
 4192TIP3    H234068   0.536   1.151  14.655 -1.0787  0.1048  0.7478
 4193TIP3   OH234069   5.575   0.303  16.335  0.1303 -0.0987  0.3084
 4193TIP3    H134070   5.560   0.352  16.254 -0.0970 -0.4290  0.1449
 4193TIP3    H234071   5.508   0.334  16.395 -1.6926 -1.9528 -0.5931
 4194TIP3   OH234072   5.005   3.109   6.046  0.6021 -0.0488 -0.1352
 4194TIP3    H134073   5.086   3.085   6.090  0.7044 -1.6421 -1.1156
 4194TIP3    H234074   4.963   3.026   6.025 -0.8889  0.7259 -0.4021
 4195TIP3   OH234075   2.019   3.533  12.507 -0.1621  0.0921  0.0928
 4195TIP3    H134076   1.995   3.564  12.419 -0.6768  3.0952  1.1748
 4195TIP3    H234077   2.071   3.454  12.491 -2.7901 -1.2692 -2.7545
 4196TIP3   OH234078   2.141   0.732  15.050 -0.4538  0.3193  0.6428
 4196TIP3    H134079   2.126   0.710  14.958 -1.9186 -0.8828  1.1275
 4196TIP3    H234080   2.107   0.657  15.098  1.9909  0.0824  2.1325
 4197TIP3   OH234081   0.669   1.892   1.689 -0.2425 -0.0937 -0.5331
 4197TIP3    H134082   0.722   1.884   1.769 -1.9485  0.8903  0.7657
 4197TIP3    H234083   0.731   1.918   1.621  1.1600 -0.3887  0.5913
 4198TIP3   OH234084   0.406   5.353  16.913 -0.8025 -0.1875  0.2119
 4198TIP3    H134085   0.496   5.376  16.888 -0.6478  3.4296  3.2134
 4198TIP3    H234086   0.353   5.382  16.839  0.2909  0.8273 -0.2236
 4199TIP3   OH234087   0.395   0.059   2.998 -0.5013 -0.2751  1.0002
 4199TIP3    H134088   0.306   0.037   2.972 -0.3891 -0.1750  0.5347
 4199TIP3    H234089   0.449   0.035   2.923 -0.1943  0.1172  1.0926
 4200TIP3   OH234090   2.513   2.517  15.610 -0.0278  0.1444 -0.1343
 4200TIP3    H134091   2.558   2.435  15.589 -0.4426 -0.0600 -0.2348
 4200TIP3    H234092   2.420   2.493  15.617  0.1306  0.0467  2.5991
 4201TIP3   OH234093   3.487   1.176   3.769  0.3420  0.4389  0.1052
 4201TIP3    H134094   3.430   1.213   3.702  0.2528  0.5734  0.2561
 4201TIP3    H234095   3.458   1.215   3.851  0.8405  0.7411  0.1447
 4202TIP3   OH234096   4.975   3.939   2.662  0.4742  0.1076  0.4899
 4202TIP3    H134097   5.070   3.940   2.679  0.2424 -1.0747  2.0280
 4202TIP3    H234098   4.941   4.011   2.715  0.3727 -0.2447  0.9057
 4203TIP3   OH234099   0.533   5.644  13.978 -0.4543  0.0607 -0.2931
 4203TIP3    H134100   0.534   5.589  13.900  3.1992 -1.8973  0.8850
 4203TIP3    H234101   0.488   5.591  14.044  2.5767 -1.5772  0.6839
 4204TIP3   OH234102   3.082   3.065  12.291  0.1589  0.7618 -0.0617
 4204TIP3    H134103   3.110   2.975  12.272  1.8827  0.4746  3.1984
 4204TIP3    H234104   3.161   3.118  12.278  0.0571  1.2578  1.1920
 4205TIP3   OH234105   3.581   0.846   3.607  0.2314  0.0090  0.4623
 4205TIP3    H134106   3.539   0.833   3.693 -1.6219 -0.8154 -0.5128
 4205TIP3    H234107   3.653   0.907   3.625 -0.1642 -0.0447  2.5735
 4206TIP3   OH234108   2.990   1.009   5.651  0.0017 -0.0581  0.2690
 4206TIP3    H134109   3.021   1.094   5.619 -3.5734  1.5368  0.4381
 4206TIP3    H234110   2.973   0.958   5.572 -1.9953  1.1635 -0.1750
 4207TIP3   OH234111   2.479   1.357  16.365  0.8382 -0.0263 -0.2174
 4207TIP3    H134112   2.571   1.382  16.361  0.5141  1.0827 -1.3280
 4207TIP3    H234113   2.445   1.375  16.277 -1.0886  2.2005  0.8752
 4208TIP3   OH234114   1.675   0.641  11.982 -0.6342 -0.7001  0.5529
 4208TIP3    H134115   1.670   0.637  12.077  1.3058 -0.9245  0.6814
 4208TIP3    H234116   1.644   0.555  11.952  0.2055 -1.1975  1.0810
 4209TIP3   OH234117   0.958   5.315   1.709  0.4599 -1.0150 -0.5367
 4209TIP3    H134118   0.995   5.292   1.623  0.5352  0.5703 -0.9604
 4209TIP3    H234119   0.941   5.230   1.751  0.4218 -1.8272 -2.1044
 4210TIP3   OH234120   1.198   4.164   5.479  0.3208  0.0205 -0.1012
 4210TIP3    H134121   1.225   4.237   5.424 -1.4624  1.1072  0.3789
 4210TIP3    H234122   1.198   4.199   5.568 -1.8096 -0.1111  0.0027
 4211TIP3   OH234123   1.194   0.070  12.052 -0.1748 -0.4456  0.4007
 4211TIP3    H134124   1.267   0.132  12.064 -1.0031  0.6581 -0.0731
 4211TIP3    H234125   1.149   0.101  11.973 -1.1584 -1.1073  0.6875
 4212TIP3   OH234126   0.961   2.199   2.546 -0.1650  0.2462 -0.3073
 4212TIP3    H134127   0.887   2.232   2.496 -0.3135 -1.0032 -0.9391
 4212TIP3    H234128   1.013   2.277   2.567  0.6510  0.7077 -3.5916
 4213TIP3   OH234129   5.572   0.297   5.937  0.7044 -0.2907 -0.2387
 4213TIP3    H134130   5.539   0.343   6.014  0.8530 -0.0508 -0.3168
 4213TIP3    H234131   5.641   0.354   5.903  0.2094 -0.0820 -0.9216
 4214TIP3   OH234132   1.951   5.370  12.472 -0.6869  0.4548 -0.9201
 4214TIP3    H134133   1.857   5.380  12.490 -0.7073 -0.2389 -0.6126
 4214TIP3    H234134   1.960   5.396  12.380 -0.8275  2.5302 -0.4082
 4215TIP3   OH234135   5.517   6.183  16.501  0.0107  0.6407 -0.1951
 4215TIP3    H134136   5.604   6.181  16.461  0.3786  0.0797  0.6089
 4215TIP3    H234137   5.457   6.168  16.427  0.7924 -2.9304 -0.3018
 4216TIP3   OH234138   3.770   4.329  14.405 -0.1977  0.1432  0.1249
 4216TIP3    H134139   3.722   4.408  14.430  0.8706  0.4768  1.2427
 4216TIP3    H234140   3.832   4.359  14.339  0.9329  0.4864  1.3139
 4217TIP3   OH234141   1.296   4.580  15.741  0.4162 -0.0843  0.6122
 4217TIP3    H134142   1.369   4.628  15.781  0.0067  2.5136 -1.4375
 4217TIP3    H234143   1.236   4.563  15.813  2.5609 -1.4622  2.1798
 4218TIP3   OH234144   1.068   1.010  15.703  0.5488 -0.0167 -0.1067
 4218TIP3    H134145   0.981   1.038  15.728  0.8513  0.1644  0.7748
 4218TIP3    H234146   1.062   0.993  15.609 -0.2718  0.5827 -0.1676
 4219TIP3   OH234147   4.033   2.257   0.229  0.0645  0.1372 -0.5257
 4219TIP3    H134148   4.125   2.277   0.245 -0.0785  0.1764  0.2682
 4219TIP3    H234149   4.030   2.227   0.138  0.4208  2.9224 -1.5529
 4220TIP3   OH234150   1.978   4.646   4.944 -0.0124 -0.3060 -0.0682
 4220TIP3    H134151   2.027   4.611   4.870 -0.6012  0.1766 -0.6873
 4220TIP3    H234152   1.916   4.708   4.906 -1.6220 -1.4308  0.6150
 4221TIP3   OH234153   3.320   3.575  16.716  0.4210 -0.0339  0.1933
 4221TIP3    H134154   3.282   3.512  16.655  1.1381  1.2873 -1.6908
 4221TIP3    H234155   3.246   3.602  16.772  0.1259 -2.5719  1.1569
 4222TIP3   OH234156   2.487   5.188   5.209  0.1927 -0.4018 -0.1006
 4222TIP3    H134157   2.520   5.271   5.174 -1.3384  0.1232 -0.3712
 4222TIP3    H234158   2.448   5.144   5.133  0.0641 -0.8945  0.2460
 4223TIP3   OH234159   2.031   6.384  15.340  0.3141 -0.1381 -0.3664
 4223TIP3    H134160   1.996   6.302  15.373 -1.2836  0.2304 -1.0598
 4223TIP3    H234161   2.000   6.390  15.250  0.7012  1.0565 -0.4451
 4224TIP3   OH234162   3.558   0.235  11.464  0.1917  0.2237  0.4753
 4224TIP3    H134163   3.514   0.150  11.454 -0.4660  0.7618 -1.7833
 4224TIP3    H234164   3.626   0.235  11.396  1.1289  0.9755  1.3796
 4225TIP3   OH234165   3.898   4.594  12.898 -0.1188 -0.4712  0.2277
 4225TIP3    H134166   3.944   4.553  12.972 -1.9926 -2.3380  0.4410
 4225TIP3    H234167   3.832   4.649  12.939 -0.2721 -0.4358 -0.0684
 4226TIP3   OH234168   6.561   2.624  13.320  0.4975 -0.0517 -0.5622
 4226TIP3    H134169   6.505   2.637  13.396  1.4401  0.1374  0.1136
 4226TIP3    H234170   6.506   2.648  13.245 -0.0122  1.0972  0.1607
 4227TIP3   OH234171   0.957   1.604   5.974 -0.5533 -0.0664  0.3268
 4227TIP3    H134172   0.901   1.561   5.909 -0.0170 -1.7649  0.9509
 4227TIP3    H234173   0.960   1.543   6.048  0.8497  0.7068  0.9530
 4228TIP3   OH234174   4.385   4.618   2.399  0.7321 -0.4512 -0.0170
 4228TIP3    H134175   4.394   4.558   2.324  0.6486  0.6899 -0.9633
 4228TIP3    H234176   4.301   4.595   2.438  1.0465 -1.4590  0.1022
 4229TIP3   OH234177   1.844   6.364   5.210  0.5926 -0.2132 -0.0801
 4229TIP3    H134178   1.905   6.342   5.141 -0.1913 -1.3835 -0.4306
 4229TIP3    H234179   1.836   6.460   5.206  0.1016 -0.3007 -2.0187
 4230TIP3   OH234180   4.103   4.264   4.132  0.7503  0.0858 -0.0183
 4230TIP3    H134181   4.185   4.262   4.084  0.3626 -2.5316 -0.7844
 4230TIP3    H234182   4.104   4.183   4.184 -0.6255  0.8195  1.2158
 4231TIP3   OH234183   1.355   3.665  14.267 -0.0177 -0.1123  0.0268
 4231TIP3    H134184   1.268   3.678  14.304 -0.9807 -1.4734 -1.5806
 4231TIP3    H234185   1.344   3.683  14.174  1.7287  0.8603 -0.0223
 4232TIP3   OH234186   3.029   4.376   5.893 -0.1694 -0.0645  0.4283
 4232TIP3    H134187   3.117   4.412   5.879 -0.0299  0.0835  1.5473
 4232TIP3    H234188   2.972   4.452   5.903 -0.3833 -0.1605 -0.0481
 4233TIP3   OH234189   4.705   4.696   0.997  0.1975 -0.6005  0.2358
 4233TIP3    H134190   4.765   4.758   0.956  0.5583 -1.9514 -1.4088
 4233TIP3    H234191   4.633   4.688   0.935 -0.3560 -1.0558  0.9206
 4234TIP3   OH234192   1.447   1.328   0.185  0.5618 -0.0580  0.2136
 4234TIP3    H134193   1.386   1.391   0.148  0.6078 -0.2055 -0.1240
 4234TIP3    H234194   1.441   1.252   0.126 -0.2697 -0.7751  1.1950
 4235TIP3   OH234195   2.111   4.802   2.622 -0.3671 -0.6621 -0.1190
 4235TIP3    H134196   2.153   4.746   2.687 -0.5840 -1.7938 -0.9172
 4235TIP3    H234197   2.108   4.749   2.543 -1.9329 -0.0757 -0.5014
 4236TIP3   OH234198   3.048   4.878   0.645  0.3275 -0.8128  0.3182
 4236TIP3    H134199   3.130   4.921   0.670  0.9710 -2.2915  0.8542
 4236TIP3    H234200   3.062   4.850   0.555 -0.8675  1.8355 -0.7900
 4237TIP3   OH234201   4.687   0.813  13.237  0.5113  0.1470 -0.0814
 4237TIP3    H134202   4.781   0.795  13.236  0.7090  1.0741 -1.7203
 4237TIP3    H234203   4.646   0.727  13.232  1.2359 -0.3114  1.3439
 4238TIP3   OH234204   1.126   4.091  14.019  0.0121 -0.5960 -0.0645
 4238TIP3    H134205   1.197   4.106  13.956  1.1116  0.6500  1.4046
 4238TIP3    H234206   1.060   4.156  13.995  0.6264  0.1882  0.3247
 4239TIP3   OH234207   6.030   5.858  16.030 -0.0916  0.3743 -0.0282
 4239TIP3    H134208   5.975   5.788  16.066 -0.4364 -0.7953 -2.5930
 4239TIP3    H234209   5.970   5.912  15.978  0.3547  2.0743  1.1203
 4240TIP3   OH234210   1.106   5.747   5.605 -0.1762 -0.3355 -0.0697
 4240TIP3    H134211   1.131   5.681   5.670 -1.3983 -0.7030  0.0535
 4240TIP3    H234212   1.091   5.697   5.525 -3.7387 -0.6978  0.6636
 4241TIP3   OH234213   5.586   2.686   3.741 -0.2818 -0.1270  0.1283
 4241TIP3    H134214   5.639   2.611   3.713  0.4523  0.3592  0.2153
 4241TIP3    H234215   5.495   2.654   3.735  0.0544 -1.3963  1.2376
 4242TIP3   OH234216   1.813   6.357   3.796  0.6964 -0.0694 -0.2027
 4242TIP3    H134217   1.754   6.287   3.824 -0.0278  1.0521  1.2431
 4242TIP3    H234218   1.893   6.312   3.769 -0.2997 -1.5392 -0.8726
 4243TIP3   OH234219   2.418   1.900  12.968  0.2835 -0.4800 -0.3353
 4243TIP3    H134220   2.383   1.874  13.054 -0.8218  0.1124 -0.5900
 4243TIP3    H234221   2.389   1.832  12.908 -0.8939  0.2573 -0.6356
 4244TIP3   OH234222   4.632   0.886  14.229  0.0172  0.6159  0.0178
 4244TIP3    H134223   4.619   0.809  14.174 -1.3315  2.8949 -3.2161
 4244TIP3    H234224   4.544   0.915  14.252  0.4473  1.6447  0.4842
 4245TIP3   OH234225   1.538   0.256  13.269  0.1217 -0.5435  0.4043
 4245TIP3    H134226   1.492   0.231  13.189  2.7768 -1.8918 -0.8448
 4245TIP3    H234227   1.574   0.343  13.250 -2.1211  0.7162  1.5509
 4246TIP3   OH234228   2.411   2.721  11.781 -0.1885  0.0061 -0.0416
 4246TIP3    H134229   2.439   2.684  11.865 -3.2996 -1.0303  0.6535
 4246TIP3    H234230   2.369   2.803  11.804 -1.7743 -0.6633 -0.4540
 4247TIP3   OH234231   5.513   0.975   1.510  0.3017 -0.6735  0.5524
 4247TIP3    H134232   5.581   1.041   1.503 -1.1518  0.7866 -0.6157
 4247TIP3    H234233   5.483   0.980   1.601  0.2462  0.2538  0.4864
 4248TIP3   OH234234   0.532   5.330  15.721 -0.4063 -0.5360 -0.6812
 4248TIP3    H134235   0.443   5.345  15.753 -0.3544 -0.6747 -0.4666
 4248TIP3    H234236   0.588   5.373  15.787 -0.3631  1.0058 -1.6604
 4249TIP3   OH234237   2.165   2.999   4.139 -0.8599 -0.7111 -0.2582
 4249TIP3    H134238   2.260   2.989   4.134 -0.5389  0.3983  2.2074
 4249TIP3    H234239   2.151   3.058   4.213 -3.4693 -0.5937 -0.7632
 4250TIP3   OH234240   0.392   1.120   5.724  0.0063  0.3437  0.1035
 4250TIP3    H134241   0.349   1.205   5.717 -0.3918  0.2616  1.3231
 4250TIP3    H234242   0.479   1.134   5.688  1.0133  2.0936  2.8582
 4251TIP3   OH234243   3.540   2.156   4.565 -0.6540 -0.3940  0.1703
 4251TIP3    H134244   3.557   2.064   4.585  2.9628 -0.0411 -0.5484
 4251TIP3    H234245   3.513   2.194   4.649 -3.0844 -2.1687  0.3025
 4252TIP3   OH234246   3.674   5.501   0.526 -0.9985 -0.1067  0.2469
 4252TIP3    H134247   3.603   5.508   0.591 -0.7900 -4.0613  1.1371
 4252TIP3    H234248   3.754   5.497   0.579  0.1082  3.8759 -0.7329
 4253TIP3   OH234249   4.594   3.608   2.486  0.6866 -0.1964  0.0241
 4253TIP3    H134250   4.568   3.597   2.577  1.7589 -1.3788  0.2176
 4253TIP3    H234251   4.657   3.680   2.488 -0.5113  0.9009 -0.0643
 4254TIP3   OH234252   5.768   0.958  13.703 -0.1594  0.1311 -0.2110
 4254TIP3    H134253   5.832   0.982  13.635  0.4559 -1.3377 -0.1821
 4254TIP3    H234254   5.748   1.041  13.746  1.1623  0.7547 -0.7222
 4255TIP3   OH234255   3.090   0.567  14.360 -0.0406  0.1029  0.5415
 4255TIP3    H134256   3.158   0.602  14.303 -0.5840  0.6538  0.2209
 4255TIP3    H234257   3.121   0.588  14.449 -0.7774  2.2951  0.3536
 4256TIP3   OH234258   0.542   0.912   4.739  0.4036  0.2059  0.4905
 4256TIP3    H134259   0.485   0.989   4.736 -1.2442 -0.9887 -0.1148
 4256TIP3    H234260   0.579   0.906   4.651 -1.7770 -1.2971 -0.4097
 4257TIP3   OH234261   2.159   6.766  11.758  0.3760  0.3158 -0.0031
 4257TIP3    H134262   2.133   6.748  11.848  1.7744  1.3225  0.6278
 4257TIP3    H234263   2.237   6.713  11.744  0.8917  1.1116 -0.1985
 4258TIP3   OH234264   2.208   2.629  12.772 -0.3849  0.4905 -0.4784
 4258TIP3    H134265   2.247   2.638  12.859  0.0709  2.4103 -0.8407
 4258TIP3    H234266   2.115   2.610  12.789 -0.2844  0.7670  0.4130
 4259TIP3   OH234267   4.060   3.910   0.376 -0.3689 -0.7478  0.2323
 4259TIP3    H134268   4.139   3.922   0.322 -0.4394 -1.4669 -0.0435
 4259TIP3    H234269   4.027   3.999   0.391 -1.2792 -0.5771 -2.2975
 4260TIP3   OH234270   5.345   1.668  15.685  0.1448  0.3613  0.1332
 4260TIP3    H134271   5.310   1.585  15.654 -2.7482  1.4468  0.0996
 4260TIP3    H234272   5.291   1.689  15.762  0.0423  2.6625 -0.4827
 4261TIP3   OH234273   1.032   2.192   3.440  0.4998  0.1931  1.1693
 4261TIP3    H134274   0.991   2.126   3.496  0.8633 -1.1516 -0.1008
 4261TIP3    H234275   1.126   2.180   3.453  0.5580  1.3832  1.9438
 4262TIP3   OH234276   4.016   2.049  13.930  0.2674  0.6075  0.1801
 4262TIP3    H134277   4.100   2.007  13.949 -0.2642  0.3265  2.1020
 4262TIP3    H234278   4.038   2.142  13.923  0.6949  0.5762  1.0001
 4263TIP3   OH234279   4.588   1.326  13.972  0.3295 -0.4978  0.0541
 4263TIP3    H134280   4.560   1.266  13.903  1.4865  1.9470 -2.7391
 4263TIP3    H234281   4.565   1.413  13.939  0.9570  0.8123  2.7945
 4264TIP3   OH234282   5.575   1.183   4.446 -0.4247 -0.0859  0.3564
 4264TIP3    H134283   5.493   1.160   4.489 -1.1754  2.9420  0.7436
 4264TIP3    H234284   5.616   1.247   4.504  1.0520  0.2635 -0.9875
 4265TIP3   OH234285   2.999   6.151   0.416  0.5241 -0.2229 -0.4687
 4265TIP3    H134286   3.074   6.092   0.411 -0.7216 -2.3612  2.6747
 4265TIP3    H234287   2.923   6.094   0.406 -0.7246  1.3021 -0.0913
 4266TIP3   OH234288   4.434   2.849   3.139  0.0832  0.0831  0.9389
 4266TIP3    H134289   4.367   2.816   3.199  0.4045  0.6087  1.6003
 4266TIP3    H234290   4.517   2.825   3.180  0.3132  0.8060  0.9171
 4267TIP3   OH234291   6.292   1.646   4.707  0.3723 -0.2299  0.1139
 4267TIP3    H134292   6.219   1.609   4.756  0.3368 -0.2209  0.0679
 4267TIP3    H234293   6.367   1.638   4.766 -0.1758  2.2118  1.2736
 4268TIP3   OH234294   6.410   4.927  12.343  0.3084 -0.1861 -0.1574
 4268TIP3    H134295   6.470   4.855  12.320  0.4369  0.0741 -0.6394
 4268TIP3    H234296   6.323   4.893  12.324  0.3590 -0.2630 -0.2513
 4269TIP3   OH234297   0.527   1.809   5.199  0.5150 -0.1966  0.2086
 4269TIP3    H134298   0.572   1.893   5.207  0.5724 -0.2556  0.5050
 4269TIP3    H234299   0.436   1.828   5.222  0.4234 -0.1157 -0.2086
 4270TIP3   OH234300   4.789   4.149  13.825 -0.3226 -0.0278 -0.4676
 4270TIP3    H134301   4.702   4.187  13.838  0.0099  0.5462  0.1324
 4270TIP3    H234302   4.849   4.222  13.837  0.5751 -1.2434  4.1566
 4271TIP3   OH234303   1.229   1.580   1.792 -0.2073 -0.0879 -0.0482
 4271TIP3    H134304   1.168   1.551   1.859  1.4263 -0.2287  1.4498
 4271TIP3    H234305   1.312   1.538   1.815  0.8522  1.3282 -1.0814
 4272TIP3   OH234306   4.585   2.480  14.594 -0.0475 -0.9329 -0.2328
 4272TIP3    H134307   4.492   2.500  14.601  0.1491 -0.2506  0.5815
 4272TIP3    H234308   4.598   2.404  14.650  0.2610  0.2978  1.4319
 4273TIP3   OH234309   3.835   2.579  11.127  0.4001 -0.3665 -0.1679
 4273TIP3    H134310   3.845   2.601  11.219 -1.4790  0.7570 -0.1783
 4273TIP3    H234311   3.743   2.598  11.108  0.3629 -2.0130 -1.8981
 4274TIP3   OH234312   0.415   5.515   5.656  0.1168 -0.2898 -0.2039
 4274TIP3    H134313   0.388   5.519   5.747  1.3168 -0.9698  0.1949
 4274TIP3    H234314   0.509   5.495   5.659  0.6567  1.6557 -1.5291
 4275TIP3   OH234315   6.450   4.555   0.028 -0.0073 -0.0878  0.2689
 4275TIP3    H134316   6.480   4.635   0.072  0.9368 -0.8879  1.1504
 4275TIP3    H234317   6.444   4.579  -0.064  0.6255  0.9017  0.4707
 4276TIP3   OH234318   6.392   5.672  15.527 -0.1438 -0.1869  0.5133
 4276TIP3    H134319   6.417   5.609  15.460 -0.7252 -1.9997  1.9320
 4276TIP3    H234320   6.312   5.712  15.494 -0.7025 -1.4252  0.3090
 4277TIP3   OH234321   1.529   1.632   2.883  0.1089 -0.2075  0.0667
 4277TIP3    H134322   1.589   1.559   2.897 -1.1078 -1.2551  0.0097
 4277TIP3    H234323   1.526   1.643   2.788  1.3304  0.8454  0.1230
 4278TIP3   OH234324   1.552   3.661   1.274  0.5768  0.1179 -0.4310
 4278TIP3    H134325   1.618   3.645   1.206 -0.6316 -0.4905 -1.5081
 4278TIP3    H234326   1.564   3.590   1.337 -0.6639 -1.5318 -1.9480
 4279TIP3   OH234327   2.841   3.018   1.063 -0.2155  0.4406 -0.5516
 4279TIP3    H134328   2.834   2.988   1.154  2.0226  0.6200 -0.2566
 4279TIP3    H234329   2.831   2.938   1.011  0.1804  0.0633 -0.0537
 4280TIP3   OH234330   5.720   0.176  13.389  0.0269  0.0827 -0.0976
 4280TIP3    H134331   5.649   0.236  13.369  0.9363  1.4419  0.5519
 4280TIP3    H234332   5.772   0.172  13.309 -1.3186 -1.7790 -0.9452
 4281TIP3   OH234333   6.577   2.903  14.751 -0.2502 -0.6077  0.2059
 4281TIP3    H134334   6.555   2.984  14.705  0.2813 -0.2442  0.5709
 4281TIP3    H234335   6.672   2.907  14.762 -0.2352 -1.2185  0.3511
 4282TIP3   OH234336   6.200   5.137   2.124 -0.4573 -0.0176  0.0179
 4282TIP3    H134337   6.208   5.190   2.045 -2.4605  0.9038  0.3705
 4282TIP3    H234338   6.119   5.167   2.166  0.8740  0.0164  2.8047
 4283TIP3   OH234339   2.921   0.661   2.569  0.0369  0.0718  0.1275
 4283TIP3    H134340   2.867   0.648   2.491  0.4118  1.0433 -0.3135
 4283TIP3    H234341   2.864   0.637   2.642 -0.5285 -0.2453 -0.4100
 4284TIP3   OH234342   5.223   5.875  12.493  0.4394 -0.8425 -0.0766
 4284TIP3    H134343   5.177   5.821  12.428  0.8968  1.0012 -2.0303
 4284TIP3    H234344   5.234   5.960  12.450 -1.8948  1.5421  3.4746
 4285TIP3   OH234345   4.298   5.347  11.502 -0.5704  0.8823 -0.6380
 4285TIP3    H134346   4.246   5.408  11.450  0.6026  1.0853 -1.6399
 4285TIP3    H234347   4.358   5.308  11.439  0.7948  1.0024  0.5257
 4286TIP3   OH234348   4.677   2.024   1.410  0.1052 -0.2255 -0.3985
 4286TIP3    H134349   4.718   2.096   1.459  0.6130  0.3508 -1.6174
 4286TIP3    H234350   4.655   1.959   1.476  0.0557  0.8637  0.6770
 4287TIP3   OH234351   3.554   0.589   3.986 -0.0404 -0.2053 -0.1409
 4287TIP3    H134352   3.566   0.682   4.003  0.6818  0.1232 -2.2878
 4287TIP3    H234353   3.468   0.583   3.943  0.1438 -0.4800 -0.4735
 4288TIP3   OH234354   5.002   3.258   5.811  0.1306  0.1441 -0.1269
 4288TIP3    H134355   4.983   3.216   5.895  1.8236 -2.0695 -0.7323
 4288TIP3    H234356   4.931   3.231   5.754  1.3018 -2.3194 -0.5695
 4289TIP3   OH234357   2.852   2.250   6.642  0.0840 -0.1106 -0.9079
 4289TIP3    H134358   2.818   2.271   6.555 -0.5084  1.4098 -0.3290
 4289TIP3    H234359   2.802   2.304   6.702  0.9965 -0.5881  0.3284
 4290TIP3   OH234360   3.081   4.199  15.689  0.3086  0.4257 -0.0928
 4290TIP3    H134361   3.147   4.214  15.757  0.7549 -0.1313 -0.3964
 4290TIP3    H234362   3.088   4.275  15.631 -1.8150  2.2439  1.8187
 4291TIP3   OH234363   3.603   6.654   5.425 -0.2224  0.5389  0.2279
 4291TIP3    H134364   3.655   6.640   5.504  1.5218  0.5892 -0.8675
 4291TIP3    H234365   3.606   6.571   5.378 -2.4313  0.0556  0.8221
 4292TIP3   OH234366   6.142   1.813  15.981 -0.0717 -0.1866  0.1271
 4292TIP3    H134367   6.233   1.787  15.989 -0.3684 -1.0729  0.8346
 4292TIP3    H234368   6.121   1.855  16.064 -0.5241 -0.7133  0.2847
 4293TIP3   OH234369   0.822   2.137   4.537 -0.8741  0.0154  0.2467
 4293TIP3    H134370   0.851   2.079   4.466  1.1468  1.3941 -0.1383
 4293TIP3    H234371   0.729   2.151   4.520 -0.5830 -0.1874 -1.7777
 4294TIP3   OH234372   1.352   6.719  14.375  0.5789  0.2465 -0.1827
 4294TIP3    H134373   1.263   6.703  14.343 -0.1695  0.9847  1.4381
 4294TIP3    H234374   1.390   6.632  14.386 -1.4373 -0.3647  3.0757
 4295TIP3   OH234375   2.156   2.504   0.695  0.3704 -0.0493 -0.4400
 4295TIP3    H134376   2.105   2.426   0.716 -0.8721  0.9913  0.5564
 4295TIP3    H234377   2.234   2.470   0.651  0.5826 -1.9652  1.2634
 4296TIP3   OH234378   6.065   0.744   3.891  0.0328  0.2581  0.5105
 4296TIP3    H134379   6.009   0.761   3.815 -0.8606 -2.7748  0.3330
 4296TIP3    H234380   6.120   0.671   3.864  1.3054  0.5857  2.0544
 4297TIP3   OH234381   5.256   2.132   4.943  0.0178 -0.3266  0.5575
 4297TIP3    H134382   5.207   2.213   4.940 -1.5024 -1.2162  0.3352
 4297TIP3    H234383   5.233   2.086   4.862  0.8159 -0.9959  0.6918
 4298TIP3   OH234384   6.073   1.171   0.271 -0.0890 -0.7279 -0.4782
 4298TIP3    H134385   5.998   1.185   0.329  0.0273  2.9562 -0.9721
 4298TIP3    H234386   6.039   1.119   0.199 -2.0072  0.2062 -0.3103
 4299TIP3   OH234387   6.476   6.688  13.493 -0.1421  0.0246 -0.0396
 4299TIP3    H134388   6.452   6.651  13.579 -0.0477 -0.8831 -0.3901
 4299TIP3    H234389   6.549   6.633  13.463  1.6600  1.9681  0.4711
 4300TIP3   OH234390   3.262   3.682  15.932  0.6779 -0.3671 -0.3488
 4300TIP3    H134391   3.195   3.687  16.000 -0.3879 -1.0935 -1.3105
 4300TIP3    H234392   3.247   3.760  15.878  0.1699 -0.8731 -0.9465
 4301TIP3   OH234393   1.809   5.763  13.922 -0.2514 -0.0911 -0.0879
 4301TIP3    H134394   1.822   5.711  14.001  0.1420  1.4936  0.9389
 4301TIP3    H234395   1.750   5.834  13.949  0.1459  0.6576 -1.1094
 4302TIP3   OH234396   2.273   5.956   4.643 -0.4355  0.2160  0.0036
 4302TIP3    H134397   2.255   6.032   4.587 -0.9258  0.6975  0.8019
 4302TIP3    H234398   2.186   5.924   4.667 -0.3272 -1.9513 -2.0752
 4303TIP3   OH234399   3.640   2.385   5.883 -0.2537  0.3022 -0.0709
 4303TIP3    H134400   3.680   2.469   5.904  1.0267 -0.1984 -0.4067
 4303TIP3    H234401   3.638   2.338   5.967 -1.5673  0.8766  0.2505
 4304TIP3   OH234402   1.390   4.235  14.736 -0.3267  0.6204 -0.1431
 4304TIP3    H134403   1.359   4.204  14.651 -1.0422  0.5884  0.1274
 4304TIP3    H234404   1.476   4.272  14.717  0.0046 -0.3787 -0.6935
 4305TIP3   OH234405   2.506   0.563   1.489 -0.4606  0.3805  0.2132
 4305TIP3    H134406   2.573   0.611   1.440 -0.4347  0.5038  0.3696
 4305TIP3    H234407   2.424   0.606   1.465 -0.5586 -0.1770 -0.4768
 4306TIP3   OH234408   5.885   2.804   3.941 -0.7680  0.2256  0.5542
 4306TIP3    H134409   5.846   2.802   4.028  0.0263  1.5745  0.9700
 4306TIP3    H234410   5.931   2.721   3.933 -0.3687  0.3280  1.6598
 4307TIP3   OH234411   2.227   2.900  15.604 -0.2789 -0.0769  0.2970
 4307TIP3    H134412   2.272   2.976  15.567  0.5605 -0.2839  0.8441
 4307TIP3    H234413   2.215   2.841  15.529  0.2544  0.0439  0.1086
 4308TIP3   OH234414   5.856   5.311   4.907 -0.3026 -0.1349  0.2767
 4308TIP3    H134415   5.886   5.252   4.976 -0.1806  0.7704  1.0077
 4308TIP3    H234416   5.771   5.344   4.937 -0.3959  0.0204 -0.1479
 4309TIP3   OH234417   4.249   6.557  13.965  0.0467 -0.1064 -0.0838
 4309TIP3    H134418   4.316   6.594  13.907 -0.4747  0.1277 -0.5492
 4309TIP3    H234419   4.194   6.631  13.989  0.7342 -0.0478  1.4012
 4310TIP3   OH234420   2.553   1.269  14.136 -0.6727  0.0705 -0.0347
 4310TIP3    H134421   2.545   1.246  14.043 -1.8219 -1.4293  0.3879
 4310TIP3    H234422   2.476   1.229  14.177 -0.1828  0.6986  1.5716
 4311TIP3   OH234423   1.572   5.478  13.461  0.1021 -0.4354 -0.0389
 4311TIP3    H134424   1.571   5.572  13.481 -0.7334 -0.7684  1.6872
 4311TIP3    H234425   1.481   5.456  13.444  0.4707 -0.7033 -1.7620
 4312TIP3   OH234426   0.434   2.284  11.720  0.1317 -0.3795 -0.4990
 4312TIP3    H134427   0.462   2.227  11.649  1.5607  2.1285 -2.0954
 4312TIP3    H234428   0.366   2.340  11.681  0.5227  0.6479  0.2430
 4313TIP3   OH234429   3.298   2.493   0.522  0.0732  0.9745  0.6950
 4313TIP3    H134430   3.343   2.462   0.443  0.1724  1.9131  0.3726
 4313TIP3    H234431   3.219   2.440   0.527 -0.0372  1.0456 -0.1619
 4314TIP3   OH234432   4.845   0.341   1.395 -0.5352  0.4385  0.1255
 4314TIP3    H134433   4.885   0.259   1.365 -2.1736 -0.5855  0.5953
 4314TIP3    H234434   4.872   0.406   1.330  1.1453 -0.3685 -0.0293
 4315TIP3   OH234435   5.286   0.590  15.735 -0.8270 -0.1309  0.3510
 4315TIP3    H134436   5.310   0.498  15.743  0.2072  0.1753  1.0023
 4315TIP3    H234437   5.194   0.589  15.709 -1.5574 -1.3507  2.6623
 4316TIP3   OH234438   1.880   0.157  12.354 -0.1334 -0.1698  0.3750
 4316TIP3    H134439   1.942   0.216  12.395 -1.2497  1.0596  0.3612
 4316TIP3    H234440   1.860   0.092  12.421  1.0475 -0.5061  0.4171
 4317TIP3   OH234441   0.443   3.783   5.783 -0.2278  0.4624  0.6136
 4317TIP3    H134442   0.481   3.817   5.864  1.0970 -1.4881  0.8693
 4317TIP3    H234443   0.504   3.810   5.714 -0.2938  0.3781  0.5215
 4318TIP3   OH234444   1.490   1.642  11.906 -0.7518  0.3508  0.4578
 4318TIP3    H134445   1.507   1.551  11.933  1.2031  1.2789  2.7878
 4318TIP3    H234446   1.566   1.666  11.853 -0.2720  1.1487  1.4600
 4319TIP3   OH234447   4.949   3.840  15.521  0.0364 -0.7706 -0.6810
 4319TIP3    H134448   4.889   3.913  15.533  1.0622  0.1378 -0.9279
 4319TIP3    H234449   4.895   3.770  15.483 -0.6523  0.3698 -1.8887
 4320TIP3   OH234450   5.465   1.587   5.484 -0.1291  0.0914  0.0177
 4320TIP3    H134451   5.554   1.552   5.489 -0.0020  0.1858 -1.2347
 4320TIP3    H234452   5.475   1.674   5.444 -0.9503 -0.8208 -2.3569
 4321TIP3   OH234453   0.133   0.666   2.621 -0.7218  0.0199  0.6634
 4321TIP3    H134454   0.180   0.685   2.702  0.4382 -1.8684  0.5006
 4321TIP3    H234455   0.174   0.586   2.587 -2.6318 -0.4936 -0.6422
 4322TIP3   OH234456   1.954   1.131  11.296  0.3928  0.1603  0.2903
 4322TIP3    H134457   2.006   1.098  11.223 -0.3322 -1.2786  0.4000
 4322TIP3    H234458   1.942   1.224  11.276  1.9323  0.2608 -0.3545
 4323TIP3   OH234459   3.303   6.031   0.423  0.1082 -0.1273 -0.0605
 4323TIP3    H134460   3.317   6.114   0.378  1.4316 -0.3687 -0.1287
 4323TIP3    H234461   3.369   5.972   0.385 -0.8480 -1.2272 -0.0603
 4324TIP3   OH234462   6.167   2.550  12.204 -0.0430 -0.6185 -0.2179
 4324TIP3    H134463   6.142   2.480  12.265 -0.3585 -1.4168 -1.2327
 4324TIP3    H234464   6.118   2.530  12.124  2.1603 -0.9702 -1.5414
 4325TIP3   OH234465   3.224   1.002  13.332  0.3092 -0.4381 -0.0477
 4325TIP3    H134466   3.243   1.091  13.303 -1.0769 -0.2114 -0.3270
 4325TIP3    H234467   3.219   1.008  13.428 -2.2578  0.3718 -0.1525
 4326TIP3   OH234468   4.858   1.538   2.746  0.3326  0.5763 -0.6194
 4326TIP3    H134469   4.944   1.516   2.780 -0.9163 -0.6852  2.1195
 4326TIP3    H234470   4.828   1.610   2.803 -1.1821 -0.4296 -0.0629
 4327TIP3   OH234471   0.794   3.525   1.455 -0.2418 -0.0041 -0.0196
 4327TIP3    H134472   0.707   3.507   1.491 -0.7706  1.3127 -0.5832
 4327TIP3    H234473   0.838   3.439   1.455 -1.6849 -0.7794 -0.1381
 4328TIP3   OH234474   5.471   2.836   1.801  0.4903  0.4252 -0.2608
 4328TIP3    H134475   5.424   2.842   1.884 -0.6471 -0.1171 -0.8415
 4328TIP3    H234476   5.460   2.745   1.774 -1.7320  1.2306 -2.4292
 4329TIP3   OH234477   3.770   1.459  14.242 -0.1128  0.1397 -0.1198
 4329TIP3    H134478   3.816   1.455  14.326  0.1025  0.1628 -0.2366
 4329TIP3    H234479   3.833   1.499  14.182  0.1971 -1.0192 -0.6014
 4330TIP3   OH234480   4.714   4.397   3.390 -0.3280  0.2055 -0.0878
 4330TIP3    H134481   4.798   4.431   3.359 -0.0152 -1.6492 -1.4738
 4330TIP3    H234482   4.738   4.324   3.447 -1.0026  0.2781  0.2984
 4331TIP3   OH234483   2.112   1.993  11.502  0.1683 -0.0327 -0.1666
 4331TIP3    H134484   2.058   2.000  11.424  0.3254 -0.2680 -0.2964
 4331TIP3    H234485   2.191   1.947  11.473 -0.1070 -0.8276  0.2895
 4332TIP3   OH234486   0.911   2.410   1.028 -0.4488 -0.1020  0.0938
 4332TIP3    H134487   0.917   2.333   0.972 -0.9738 -0.1313  0.0676
 4332TIP3    H234488   1.001   2.434   1.046 -0.1229 -2.8342  3.0372
 4333TIP3   OH234489   4.048   5.564   0.938  0.1111  0.3094  0.0582
 4333TIP3    H134490   4.025   5.552   1.031  0.4001 -2.3242 -0.1516
 4333TIP3    H234491   4.130   5.517   0.927  0.1489  0.7020 -1.5186
 4334TIP3   OH234492   4.280   2.954   2.211  0.3997  0.3089 -0.4126
 4334TIP3    H134493   4.247   3.008   2.139 -0.8505 -1.9525 -1.6439
 4334TIP3    H234494   4.368   2.928   2.183  0.1621 -0.0469 -0.8336
 4335TIP3   OH234495   5.609   4.709  13.556  0.0049  0.0921  0.0373
 4335TIP3    H134496   5.675   4.668  13.501  0.1589  0.5715 -0.1416
 4335TIP3    H234497   5.591   4.645  13.625 -3.0172 -2.2998 -2.6436
 4336TIP3   OH234498   6.180   4.132   2.458  0.5656 -0.2098 -0.7436
 4336TIP3    H134499   6.224   4.184   2.526  0.5515 -0.4562 -0.5453
 4336TIP3    H234500   6.230   4.051   2.455  0.1951 -0.4432 -0.6010
 4337TIP3   OH234501   0.751   6.200  12.653  0.0334 -0.1784  0.1977
 4337TIP3    H134502   0.738   6.163  12.740 -1.7566 -3.5495 -1.2997
 4337TIP3    H234503   0.816   6.142  12.612  2.1470  2.3218 -0.2902
 4338TIP3   OH234504   0.952   6.242  11.894 -0.2872  0.2732  0.4343
 4338TIP3    H134505   0.859   6.220  11.899  0.3424 -2.4987  2.4137
 4338TIP3    H234506   0.969   6.291  11.975  0.0589  0.4323  0.2652
 4339TIP3   OH234507   5.426   5.436  15.676  0.3660 -0.7901 -0.3083
 4339TIP3    H134508   5.353   5.402  15.728 -0.8056  0.5579 -0.9987
 4339TIP3    H234509   5.431   5.379  15.600  1.2712 -2.0051  0.6126
 4340TIP3   OH234510   1.603   3.027   2.992  0.0034 -0.6216 -0.0074
 4340TIP3    H134511   1.698   3.043   2.987 -0.3099  3.5056  2.5996
 4340TIP3    H234512   1.592   2.970   3.068  0.3443 -0.2392  0.3345
 4341TIP3   OH234513   6.380   3.181   1.724 -0.3366  0.4686  0.1200
 4341TIP3    H134514   6.466   3.137   1.720  0.4175  1.9452 -0.8302
 4341TIP3    H234515   6.345   3.156   1.810  0.1676 -1.7143 -0.2499
 4342TIP3   OH234516   2.991   6.370  11.161 -0.1152  0.4792 -0.3347
 4342TIP3    H134517   2.975   6.324  11.078 -1.2814  1.7477 -0.8596
 4342TIP3    H234518   2.989   6.463  11.138  1.6692  0.8373  0.7798
 4343TIP3   OH234519   0.304   5.342   4.622  0.1974  0.3109  0.0028
 4343TIP3    H134520   0.332   5.301   4.540  1.9064  0.1011  0.6400
 4343TIP3    H234521   0.227   5.394   4.599 -1.1598 -2.0547 -1.1388
 4344TIP3   OH234522   1.931   4.383  13.990 -0.3344  0.4918 -0.7235
 4344TIP3    H134523   1.935   4.468  14.034  0.3311 -0.0872  0.3626
 4344TIP3    H234524   2.022   4.362  13.968 -0.0896 -1.2209  1.5848
 4345TIP3   OH234525   4.727   2.833  13.984  0.7864  0.4708  0.7509
 4345TIP3    H134526   4.704   2.838  14.077 -1.1177  1.2779  0.2728
 4345TIP3    H234527   4.647   2.806  13.940  2.2151 -2.0882 -0.4937
 4346TIP3   OH234528   1.411   1.132   3.033  0.6525 -0.3145  0.1622
 4346TIP3    H134529   1.419   1.071   3.106  1.0002 -1.2233 -0.6165
 4346TIP3    H234530   1.440   1.082   2.957 -1.5618 -0.0122 -0.9387
 4347TIP3   OH234531   0.214   3.073  13.152  0.4210 -0.4963 -0.5078
 4347TIP3    H134532   0.224   3.043  13.242  0.3450 -1.0708 -0.6835
 4347TIP3    H234533   0.295   3.046  13.109  1.5662  1.9994 -0.0366
 4348TIP3   OH234534   2.641   4.882   6.205 -0.3788  0.9993 -0.2483
 4348TIP3    H134535   2.580   4.812   6.228 -1.1041  1.3940 -0.8842
 4348TIP3    H234536   2.598   4.962   6.236  0.3512  1.1864  0.3061
 4349TIP3   OH234537   6.094   3.801  16.867 -0.3787 -0.0679  0.4977
 4349TIP3    H134538   6.045   3.762  16.940  0.4461  1.8492  2.1647
 4349TIP3    H234539   6.038   3.870  16.834 -0.6182 -0.7335 -0.5377
 4350TIP3   OH234540   0.558   5.362  14.811 -0.5590  0.5942  0.2139
 4350TIP3    H134541   0.582   5.450  14.837  1.3235 -0.0632  0.8687
 4350TIP3    H234542   0.562   5.310  14.891 -3.2344  0.1449  0.1765
 4351TIP3   OH234543   5.171   6.276  13.651 -0.7240  0.8133 -0.2315
 4351TIP3    H134544   5.098   6.336  13.663 -0.6497  1.7085 -3.3340
 4351TIP3    H234545   5.137   6.207  13.594 -0.3700 -1.3474  2.0329
 4352TIP3   OH234546   0.763   1.427   3.179 -0.2474 -0.0594 -0.2806
 4352TIP3    H134547   0.774   1.456   3.270  1.7903  1.8330 -1.0430
 4352TIP3    H234548   0.778   1.332   3.183 -0.8098 -0.1214  1.4239
 4353TIP3   OH234549   5.830   1.091   2.339 -0.0680 -0.1081 -0.3250
 4353TIP3    H134550   5.790   1.016   2.383  0.7628  0.0335  0.7278
 4353TIP3    H234551   5.922   1.067   2.329  0.2086  0.7419  0.0075
 4354TIP3   OH234552   3.984   5.126  15.195 -0.0003  0.4186 -0.0253
 4354TIP3    H134553   3.975   5.211  15.237  0.0881  1.6082 -2.2476
 4354TIP3    H234554   4.067   5.092  15.227 -1.0572  0.0687  2.6105
 4355TIP3   OH234555   4.218   5.705   0.276  0.2598 -0.1782  0.0134
 4355TIP3    H134556   4.167   5.774   0.319  0.9620  0.9816 -0.9585
 4355TIP3    H234557   4.219   5.730   0.184  0.6332 -1.4425 -0.3445
 4356TIP3   OH234558   0.880   1.335  16.681 -0.1469 -0.3677 -0.4612
 4356TIP3    H134559   0.830   1.396  16.626 -0.1318  0.6302  0.6052
 4356TIP3    H234560   0.819   1.264  16.700 -1.1476  0.7727  0.7240
 4357TIP3   OH234561   4.946   6.728  11.319 -0.0904 -0.2616 -0.3047
 4357TIP3    H134562   5.006   6.800  11.337  1.5475 -2.0963  2.2907
 4357TIP3    H234563   4.992   6.675  11.253 -0.5746  0.2069 -1.0337
 4358TIP3   OH234564   6.259   0.970  14.996 -0.1792 -0.4929  0.5312
 4358TIP3    H134565   6.185   0.912  14.977  1.2033 -1.6726 -1.6398
 4358TIP3    H234566   6.311   0.971  14.916  1.0449  2.0508  1.2272
 4359TIP3   OH234567   3.172   5.340  15.771  0.1168  0.1934  0.1818
 4359TIP3    H134568   3.213   5.393  15.703  0.3603 -0.1798  0.0328
 4359TIP3    H234569   3.202   5.380  15.853 -0.7032  1.0469  0.0848
 4360TIP3   OH234570   5.461   2.636  11.427 -0.5400  0.0614 -0.5932
 4360TIP3    H134571   5.403   2.601  11.359  0.2418 -0.7165 -0.8830
 4360TIP3    H234572   5.470   2.563  11.489  0.0410  0.2115 -0.5004
 4361TIP3   OH234573   5.963   4.601   3.192 -0.2373  0.4067  0.3707
 4361TIP3    H134574   5.904   4.530   3.169 -0.9278  1.4049 -1.1577
 4361TIP3    H234575   6.032   4.597   3.126  0.9708 -0.2332  1.6443
 4362TIP3   OH234576   3.470   6.805  12.345  0.2465  0.7376  0.5002
 4362TIP3    H134577   3.472   6.895  12.377  1.1195  2.3140 -3.3953
 4362TIP3    H234578   3.380   6.793  12.314  0.6334  1.0328 -0.7760
 4363TIP3   OH234579   1.659   0.513   3.139 -0.2617  0.8286  0.0985
 4363TIP3    H134580   1.722   0.446   3.168 -0.9832  0.3905  0.6852
 4363TIP3    H234581   1.609   0.470   3.070 -1.6921  0.2163  1.4429
 4364TIP3   OH234582   1.186   6.516   4.894  0.0276  0.0086 -0.3943
 4364TIP3    H134583   1.170   6.433   4.848  2.9251  0.4816 -2.5532
 4364TIP3    H234584   1.238   6.490   4.970 -1.4830 -0.3910  0.5338
 4365TIP3   OH234585   5.830   5.212  11.966  0.6870 -0.3247 -0.3678
 4365TIP3    H134586   5.899   5.221  11.901  1.2941 -0.6245  0.2169
 4365TIP3    H234587   5.860   5.264  12.041  0.6290 -1.0215  0.1596
 4366TIP3   OH234588   0.107   2.479  13.133  0.2287  0.1492 -0.2034
 4366TIP3    H134589   0.170   2.406  13.133  1.2109  0.9632 -0.8089
 4366TIP3    H234590   0.051   2.463  13.209  0.9144 -0.8192  0.1192
 4367TIP3   OH234591   6.032   4.783   4.679  0.1058 -0.1124  0.0020
 4367TIP3    H134592   5.940   4.759   4.693  0.5372 -0.8800  1.7355
 4367TIP3    H234593   6.064   4.717   4.617 -0.2269 -0.5037  0.2377
 4368TIP3   OH234594   0.074   6.177  13.961  0.0437  0.2298 -0.0818
 4368TIP3    H134595   0.017   6.117  13.912  0.1178 -0.7173  0.9607
 4368TIP3    H234596   0.026   6.195  14.042 -0.6552  2.7817 -0.9598
 4369TIP3   OH234597   2.946   4.266  11.515 -0.0853  0.2956  0.0230
 4369TIP3    H134598   2.865   4.279  11.464 -0.3228 -0.5750  0.1537
 4369TIP3    H234599   2.939   4.176  11.547  2.0725 -0.6984 -2.0183
 4370TIP3   OH234600   4.477   4.728  14.820  0.0577  0.0601  0.0172
 4370TIP3    H134601   4.554   4.673  14.806 -1.2009 -1.6989 -0.5313
 4370TIP3    H234602   4.497   4.810  14.776  0.7938 -1.1492 -2.1046
 4371TIP3   OH234603   5.780   5.735  10.949  0.1025  0.5332 -0.1366
 4371TIP3    H134604   5.753   5.775  10.866 -1.1215 -0.0967 -0.0553
 4371TIP3    H234605   5.768   5.641  10.935  1.0559  0.3300  0.3491
 4372TIP3   OH234606   0.753   4.455   4.901 -0.7259 -0.6159 -0.5769
 4372TIP3    H134607   0.770   4.459   4.807  0.7941  1.5713 -0.2983
 4372TIP3    H234608   0.737   4.546   4.926  0.2080 -0.9515  1.4723
 4373TIP3   OH234609   1.240   0.979   1.778  0.3249  0.2887 -0.0103
 4373TIP3    H134610   1.199   1.000   1.862  2.7749  0.3588  1.2576
 4373TIP3    H234611   1.295   1.054   1.759  2.1596 -1.0155 -0.0855
 4374TIP3   OH234612   2.421   2.612   1.667  0.5761  0.1720  0.0039
 4374TIP3    H134613   2.411   2.559   1.588  1.6322  0.5314 -0.3964
 4374TIP3    H234614   2.386   2.558   1.738 -1.0888  0.1432 -0.7942
 4375TIP3   OH234615   6.005   2.133   2.875  0.1152  0.7030 -0.3088
 4375TIP3    H134616   5.997   2.099   2.965 -1.2070 -2.0887 -1.3663
 4375TIP3    H234617   6.083   2.188   2.877  1.7876 -1.5101  1.9159
 4376TIP3   OH234618   4.140   1.038  13.426  0.3210  0.3129  0.0105
 4376TIP3    H134619   4.090   1.052  13.506  2.1995  0.9548  1.1275
 4376TIP3    H234620   4.075   1.041  13.356 -1.2302  0.7411  1.4211
 4377TIP3   OH234621   1.637   5.658  16.824 -0.0716 -0.1799  0.7508
 4377TIP3    H134622   1.584   5.650  16.903 -0.2090 -0.6484  0.6200
 4377TIP3    H234623   1.654   5.567  16.798 -3.2925 -0.2119 -1.9112
 4378TIP3   OH234624   4.503   1.252  15.503 -0.2593 -0.5371 -0.2554
 4378TIP3    H134625   4.496   1.344  15.529  2.0476 -0.0181 -1.1485
 4378TIP3    H234626   4.521   1.256  15.409  1.4404 -1.7719 -0.0249
 4379TIP3   OH234627   2.462   5.489  13.797 -0.1178 -0.1080  0.1632
 4379TIP3    H134628   2.451   5.504  13.703 -1.5759 -1.8032  0.0114
 4379TIP3    H234629   2.483   5.396  13.804  1.0458  0.2184  1.4755
 4380TIP3   OH234630   2.071   2.991   6.439 -0.0560 -0.6777 -0.1927
 4380TIP3    H134631   2.056   3.085   6.433  0.0037 -0.7163 -1.1260
 4380TIP3    H234632   2.004   2.960   6.500 -1.0979 -0.2450 -1.0677
 4381TIP3   OH234633   2.210   4.231   5.803 -0.3886  0.5769 -0.0152
 4381TIP3    H134634   2.193   4.140   5.779 -0.4811  0.4030  0.6709
 4381TIP3    H234635   2.270   4.225   5.878 -1.6245  1.0093  1.0463
 4382TIP3   OH234636   2.746   5.372   0.587  0.3979 -0.1578  0.0844
 4382TIP3    H134637   2.839   5.393   0.591  0.5203 -0.6112 -0.2851
 4382TIP3    H234638   2.741   5.295   0.531 -0.3982  1.1404 -1.7466
 4383TIP3   OH234639   5.001   5.664  15.171 -0.1792  0.1573 -0.1273
 4383TIP3    H134640   5.063   5.731  15.141  0.0187 -0.1198 -0.3428
 4383TIP3    H234641   4.936   5.712  15.222  1.4621  0.1761  2.0824
 4384TIP3   OH234642   6.635   5.004   4.312 -0.1146 -0.0861 -0.1191
 4384TIP3    H134643   6.645   4.972   4.222 -1.8911 -1.3660  0.0692
 4384TIP3    H234644   6.657   5.097   4.307 -0.6067 -0.0193 -1.9835
 4385TIP3   OH234645   3.816   2.115  11.946  0.7256  0.1581  0.2811
 4385TIP3    H134646   3.862   2.195  11.923  2.1858 -0.1580  1.8579
 4385TIP3    H234647   3.874   2.045  11.917  0.5553 -0.2725  0.9425
 4386TIP3   OH234648   5.560   4.144  16.753 -0.1148 -0.4446 -0.3955
 4386TIP3    H134649   5.633   4.177  16.701  0.0451 -0.7369 -0.3580
 4386TIP3    H234650   5.503   4.220  16.766  0.2262 -0.1988 -0.3510
 4387TIP3   OH234651   6.639   5.216  11.653 -0.5049 -0.1061  0.0593
 4387TIP3    H134652   6.588   5.143  11.619  0.4152  0.1731 -2.0852
 4387TIP3    H234653   6.600   5.293  11.611  1.2419  0.1664 -1.1644
 4388TIP3   OH234654   1.782   4.237  11.764  0.7248 -0.0426  0.0717
 4388TIP3    H134655   1.774   4.167  11.699  1.0614 -0.4493  0.4552
 4388TIP3    H234656   1.739   4.312  11.724  0.4303 -0.4455 -0.3848
 4389TIP3   OH234657   2.098   1.839  14.747 -0.1636 -0.2895 -0.2329
 4389TIP3    H134658   2.033   1.772  14.769  0.1772  0.3191  3.2206
 4389TIP3    H234659   2.178   1.790  14.726 -1.2601 -0.9977 -3.3538
 4390TIP3   OH234660   6.682   5.370   3.828 -0.5470  0.1139 -0.0081
 4390TIP3    H134661   6.590   5.386   3.850 -0.5326  0.3858 -0.1458
 4390TIP3    H234662   6.725   5.455   3.838 -0.5295  0.2375 -1.0193
 4391TIP3   OH234663   3.054   5.271  14.150  0.1187 -0.2419 -0.1651
 4391TIP3    H134664   3.074   5.365  14.154  1.4097 -0.4867 -0.3068
 4391TIP3    H234665   2.993   5.262  14.077  0.0371  0.4756 -0.1907
 4392TIP3   OH234666   3.119   5.080   0.443 -0.2630 -0.9264  0.0076
 4392TIP3    H134667   3.133   5.053   0.534 -0.3393 -0.1889  0.2487
 4392TIP3    H234668   3.178   5.025   0.392  1.3513  0.0774  0.7091
 4393TIP3   OH234669   2.513   1.039  11.837 -0.1251 -0.1382  0.7160
 4393TIP3    H134670   2.570   0.970  11.802  1.1600 -0.2460  2.8945
 4393TIP3    H234671   2.517   1.028  11.932 -0.9327  2.1291  1.0652
 4394TIP3   OH234672   1.690   4.267  13.919  0.3139 -0.0267 -0.1397
 4394TIP3    H134673   1.675   4.173  13.924 -2.4616  0.2412 -1.3486
 4394TIP3    H234674   1.779   4.279  13.951  0.2798 -2.8858  1.3906
 4395TIP3   OH234675   0.707   6.468  12.614 -0.2481  0.3528  0.2169
 4395TIP3    H134676   0.753   6.471  12.698 -0.9287 -0.6046  0.6533
 4395TIP3    H234677   0.699   6.375  12.595  0.3135  0.5672 -1.1677
 4396TIP3   OH234678   2.046   0.319  13.321  0.2256 -0.6663  0.0408
 4396TIP3    H134679   2.021   0.391  13.379  1.8714  1.2520 -1.4850
 4396TIP3    H234680   2.138   0.335  13.301  0.1866 -2.2845 -1.6726
 4397TIP3   OH234681   5.674   3.901  13.998  0.2439 -0.5995 -0.2323
 4397TIP3    H134682   5.661   3.905  14.092  1.6771  2.7855 -0.0367
 4397TIP3    H234683   5.736   3.829  13.985 -0.3391 -1.4113  1.3344
 4398TIP3   OH234684   5.117   1.747  11.456  0.0424 -0.2374  0.1974
 4398TIP3    H134685   5.179   1.793  11.513  0.3492 -1.1368  0.6053
 4398TIP3    H234686   5.034   1.791  11.471  0.1832 -0.2657  1.1143
 4399TIP3   OH234687   4.404   5.614   5.998 -0.3541  0.1277  0.0113
 4399TIP3    H134688   4.366   5.696   6.031 -0.4961  0.5357 -1.1037
 4399TIP3    H234689   4.371   5.547   6.057 -1.2244  0.7348  0.2424
 4400TIP3   OH234690   6.333   2.483   1.586 -0.1098 -0.1221 -0.3405
 4400TIP3    H134691   6.280   2.520   1.657  0.7093 -0.6745  0.5813
 4400TIP3    H234692   6.420   2.521   1.599  0.4553 -1.4745 -0.0707
 4401TIP3   OH234693   1.152   6.398   0.889  0.1666  0.2556  0.5645
 4401TIP3    H134694   1.180   6.424   0.976  0.5191 -2.2741  1.3005
 4401TIP3    H234695   1.189   6.310   0.877 -3.9318 -1.6284 -0.0501
 4402TIP3   OH234696   4.813   5.396  11.122 -0.3953  0.1907  0.4378
 4402TIP3    H134697   4.725   5.410  11.088 -0.3565  0.5057  0.4643
 4402TIP3    H234698   4.801   5.383  11.216 -0.7369 -2.9034  0.0423
 4403TIP3   OH234699   5.291   2.553   6.340  0.0371 -0.4863 -0.2684
 4403TIP3    H134700   5.325   2.464   6.349 -0.8941 -0.7994  0.3417
 4403TIP3    H234701   5.257   2.575   6.427  0.0444  0.3828 -0.4693
 4404TIP3   OH234702   4.487   3.072  15.759  0.0004  0.1674  0.9937
 4404TIP3    H134703   4.546   3.002  15.729 -2.3038 -0.7009 -1.9887
 4404TIP3    H234704   4.435   3.031  15.828 -0.9096 -0.9878 -0.3050
 4405TIP3   OH234705   2.419   6.627   2.120 -0.1210 -0.0492  0.1788
 4405TIP3    H134706   2.485   6.677   2.167 -0.5568  0.1902  0.5396
 4405TIP3    H234707   2.351   6.690   2.099 -1.6595 -0.8200  2.4126
 4406TIP3   OH234708   3.619   0.274   2.814 -0.4925  0.4826 -0.1915
 4406TIP3    H134709   3.688   0.234   2.761 -1.5345 -1.4451 -0.1789
 4406TIP3    H234710   3.608   0.215   2.888 -2.5634  0.3788 -0.5192
 4407TIP3   OH234711   6.568   5.133  12.248  0.3004  0.0803 -0.0051
 4407TIP3    H134712   6.547   5.185  12.325 -0.1348 -0.0714 -0.0176
 4407TIP3    H234713   6.502   5.064  12.247  0.8926 -0.5006  0.0383
 4408TIP3   OH234714   2.711   4.869   4.325 -0.2392 -0.0156 -0.1851
 4408TIP3    H134715   2.646   4.936   4.306 -0.6907 -0.6093 -0.8019
 4408TIP3    H234716   2.761   4.903   4.399  0.0910  1.3813 -1.0100
 4409TIP3   OH234717   6.652   4.166   3.756  0.5579 -0.0412  0.8337
 4409TIP3    H134718   6.669   4.074   3.738 -0.3393 -0.3477  1.4962
 4409TIP3    H234719   6.656   4.208   3.670 -2.4234 -1.2527 -0.0066
 4410TIP3   OH234720   6.017   2.412  13.589  0.5963 -0.0822  0.8265
 4410TIP3    H134721   5.957   2.357  13.640  1.7274 -2.1205  0.0688
 4410TIP3    H234722   5.963   2.446  13.517 -0.2416  0.2763  1.5970
 4411TIP3   OH234723   4.499   3.775   3.960 -0.2297  0.0416 -0.1611
 4411TIP3    H134724   4.536   3.861   3.939  3.6261 -1.4630 -0.3013
 4411TIP3    H234725   4.488   3.733   3.875  0.3339 -0.4749  0.0169
 4412TIP3   OH234726   2.246   5.170  11.183 -0.2653 -0.4207 -0.3598
 4412TIP3    H134727   2.183   5.113  11.138 -0.5497 -0.0286 -0.4639
 4412TIP3    H234728   2.213   5.175  11.273  0.5825 -1.6133  0.0430
 4413TIP3   OH234729   4.475   6.759   4.790 -0.1560  0.6544  0.5350
 4413TIP3    H134730   4.546   6.701   4.762 -0.2640  0.5165  0.5482
 4413TIP3    H234731   4.403   6.700   4.813 -0.7510  0.8426 -0.7651
 4414TIP3   OH234732   5.831   2.047  14.374  0.6712 -0.0224  0.3296
 4414TIP3    H134733   5.781   1.974  14.337  0.6417  0.1398  0.0472
 4414TIP3    H234734   5.891   2.072  14.304  2.0649 -1.0655  1.1099
 4415TIP3   OH234735   3.209   2.005  14.422 -0.1324 -0.3394 -0.0606
 4415TIP3    H134736   3.201   1.911  14.405 -1.8366  0.0121 -1.4029
 4415TIP3    H234737   3.265   2.010  14.500 -1.4230 -2.5463  1.1000
 4416TIP3   OH234738   3.945   3.097   5.746 -0.3508  0.3963 -0.3081
 4416TIP3    H134739   3.954   3.192   5.751 -1.5567  0.5352 -0.4652
 4416TIP3    H234740   3.889   3.075   5.821  0.0912 -0.2237 -0.1504
 4417TIP3   OH234741   0.414   1.945   5.661  0.2130 -0.0412 -0.2649
 4417TIP3    H134742   0.354   2.012   5.696  0.3436 -0.0447 -0.0283
 4417TIP3    H234743   0.375   1.919   5.578  0.0756  0.2171 -0.2843
 4418TIP3   OH234744   6.574   3.892   3.925  0.3873  0.3117  0.0121
 4418TIP3    H134745   6.591   3.893   3.831  1.0321  1.5321  0.1211
 4418TIP3    H234746   6.482   3.918   3.933  0.1031 -0.5561 -0.3020
 4419TIP3   OH234747   2.723   4.009  12.750 -0.0151  0.1633 -0.0636
 4419TIP3    H134748   2.719   3.915  12.733  1.0245 -0.0459  0.7325
 4419TIP3    H234749   2.814   4.025  12.775  0.0848  1.5717 -1.1856
 4420TIP3   OH234750   3.079   2.335   3.505 -0.0176 -0.8522  0.0685
 4420TIP3    H134751   3.098   2.242   3.517 -1.0984 -1.0188  0.6802
 4420TIP3    H234752   3.029   2.359   3.584  2.1080  0.7907  1.0175
 4421TIP3   OH234753   6.572   2.157   2.929 -0.1514 -0.5739  0.0393
 4421TIP3    H134754   6.534   2.195   3.008 -0.2884 -0.7010  0.0344
 4421TIP3    H234755   6.512   2.087   2.904 -0.0186 -0.6467 -0.0804
 4422TIP3   OH234756   1.746   6.294  14.216 -0.3025 -0.1295 -0.6382
 4422TIP3    H134757   1.800   6.356  14.168  0.0398 -0.3401 -0.5306
 4422TIP3    H234758   1.658   6.331  14.214  0.2484  1.4202  1.1764
 4423TIP3   OH234759   4.045   5.422  16.531 -0.4402 -0.5249  0.2143
 4423TIP3    H134760   4.005   5.362  16.594 -0.3915 -0.4977  0.2710
 4423TIP3    H234761   4.133   5.387  16.518  0.3784  0.7587  1.9123
 4424TIP3   OH234762   5.993   2.022  12.794 -0.0895  0.7627 -0.1311
 4424TIP3    H134763   6.054   2.050  12.725 -0.7716  0.7060 -0.7715
 4424TIP3    H234764   5.925   2.089  12.794 -1.2395 -0.3662 -1.0259
 4425TIP3   OH234765   0.900   1.425  15.344 -0.8869 -0.3448  0.8461
 4425TIP3    H134766   0.883   1.331  15.347 -1.5404 -0.2727 -0.3755
 4425TIP3    H234767   0.995   1.432  15.353 -0.7344 -1.1756  0.0058
 4426TIP3   OH234768   6.702   1.853   3.114 -0.7740  0.3913  0.4563
 4426TIP3    H134769   6.797   1.849   3.111 -0.7836 -0.3662  0.7420
 4426TIP3    H234770   6.680   1.842   3.207 -1.1742 -1.2917  0.2064
 4427TIP3   OH234771   5.127   2.493  15.417  0.0630 -0.0592 -0.5194
 4427TIP3    H134772   5.042   2.536  15.405 -0.5520 -1.1717 -0.3183
 4427TIP3    H234773   5.164   2.489  15.329  0.9213  2.3666 -0.3455
 4428TIP3   OH234774   3.010   5.997  16.630  0.1902  0.3705 -0.0884
 4428TIP3    H134775   2.961   5.916  16.642 -1.1981  1.2007  0.1059
 4428TIP3    H234776   3.086   5.989  16.687 -0.4650 -0.3605  0.6961
 4429TIP3   OH234777   6.387   6.084  15.247  0.0938  0.2914 -0.8186
 4429TIP3    H134778   6.472   6.114  15.281 -0.3297 -0.4414  1.0006
 4429TIP3    H234779   6.383   6.121  15.159  1.9209  1.0687 -0.6376
 4430TIP3   OH234780   1.070   3.776   4.533  0.1996  0.3548 -0.0478
 4430TIP3    H134781   1.076   3.770   4.438  0.3297 -0.0715 -0.0158
 4430TIP3    H234782   0.991   3.828   4.549  0.1800  0.4341 -0.3871
 4431TIP3   OH234783   1.831   5.582  14.182 -0.0976  0.4546 -0.0436
 4431TIP3    H134784   1.744   5.619  14.195 -0.5780 -0.9121  0.8231
 4431TIP3    H234785   1.815   5.496  14.144  0.8050 -0.2449  1.1013
 4432TIP3   OH234786   4.153   6.397  17.220 -0.1733 -0.0905  0.1586
 4432TIP3    H134787   4.099   6.472  17.244  0.2215 -0.4299  2.2600
 4432TIP3    H234788   4.124   6.326  17.277 -0.3692 -1.5124 -1.6117
 4433TIP3   OH234789   3.873   5.764  16.046 -0.0142 -0.0178 -0.1075
 4433TIP3    H134790   3.827   5.814  16.114 -0.2598  0.2155 -0.4433
 4433TIP3    H234791   3.938   5.713  16.094 -0.8596 -0.6365  0.4260
 4434TIP3   OH234792   0.611   0.213  15.829  0.2966 -0.1913 -0.1616
 4434TIP3    H134793   0.613   0.220  15.734  0.6965  0.5185 -0.1042
 4434TIP3    H234794   0.518   0.223  15.852  0.1604 -0.6843 -0.4971
 4435TIP3   OH234795   2.447   2.361   3.722 -0.1866 -0.2561 -0.3391
 4435TIP3    H134796   2.421   2.336   3.634 -0.0091  0.0667 -0.4855
 4435TIP3    H234797   2.443   2.457   3.723 -2.1076 -0.2933  0.6076
 4436TIP3   OH234798   6.001   0.070   4.070 -0.2514 -0.3526  0.2155
 4436TIP3    H134799   5.969   0.013   4.000  0.0110  0.3133 -0.4622
 4436TIP3    H234800   6.081   0.028   4.101 -0.2285 -0.5167 -0.0651
 4437TIP3   OH234801   5.061   6.540   5.426  0.0076 -0.5308 -1.0381
 4437TIP3    H134802   5.030   6.462   5.380  0.2548 -0.5215 -1.2224
 4437TIP3    H234803   5.145   6.514   5.463  0.2411 -0.2535 -1.3699
 4438TIP3   OH234804   0.264   3.118   4.360 -0.1831  0.7493 -0.0031
 4438TIP3    H134805   0.193   3.071   4.403  1.3590 -1.4342  0.3648
 4438TIP3    H234806   0.284   3.065   4.283  2.4647 -0.0490  1.1064
 4439TIP3   OH234807   0.533   3.188   3.608  0.4842  0.5890 -0.2416
 4439TIP3    H134808   0.556   3.219   3.696  0.0621 -1.4141  0.6346
 4439TIP3    H234809   0.591   3.237   3.550  1.5233  1.2204  1.2434
 4440TIP3   OH234810   4.264   0.628  15.780 -0.2772  0.6047 -0.1321
 4440TIP3    H134811   4.329   0.677  15.830  0.5371  0.2184 -0.7818
 4440TIP3    H234812   4.180   0.655  15.817  0.1978  1.7715  0.1380
 4441TIP3   OH234813   4.613   3.288  14.287 -0.2038 -0.1780 -0.0912
 4441TIP3    H134814   4.535   3.296  14.231  0.7667 -1.1142 -1.6702
 4441TIP3    H234815   4.642   3.378  14.300  0.2701  0.0543 -2.2726
 4442TIP3   OH234816   1.249   5.347   1.776  0.4603 -0.1117 -0.3092
 4442TIP3    H134817   1.294   5.282   1.829 -0.4087 -0.3996  0.0896
 4442TIP3    H234818   1.157   5.320   1.776  0.1402  0.9087 -0.4261
 4443TIP3   OH234819   4.109   2.310  12.331  0.2666 -0.2766  0.0302
 4443TIP3    H134820   4.070   2.344  12.411 -0.1094 -0.7216  0.0446
 4443TIP3    H234821   4.056   2.233  12.310 -0.9126  0.9302 -1.7155
 4444TIP3   OH234822   6.350   5.473   4.163  0.2044 -0.0825 -0.2718
 4444TIP3    H134823   6.358   5.565   4.139 -1.0009  0.5236  1.4633
 4444TIP3    H234824   6.413   5.428   4.107  1.2284  1.8605 -0.7589
 4445TIP3   OH234825   2.726   0.950   5.806 -0.0611 -0.3209 -0.1769
 4445TIP3    H134826   2.815   0.982   5.816 -0.3031  0.3593 -0.1433
 4445TIP3    H234827   2.691   0.947   5.896 -0.0184 -0.7734 -0.1682
 4446TIP3   OH234828   2.208   0.854   3.655  0.0917  0.3322 -0.2018
 4446TIP3    H134829   2.240   0.776   3.700 -0.1340  0.8182  0.8183
 4446TIP3    H234830   2.275   0.873   3.590  0.2049 -0.6368 -0.3883
 4447TIP3   OH234831   4.396   5.906  13.771  0.1465  0.7119 -0.1188
 4447TIP3    H134832   4.484   5.925  13.804 -0.0794 -0.1577  1.0627
 4447TIP3    H234833   4.410   5.872  13.683  1.0623 -0.0341  0.2975
 4448TIP3   OH234834   1.118   0.910  16.891  0.5756  0.3319  0.5271
 4448TIP3    H134835   1.094   0.925  16.983  0.1614  0.5990  0.3794
 4448TIP3    H234836   1.145   0.818  16.888  1.1523  0.4815  1.0333
 4449TIP3   OH234837   3.219   2.684  15.182  0.2033  0.3733  0.7917
 4449TIP3    H134838   3.295   2.738  15.161  0.0878  0.7425  1.3106
 4449TIP3    H234839   3.206   2.696  15.276  0.2085 -0.6064  0.9221
 4450TIP3   OH234840   5.345   5.874   0.616 -0.2645  0.1943 -0.2465
 4450TIP3    H134841   5.283   5.914   0.555 -0.1697  0.1153 -0.3961
 4450TIP3    H234842   5.309   5.787   0.634 -0.9724  0.6934  0.8292
 4451TIP3   OH234843   5.566   3.868   4.307  0.0214 -0.4149 -0.0349
 4451TIP3    H134844   5.600   3.873   4.218  1.3598 -2.8074  0.2556
 4451TIP3    H234845   5.473   3.846   4.296 -0.5593  2.1065 -0.7944
 4452TIP3   OH234846   5.178   6.111  12.645  0.1933 -0.5756 -0.4582
 4452TIP3    H134847   5.202   6.019  12.636  1.0867 -0.4529  0.5170
 4452TIP3    H234848   5.258   6.154  12.675  0.0530  0.6934 -1.7954
 4453TIP3   OH234849   1.832   2.706  14.683  0.4124 -0.5545  0.1561
 4453TIP3    H134850   1.889   2.726  14.609 -1.7241  0.2670 -1.3650
 4453TIP3    H234851   1.774   2.782  14.689 -2.0332 -2.3014  0.1065
 4454TIP3   OH234852   3.575   2.695  13.664  0.0781  0.2285  0.1748
 4454TIP3    H134853   3.526   2.648  13.731 -0.2700  0.5624  0.1568
 4454TIP3    H234854   3.553   2.787  13.678  0.0053  0.3008 -0.3843
 4455TIP3   OH234855   2.972   6.246  15.506 -0.2530  0.4008  0.5579
 4455TIP3    H134856   2.967   6.334  15.468 -3.9677  0.2453  0.3004
 4455TIP3    H234857   2.918   6.192  15.448 -1.4933 -1.0810  2.9319
 4456TIP3   OH234858   1.523   4.579   0.310  0.0277  0.3908 -0.1245
 4456TIP3    H134859   1.508   4.497   0.264  0.7515  0.1674  0.0266
 4456TIP3    H234860   1.612   4.604   0.287 -0.2668  1.2698 -0.3722
 4457TIP3   OH234861   1.384   2.544   4.546 -0.3553 -0.0207  0.1799
 4457TIP3    H134862   1.377   2.452   4.521 -0.2852 -0.3535  1.3392
 4457TIP3    H234863   1.294   2.570   4.567 -0.0935 -0.4880  2.0414
 4458TIP3   OH234864   3.773   3.108   1.236  0.2205 -0.0606 -0.0858
 4458TIP3    H134865   3.751   3.142   1.322  0.9710 -0.5981  0.3262
 4458TIP3    H234866   3.801   3.018   1.252 -0.1556 -0.3464 -0.9616
 4459TIP3   OH234867   5.694   4.241   6.008 -0.4848 -0.1814  0.0267
 4459TIP3    H134868   5.701   4.331   6.039 -0.8444 -0.2369  0.2881
 4459TIP3    H234869   5.684   4.249   5.913  1.7845 -0.0645 -0.2498
 4460TIP3   OH234870   3.495   6.231   1.525  0.1836 -0.1480 -0.1774
 4460TIP3    H134871   3.548   6.296   1.570 -0.0367 -0.4272  0.4889
 4460TIP3    H234872   3.537   6.221   1.440  0.6794  0.2790  0.0134
 4461TIP3   OH234873   0.004   3.446  14.940  0.0305 -0.3287 -0.0581
 4461TIP3    H134874   0.055   3.512  14.893 -0.9100 -0.4329 -1.2915
 4461TIP3    H234875   0.005   3.370  14.882 -0.3915 -0.7823  0.5228
 4462TIP3   OH234876   2.270   5.697   6.244 -0.2769 -0.2007  0.4268
 4462TIP3    H134877   2.311   5.734   6.322  1.4919 -2.1195  0.4824
 4462TIP3    H234878   2.210   5.630   6.278  0.5585 -1.0972  0.1617
 4463TIP3   OH234879   2.620   6.651   4.782 -0.1513  0.1292  0.1288
 4463TIP3    H134880   2.704   6.658   4.828 -0.4496 -1.7459  1.0382
 4463TIP3    H234881   2.644   6.636   4.691  0.6002 -2.2204  0.6382
 4464TIP3   OH234882   2.599   1.233   2.279  0.1135 -0.0037 -0.5098
 4464TIP3    H134883   2.610   1.151   2.231 -1.9499  0.5422 -2.0798
 4464TIP3    H234884   2.507   1.232   2.306  0.5223  0.9968  1.0255
 4465TIP3   OH234885   0.169   4.128   3.537 -0.3251  0.9233 -0.0994
 4465TIP3    H134886   0.222   4.203   3.565  1.7207 -0.3870 -0.2210
 4465TIP3    H234887   0.141   4.086   3.619  0.8842  0.2806  0.0045
 4466TIP3   OH234888   1.802   6.384  10.722  0.4999 -0.3129  0.6868
 4466TIP3    H134889   1.792   6.360  10.814  0.6586  0.0675  0.8034
 4466TIP3    H234890   1.896   6.397  10.710  0.3902  0.5522  0.7027
 4467TIP3   OH234891   1.512   0.109  13.850 -0.0946  0.6704 -0.2782
 4467TIP3    H134892   1.419   0.119  13.827 -0.7756  0.1751  1.9543
 4467TIP3    H234893   1.521   0.158  13.931  2.1136  2.3127 -1.4399
 4468TIP3   OH234894   2.582   6.614  11.962  0.0767  0.4943  0.3731
 4468TIP3    H134895   2.630   6.576  11.888  0.0573 -0.1862  0.6997
 4468TIP3    H234896   2.636   6.687  11.991  0.5114  0.2399  0.2185
 4469TIP3   OH234897   2.290   1.765   4.144  0.6954 -0.1419 -0.0198
 4469TIP3    H134898   2.314   1.692   4.087  0.3829  0.6655 -1.2277
 4469TIP3    H234899   2.208   1.798   4.108 -0.8995 -1.1736  2.4280
 4470TIP3   OH234900   0.076   1.686  13.153  0.2412 -0.1403  0.2222
 4470TIP3    H134901   0.132   1.716  13.225  0.7732  0.9035 -0.6060
 4470TIP3    H234902   0.137   1.654  13.086 -0.0447  2.0056 -1.1345
 4471TIP3   OH234903   1.823   6.678  14.117 -0.1555  0.1988  0.1427
 4471TIP3    H134904   1.787   6.751  14.066  1.7343  0.9966 -0.1361
 4471TIP3    H234905   1.809   6.704  14.208 -0.4808  0.3954  0.0375
 4472TIP3   OH234906   0.294   4.897   5.340  0.0791 -0.2147  0.6027
 4472TIP3    H134907   0.205   4.916   5.307  0.2381 -0.8705 -0.2243
 4472TIP3    H234908   0.293   4.804   5.360  0.5382 -0.1866  0.7593
 4473TIP3   OH234909   5.562   2.026   1.494  0.3105  0.1905 -0.4770
 4473TIP3    H134910   5.638   2.039   1.437 -0.0775  1.0517 -0.8029
 4473TIP3    H234911   5.545   1.932   1.488  1.2688  0.0018 -0.4931
 4474TIP3   OH234912   5.173   4.198   1.369  0.5198 -0.0461 -0.2192
 4474TIP3    H134913   5.177   4.294   1.365 -1.2297  0.0465 -0.8663
 4474TIP3    H234914   5.196   4.177   1.460 -1.5669  1.2258  0.6877
 4475TIP3   OH234915   1.405   4.892   6.303  0.3425  0.0263  0.2556
 4475TIP3    H134916   1.457   4.968   6.280  1.1846 -0.5735  0.1212
 4475TIP3    H234917   1.372   4.859   6.219  0.0895  0.1618  0.3005
 4476TIP3   OH234918   0.295   4.096  10.807 -0.5859 -0.2840  0.7342
 4476TIP3    H134919   0.286   4.046  10.726  0.1438  0.3156  0.2667
 4476TIP3    H234920   0.389   4.116  10.813 -0.1231 -2.4923  3.0595
 4477TIP3   OH234921   5.204   5.605  11.007 -0.3136  0.3642  0.2864
 4477TIP3    H134922   5.287   5.624  11.051  0.2110 -0.2737 -0.3941
 4477TIP3    H234923   5.215   5.639  10.919 -0.4568 -0.4713 -0.0626
 4478TIP3   OH234924   4.260   5.547  16.324 -0.0738 -0.4757 -0.0106
 4478TIP3    H134925   4.319   5.523  16.252  2.3955  0.5313  1.5370
 4478TIP3    H234926   4.318   5.585  16.391 -2.6304  1.7178  1.1654
 4479TIP3   OH234927   3.141   6.525   2.959 -0.1176 -0.0496 -0.4815
 4479TIP3    H134928   3.106   6.588   3.022  0.0527 -0.5683  0.1467
 4479TIP3    H234929   3.229   6.558   2.939  0.0348 -0.1725 -0.0254
 4480TIP3   OH234930   2.713   4.748  12.245  0.1928 -0.3131 -0.5515
 4480TIP3    H134931   2.704   4.670  12.190 -1.2782 -0.1598 -0.5748
 4480TIP3    H234932   2.636   4.746  12.301 -0.8405  2.0332 -1.7510
 4481TIP3   OH234933   6.327   1.857  14.075  0.6724  0.0390 -0.3867
 4481TIP3    H134934   6.247   1.885  14.120  1.1133  0.3500  0.2136
 4481TIP3    H234935   6.296   1.809  13.998 -0.0940 -0.3326  0.1425
 4482TIP3   OH234936   0.787   1.701   2.708 -0.0075 -0.3421  0.0405
 4482TIP3    H134937   0.829   1.764   2.767  0.5248  0.2949 -0.9852
 4482TIP3    H234938   0.852   1.633   2.695  0.2481  0.0043 -0.5492
 4483TIP3   OH234939   3.644   4.661  12.432 -0.1181  0.2035 -0.7311
 4483TIP3    H134940   3.703   4.590  12.456 -0.3540 -0.1908 -1.2623
 4483TIP3    H234941   3.701   4.734  12.409  0.1076  0.8235  1.5753
 4484TIP3   OH234942   0.849   2.948  16.994  0.3649 -0.0495  0.6657
 4484TIP3    H134943   0.827   3.031  16.952 -2.1419 -0.7352  0.4511
 4484TIP3    H234944   0.901   2.973  17.071  0.5300  1.6198  0.0588
 4485TIP3   OH234945   3.238   2.148   1.785 -0.5875 -0.1460 -0.4666
 4485TIP3    H134946   3.321   2.100   1.786 -1.4212 -1.6695 -1.1287
 4485TIP3    H234947   3.247   2.211   1.857 -0.3295 -2.9361  2.1751
 4486TIP3   OH234948   4.569   2.725  16.383  0.4250 -0.3177  0.2041
 4486TIP3    H134949   4.621   2.646  16.367 -0.9507 -1.7063  2.2057
 4486TIP3    H234950   4.528   2.745  16.298  1.8388 -0.9058 -0.6578
 4487TIP3   OH234951   1.372   6.710  12.302 -0.4129 -0.3938  0.4039
 4487TIP3    H134952   1.412   6.739  12.220 -1.4248  1.1436  0.4026
 4487TIP3    H234953   1.285   6.750  12.301 -1.5604 -2.6795  0.9147
 4488TIP3   OH234954   0.396   3.665  10.790 -0.4763 -0.1379 -0.2878
 4488TIP3    H134955   0.441   3.603  10.732  1.6202  2.0427 -1.1213
 4488TIP3    H234956   0.333   3.709  10.732 -0.0047  0.4352 -0.3664
 4489TIP3   OH234957   5.095   1.728  12.112 -0.7172  0.0232 -0.7840
 4489TIP3    H134958   5.054   1.805  12.073  0.9197  0.7560 -1.1419
 4489TIP3    H234959   5.184   1.756  12.134 -0.1574 -1.6817 -0.6728
 4490TIP3   OH234960   0.415   2.436  12.610 -0.5408 -0.2377 -0.7091
 4490TIP3    H134961   0.440   2.356  12.656  0.4572  0.9259  0.8682
 4490TIP3    H234962   0.477   2.441  12.537 -0.3710 -0.7018 -0.6032
 4491TIP3   OH234963   2.031   2.214  10.822 -0.0502  0.5605  0.2226
 4491TIP3    H134964   2.109   2.243  10.775 -0.3645  0.2906 -0.4853
 4491TIP3    H234965   2.046   2.242  10.912  0.4806  1.2666 -0.0673
 4492TIP3   OH234966   1.955   1.694   1.247  0.5451 -0.0923  0.2849
 4492TIP3    H134967   2.034   1.749   1.255 -0.6823  1.5903  1.5181
 4492TIP3    H234968   1.953   1.644   1.328 -0.2208  0.7285  0.8000
 4493TIP3   OH234969   1.453   2.128   2.806 -0.1172 -0.0592 -0.5731
 4493TIP3    H134970   1.379   2.067   2.802  0.1319 -0.4295  0.2176
 4493TIP3    H234971   1.495   2.108   2.890  0.1139  1.0264 -0.4156
 4494TIP3   OH234972   4.023   1.852  13.117 -0.0521 -0.4261  1.0700
 4494TIP3    H134973   3.974   1.932  13.137 -0.6902 -0.9502  1.6437
 4494TIP3    H234974   4.024   1.803  13.199 -1.1097 -1.7708  0.3189
 4495TIP3   OH234975   2.589   5.564  12.742 -0.0414 -0.8151  0.4547
 4495TIP3    H134976   2.594   5.576  12.837  1.2400 -0.8598  0.4112
 4495TIP3    H234977   2.518   5.622  12.714  0.3331  0.0892  1.3103
 4496TIP3   OH234978   2.257   2.511   5.626  0.0212  0.3078  0.2188
 4496TIP3    H134979   2.243   2.532   5.533 -2.0687  1.6994  0.7717
 4496TIP3    H234980   2.327   2.570   5.654  0.5817 -0.0333 -0.4339
 4497TIP3   OH234981   5.717   2.705  12.295  0.0176  0.2379 -0.0708
 4497TIP3    H134982   5.694   2.622  12.253  0.3159  0.4067 -0.5852
 4497TIP3    H234983   5.777   2.681  12.365  0.9776  0.0986 -0.9068
 4498TIP3   OH234984   3.336   0.665   5.995 -0.0089  0.4116 -0.0784
 4498TIP3    H134985   3.276   0.647   6.068  1.5774 -0.2308  1.1165
 4498TIP3    H234986   3.338   0.760   5.989  0.0127  0.4852  0.8850
 4499TIP3   OH234987   4.565   4.137  10.794  0.2308  0.3804 -0.4205
 4499TIP3    H134988   4.567   4.229  10.767 -0.6663  0.3821 -0.5290
 4499TIP3    H234989   4.497   4.098  10.739 -0.1379 -0.1047  0.3678
 4500TIP3   OH234990   4.213   3.430   3.950  0.0136 -0.2474  0.3577
 4500TIP3    H134991   4.268   3.353   3.961  0.4538 -0.2701 -1.5993
 4500TIP3    H234992   4.196   3.461   4.039  4.6165  0.7694  1.1712
 4501TIP3   OH234993   0.599   2.822  12.605  0.1768  0.2723  0.1620
 4501TIP3    H134994   0.514   2.785  12.582  0.9428 -1.9150  0.5694
 4501TIP3    H234995   0.590   2.916  12.589 -1.6130 -0.1611 -1.9148
 4502TIP3   OH234996   2.648   1.044   1.654 -0.0836  0.2801  0.3747
 4502TIP3    H134997   2.572   1.078   1.701  0.2284 -1.1627  2.0418
 4502TIP3    H234998   2.655   0.953   1.682  1.8357  0.1698 -0.2901
 4503TIP3   OH234999   6.120   6.176  14.547  0.3025 -0.0169  0.1784
 4503TIP3    H135000   6.025   6.166  14.552  0.3612 -0.4978  0.4506
 4503TIP3    H235001   6.154   6.105  14.603  0.8027  0.5813  0.6464
 4504TIP3   OH235002   0.409   0.996   5.407  0.2014  0.0167 -0.4845
 4504TIP3    H135003   0.497   0.960   5.418  0.4042  0.6064 -0.1394
 4504TIP3    H235004   0.350   0.924   5.431  0.5957 -0.1925 -0.1350
 4505TIP3   OH235005   0.144   5.551   5.625 -0.4258  0.2163 -0.1917
 4505TIP3    H135006   0.236   5.527   5.631 -0.4843 -0.8430 -2.5133
 4505TIP3    H235007   0.135   5.594   5.540 -2.1358 -0.1020 -0.2196
 4506TIP3   OH235008   5.760   4.720  15.401  0.1442 -0.0208  0.2454
 4506TIP3    H135009   5.799   4.651  15.455  0.7243  0.3326  0.2854
 4506TIP3    H235010   5.702   4.673  15.340  0.9531 -0.5955 -0.0973
 4507TIP3   OH235011   3.162   2.837   3.024  0.0412  0.7031  0.1555
 4507TIP3    H135012   3.211   2.819   3.104 -1.7376 -3.0896  0.5878
 4507TIP3    H235013   3.071   2.845   3.052 -0.1844  4.0628 -1.0576
 4508TIP3   OH235014   4.096   3.789   4.177  0.1834  0.4995  0.3495
 4508TIP3    H135015   4.154   3.798   4.253  0.1300 -0.1841  0.4716
 4508TIP3    H235016   4.040   3.715   4.198  0.5128 -0.0214 -0.5911
 4509TIP3   OH235017   2.273   2.111  12.078  0.5889 -0.1863 -0.5012
 4509TIP3    H135018   2.298   2.203  12.086 -0.2004  0.0052 -0.2108
 4509TIP3    H235019   2.323   2.066  12.146 -1.4516  0.5153  1.5646
 4510TIP3   OH235020   1.867   5.501   5.393 -0.1990 -0.3816 -0.7601
 4510TIP3    H135021   1.927   5.499   5.467 -0.5824 -2.0750 -0.4458
 4510TIP3    H235022   1.780   5.511   5.433 -0.3289 -0.3019 -1.0560
 4511TIP3   OH235023   5.803   5.528   1.910  0.6040  0.1605  0.0220
 4511TIP3    H135024   5.841   5.441   1.900 -2.0317 -1.2439  1.4553
 4511TIP3    H235025   5.796   5.561   1.820  0.5016 -1.6128 -0.6540
 4512TIP3   OH235026   6.750   0.937  12.096 -0.1646  0.1032  0.0470
 4512TIP3    H135027   6.661   0.958  12.069 -1.6202 -2.4240  2.3847
 4512TIP3    H235028   6.777   0.868  12.036 -0.0614  0.3399 -0.1821
 4513TIP3   OH235029   2.465   1.412   5.629  0.5033  0.3816 -0.6043
 4513TIP3    H135030   2.423   1.329   5.606 -0.6318  1.8491 -4.5882
 4513TIP3    H235031   2.420   1.440   5.709  0.1766 -2.2685  0.2252
 4514TIP3   OH235032   5.143   5.951   0.140  0.2653  0.0305 -0.2075
 4514TIP3    H135033   5.144   5.856   0.135 -0.3772 -0.0676  1.0491
 4514TIP3    H235034   5.179   5.971   0.227  0.7893  0.9616 -0.6171
 4515TIP3   OH235035   6.029   0.250  10.948 -0.5334  0.1553 -0.1803
 4515TIP3    H135036   6.113   0.248  10.902 -0.9078 -0.4042 -0.8708
 4515TIP3    H235037   5.970   0.296  10.888 -1.4417 -1.9850 -1.0412
 4516TIP3   OH235038   1.520   0.181   3.481  0.0706 -0.3751 -0.1296
 4516TIP3    H135039   1.594   0.231   3.512 -1.2487  2.0260 -0.6083
 4516TIP3    H235040   1.482   0.142   3.560 -0.1637  1.2742  0.6162
 4517TIP3   OH235041   0.746   0.800  17.281 -0.2796 -0.4328 -0.5006
 4517TIP3    H135042   0.659   0.770  17.307  0.2910 -1.5370  0.1586
 4517TIP3    H235043   0.773   0.859  17.351 -0.6692  0.2608 -0.9244
 4518TIP3   OH235044   5.777   5.132  17.097 -0.7057  0.1650  0.4677
 4518TIP3    H135045   5.857   5.088  17.069  1.0169  1.5096  2.9351
 4518TIP3    H235046   5.758   5.194  17.026 -1.0404 -1.8293 -1.2820
 4519TIP3   OH235047   0.946   5.063  17.091 -0.1085  0.3738  0.2908
 4519TIP3    H135048   0.875   5.052  17.028  0.8174  1.8953 -1.0904
 4519TIP3    H235049   0.924   5.144  17.137 -0.2365 -0.1773  1.2167
 4520TIP3   OH235050   4.118   1.685  15.493  0.0516  0.3902 -0.5817
 4520TIP3    H135051   4.046   1.674  15.431  0.5260 -0.9023 -0.9475
 4520TIP3    H235052   4.189   1.631  15.458  0.9042  0.9361  0.2283
 4521TIP3   OH235053   3.644   1.986   1.733  0.2301  0.5661 -0.3294
 4521TIP3    H135054   3.692   2.063   1.762 -0.2354  1.6204 -2.1929
 4521TIP3    H235055   3.711   1.928   1.696  0.6936 -0.3634  1.7941
 4522TIP3   OH235056   6.165   0.966   5.036 -0.2023  0.2479  0.2381
 4522TIP3    H135057   6.233   0.949   5.101  1.9135 -0.5561 -2.0538
 4522TIP3    H235058   6.179   1.056   5.009  1.3604 -0.5218 -1.6966
 4523TIP3   OH235059   1.553   0.740  15.823 -0.4929 -0.6240 -0.2156
 4523TIP3    H135060   1.506   0.770  15.901 -2.6728  2.7229 -2.5731
 4523TIP3    H235061   1.634   0.790  15.823 -1.1870  0.5443 -0.8012
 4524TIP3   OH235062   5.628   2.979   3.185  0.6947 -0.1567 -0.6782
 4524TIP3    H135063   5.676   2.918   3.129 -1.1621 -1.9526 -0.4380
 4524TIP3    H235064   5.647   2.951   3.274  0.3116 -0.0153 -0.5464
 4525TIP3   OH235065   0.457   2.662  12.840  0.4663  0.0364 -0.2873
 4525TIP3    H135066   0.550   2.669  12.816  0.4174  0.0658 -0.4762
 4525TIP3    H235067   0.437   2.569  12.830  0.5031  0.0139 -0.1441
 4526TIP3   OH235068   6.607   0.690   3.557 -0.4541  0.4614  0.0664
 4526TIP3    H135069   6.536   0.635   3.525  0.0134 -0.4428  0.5511
 4526TIP3    H235070   6.683   0.632   3.561  0.4252  1.5098 -0.8417
 4527TIP3   OH235071   3.382   1.929  13.272 -0.4726  0.2320  0.3307
 4527TIP3    H135072   3.427   1.964  13.195 -0.2558 -1.6921 -0.4530
 4527TIP3    H235073   3.323   2.000  13.299  0.8868  1.6874 -0.3779
 4528TIP3   OH235074   5.999   2.873   1.478 -0.7800  0.4515 -0.0412
 4528TIP3    H135075   5.996   2.938   1.408  1.2952  1.6492  0.9192
 4528TIP3    H235076   6.036   2.795   1.436 -1.2730  0.5499 -0.6853
 4529TIP3   OH235077   4.049   1.684  14.515 -0.2204  0.1254  0.2971
 4529TIP3    H135078   4.036   1.597  14.552 -0.0929 -0.2002 -0.4080
 4529TIP3    H235079   3.989   1.740  14.564 -1.6532 -0.6862 -0.4639
 4530TIP3   OH235080   5.695   2.124   3.674 -0.4103 -0.2510 -0.4074
 4530TIP3    H135081   5.783   2.092   3.693 -0.1267  0.6731 -0.1273
 4530TIP3    H235082   5.644   2.099   3.751  0.0861  0.9871  0.3534
 4531TIP3   OH235083   1.754   4.726   1.511 -0.2243  0.0034  0.0448
 4531TIP3    H135084   1.702   4.658   1.553  0.3461 -0.0233  0.7305
 4531TIP3    H235085   1.753   4.799   1.572  0.7941 -0.1154  0.2174
 4532TIP3   OH235086   1.409   5.647  13.980 -0.0624 -0.0381  0.2570
 4532TIP3    H135087   1.434   5.729  14.022  0.3421  0.3047 -0.6433
 4532TIP3    H235088   1.313   5.648  13.981 -0.0707  0.7547 -0.3251
 4533TIP3   OH235089   4.702   4.300   3.904 -0.9988 -0.1185  0.7279
 4533TIP3    H135090   4.767   4.300   3.834 -2.2563 -0.0287 -0.4936
 4533TIP3    H235091   4.739   4.355   3.972 -0.8010  1.9490 -0.9408
 4534TIP3   OH235092   3.589   2.677   0.773  0.3556 -0.0869 -0.5155
 4534TIP3    H135093   3.606   2.626   0.694  0.5730 -1.6414  0.4840
 4534TIP3    H235094   3.669   2.668   0.825 -0.2264 -0.0803  0.3995
 4535TIP3   OH235095   6.762   3.043  13.712 -0.2509 -0.0946  0.5148
 4535TIP3    H135096   6.709   3.017  13.637  0.2397 -0.7992  0.4051
 4535TIP3    H235097   6.698   3.070  13.778 -0.7117 -0.1457  0.0946
 4536TIP3   OH235098   5.277   5.180   2.203  0.2821  0.4713 -0.2380
 4536TIP3    H135099   5.365   5.210   2.180  0.5718 -0.0422  0.1610
 4536TIP3    H235100   5.274   5.184   2.299 -0.2802  0.8850 -0.2655
 4537TIP3   OH235101   3.191   3.649  12.592 -0.0289 -0.4661 -0.1895
 4537TIP3    H135102   3.129   3.717  12.618  0.9939  0.7658 -0.8467
 4537TIP3    H235103   3.215   3.606  12.674 -1.2454 -0.5304  0.1503
 4538TIP3   OH235104   3.891   4.672  17.048 -0.1140  0.5476  0.3268
 4538TIP3    H135105   3.958   4.627  16.997 -0.2821 -0.4346  0.9524
 4538TIP3    H235106   3.941   4.722  17.113  0.0307 -0.4565  1.0171
 4539TIP3   OH235107   3.539   4.150  12.314  0.1551 -0.6381  0.0319
 4539TIP3    H135108   3.483   4.171  12.388 -1.4207  0.5488 -1.4163
 4539TIP3    H235109   3.527   4.223  12.253  0.8862 -1.8786 -1.6745
 4540TIP3   OH235110   0.121   1.678   1.690 -0.2560 -0.4150 -0.5052
 4540TIP3    H135111   0.040   1.639   1.658  0.4561 -0.5117 -2.3192
 4540TIP3    H235112   0.120   1.767   1.656 -1.0514  0.7051  2.1650
 4541TIP3   OH235113   0.366   2.730   5.864  0.2736 -0.3240 -0.0825
 4541TIP3    H135114   0.376   2.816   5.904 -0.2293  0.0299 -0.6984
 4541TIP3    H235115   0.453   2.691   5.866  0.2450 -0.3469  1.4216
 4542TIP3   OH235116   1.574   3.665   0.058  0.0360  0.1847 -0.6148
 4542TIP3    H135117   1.493   3.617   0.044  0.7928 -1.0182 -1.0055
 4542TIP3    H235118   1.574   3.687   0.151 -0.8571  0.4587 -0.6686
 4543TIP3   OH235119   6.346   3.534   3.307  0.4712 -0.1890 -0.3388
 4543TIP3    H135120   6.284   3.574   3.246  0.7649 -0.9793 -1.1745
 4543TIP3    H235121   6.426   3.584   3.296  0.6542 -0.6088 -0.9287
 4544TIP3   OH235122   4.874   2.575  13.792  0.4119  0.3268  0.0827
 4544TIP3    H135123   4.783   2.600  13.811  0.3385 -0.9673  1.5865
 4544TIP3    H235124   4.884   2.593  13.698 -0.4487  3.3304  0.4530
 4545TIP3   OH235125   1.430   3.220   3.838 -0.1113  0.0520 -0.1049
 4545TIP3    H135126   1.354   3.223   3.896 -1.2826 -4.5787 -1.0063
 4545TIP3    H235127   1.493   3.164   3.884  0.7868 -0.0181 -1.3756
 4546TIP3   OH235128   2.719   3.991  16.092 -0.0585  0.1052  0.4231
 4546TIP3    H135129   2.755   3.936  16.162  2.6716  1.6239  0.3540
 4546TIP3    H235130   2.747   3.949  16.011 -2.4414 -1.1488  0.1645
 4547TIP3   OH235131   2.883   0.882   3.344 -0.4416 -0.9504 -0.6107
 4547TIP3    H135132   2.934   0.960   3.367  0.0045 -1.1688 -0.8454
 4547TIP3    H235133   2.884   0.880   3.248 -2.9130  0.3815 -0.7580
 4548TIP3   OH235134   0.320   1.551   0.456 -0.8376 -0.2229  0.0269
 4548TIP3    H135135   0.330   1.503   0.375  0.7949  0.7874 -0.4221
 4548TIP3    H235136   0.255   1.618   0.437 -2.5558 -1.6955  0.4363
 4549TIP3   OH235137   4.865   6.595  15.946  0.2809  1.0296 -0.0394
 4549TIP3    H135138   4.852   6.627  15.857  0.4168 -1.4897 -1.0511
 4549TIP3    H235139   4.951   6.553  15.944 -1.7783 -3.7710 -0.3762
 4550TIP3   OH235140   2.064   2.026   5.024 -0.2602 -0.2663  0.1156
 4550TIP3    H135141   2.082   2.118   5.008  2.1873 -0.3275  2.0179
 4550TIP3    H235142   1.983   2.025   5.075  0.2466  0.9041  0.9574
 4551TIP3   OH235143   4.287   3.301  16.673 -0.6377  0.6400  0.1532
 4551TIP3    H135144   4.321   3.303  16.583 -0.5036 -0.1843  0.1762
 4551TIP3    H235145   4.340   3.365  16.720  0.6982 -0.3702  0.1084
 4552TIP3   OH235146   1.920   0.129   2.727 -0.4339 -0.2463 -0.3353
 4552TIP3    H135147   1.858   0.199   2.748  1.3730  1.0162  1.1460
 4552TIP3    H235148   1.958   0.154   2.643 -0.6102 -0.0399 -0.3525
 4553TIP3   OH235149   5.631   5.052  11.776 -0.0599  0.7425  0.1298
 4553TIP3    H135150   5.719   5.088  11.787  0.7946 -0.3097 -2.5509
 4553TIP3    H235151   5.636   4.965  11.817 -0.4711  1.3932  1.6410
 4554TIP3   OH235152   5.015   0.476  11.472 -0.2321 -0.3811 -0.0378
 4554TIP3    H135153   5.086   0.476  11.407 -0.6475  4.6213 -0.9203
 4554TIP3    H235154   4.935   0.476  11.420 -0.6397  0.7275  0.5557
 4555TIP3   OH235155   3.927   3.452   1.617 -0.4722 -0.0122 -0.1535
 4555TIP3    H135156   3.905   3.502   1.538 -1.5723  0.6761  0.5640
 4555TIP3    H235157   3.859   3.475   1.679 -1.3045 -2.8180  0.0781
 4556TIP3   OH235158   6.662   4.993  14.979 -0.0034  0.2016  0.2448
 4556TIP3    H135159   6.595   5.024  15.039 -0.3006  1.4033 -0.6576
 4556TIP3    H235160   6.638   5.032  14.895  0.3537 -1.4776 -0.6877
 4557TIP3   OH235161   6.664   2.165  16.463  0.1022 -0.0512  0.2867
 4557TIP3    H135162   6.750   2.191  16.498  0.3159  0.4021 -0.5385
 4557TIP3    H235163   6.666   2.193  16.372 -0.8017 -0.3489  0.1629
 4558TIP3   OH235164   0.616   5.354   1.248 -0.9299 -0.2118 -0.0095
 4558TIP3    H135165   0.559   5.351   1.324 -3.3208  0.5785 -1.6355
 4558TIP3    H235166   0.668   5.274   1.253 -1.3072 -0.3744  2.1883
 4559TIP3   OH235167   4.931   0.269  14.402  0.0093  0.1185  0.2286
 4559TIP3    H135168   4.889   0.289  14.485  1.7537  0.6798  1.0103
 4559TIP3    H235169   4.878   0.316  14.337 -0.2993  1.1844  1.2231
 4560TIP3   OH235170   6.665   2.065   3.989  0.1863 -0.3890  0.1849
 4560TIP3    H135171   6.605   2.107   3.928  1.1377  1.6158  0.5380
 4560TIP3    H235172   6.734   2.028   3.934  0.4793  0.4784 -0.0531
 4561TIP3   OH235173   3.940   2.336  13.744  0.0866  0.5094 -0.3798
 4561TIP3    H135174   4.011   2.313  13.804 -0.7061  1.1684  0.8545
 4561TIP3    H235175   3.962   2.425  13.715  0.6165  0.0859 -1.3172
 4562TIP3   OH235176   5.433   2.323   2.099  0.1896 -0.2024 -0.0974
 4562TIP3    H135177   5.412   2.310   2.191  2.2234  1.1098  0.6222
 4562TIP3    H235178   5.501   2.259   2.081  0.5391  0.2385 -0.3721
 4563TIP3   OH235179   3.093   1.219  13.846 -0.0281  0.3241 -0.0136
 4563TIP3    H135180   3.010   1.181  13.873 -0.8482  2.8523  1.2400
 4563TIP3    H235181   3.158   1.175  13.900 -0.3830 -2.0054 -1.3172
 4564TIP3   OH235182   5.420   2.708  13.537  0.1015  0.1900  0.2184
 4564TIP3    H135183   5.384   2.782  13.487  1.7439  2.1600  1.7857
 4564TIP3    H235184   5.361   2.636  13.517 -2.0856  2.0943 -0.7716
 4565TIP3   OH235185   1.330   5.101   4.574  0.6189 -0.3993 -0.5890
 4565TIP3    H135186   1.319   5.087   4.668  1.5722  0.7315 -0.2807
 4565TIP3    H235187   1.241   5.117   4.542  0.3136 -0.5235  0.1727
 4566TIP3   OH235188   1.099   2.904  12.226 -0.1087  0.0437 -0.5191
 4566TIP3    H135189   1.149   2.824  12.207 -0.9326 -0.5363 -0.3141
 4566TIP3    H235190   1.074   2.895  12.318 -2.6755 -0.9048 -1.2090
 4567TIP3   OH235191   1.632   2.319   0.818 -0.5427 -0.2149  0.4696
 4567TIP3    H135192   1.690   2.274   0.880 -1.6709 -1.3036  0.7715
 4567TIP3    H235193   1.544   2.296   0.846 -1.1010 -0.2172 -1.1559
 4568TIP3   OH235194   4.469   1.457   0.683 -0.2202 -0.6097 -0.1947
 4568TIP3    H135195   4.561   1.476   0.697 -0.5219 -0.2221  1.5247
 4568TIP3    H235196   4.468   1.373   0.638  0.9773 -0.0259 -1.3658
 4569TIP3   OH235197   6.798   0.958   4.243  0.2975  0.1681 -0.0556
 4569TIP3    H135198   6.725   1.019   4.232  0.8721  0.9174  0.2074
 4569TIP3    H235199   6.857   0.979   4.171  0.3152 -0.3514 -0.1942
 4570TIP3   OH235200   4.104   6.190   1.799  0.4678  0.9741  0.2668
 4570TIP3    H135201   4.056   6.213   1.720  0.2078  0.3360  0.2347
 4570TIP3    H235202   4.039   6.151   1.857  1.1898 -1.4364 -0.4107
 4571TIP3   OH235203   6.514   3.586   0.412 -0.4908 -0.3380 -0.0464
 4571TIP3    H135204   6.495   3.578   0.319 -1.3525  0.9926 -0.0001
 4571TIP3    H235205   6.441   3.541   0.455 -0.3440 -0.5265  0.0101
 4572TIP3   OH235206   5.971   2.333   3.136  0.4076  0.1230  0.0247
 4572TIP3    H135207   5.914   2.256   3.143 -0.4728  0.7690  0.2539
 4572TIP3    H235208   5.943   2.375   3.054  0.3801  0.5737  0.2603
 4573TIP3   OH235209   6.346   5.201  10.860  0.1706  0.0074 -0.2582
 4573TIP3    H135210   6.387   5.283  10.833 -1.2930  0.4744 -1.1545
 4573TIP3    H235211   6.397   5.133  10.816  1.4297  0.4083  0.5331
 4574TIP3   OH235212   5.593   0.647  11.886  0.3908 -0.0814 -0.0134
 4574TIP3    H135213   5.582   0.635  11.980 -1.5110  0.3716 -0.1385
 4574TIP3    H235214   5.516   0.604  11.848  0.0380  1.5386 -1.2138
 4575TIP3   OH235215   2.187   2.125  14.458  0.3871 -0.6533 -0.1064
 4575TIP3    H135216   2.226   2.192  14.514  0.0103 -0.5782  0.0702
 4575TIP3    H235217   2.095   2.123  14.484  0.1841 -0.5483 -0.7922
 4576TIP3   OH235218   4.285   0.676  11.668 -0.0040  0.7398  0.2141
 4576TIP3    H135219   4.298   0.771  11.669 -0.7767  0.8619  1.6914
 4576TIP3    H235220   4.320   0.646  11.751 -1.0306 -0.0734  0.3767
 4577TIP3   OH235221   4.996   2.764  12.774  0.2796 -0.1176  0.0145
 4577TIP3    H135222   4.903   2.742  12.761  1.0279 -2.6905 -1.7899
 4577TIP3    H235223   5.042   2.682  12.758  2.9634  1.3071 -0.0572
 4578TIP3   OH235224   0.349   6.712   0.899  0.1096 -0.4103 -0.1505
 4578TIP3    H135225   0.380   6.785   0.951  0.5812 -0.2091 -0.7082
 4578TIP3    H235226   0.285   6.667   0.955 -1.3315  1.3022 -0.3448
 4579TIP3   OH235227   5.553   5.105  14.140 -0.1976  0.2400  0.3839
 4579TIP3    H135228   5.611   5.070  14.207 -1.9878  0.1062  1.9353
 4579TIP3    H235229   5.505   5.029  14.107  1.1260  0.1782 -1.6415
 4580TIP3   OH235230   3.599   4.888   4.367 -0.2611 -0.4631  0.4192
 4580TIP3    H135231   3.519   4.929   4.335  1.1644  1.3581 -1.0050
 4580TIP3    H235232   3.619   4.934   4.448 -0.3447 -0.5474  0.4890
 4581TIP3   OH235233   4.741   1.026  11.912  0.0517 -0.2572  0.3215
 4581TIP3    H135234   4.759   1.072  11.830  2.1530 -0.3656  0.6668
 4581TIP3    H235235   4.805   1.061  11.974 -1.7050  0.0580  2.0465
 4582TIP3   OH235236   4.899   4.098  14.120  0.1434  0.0062  0.9702
 4582TIP3    H135237   4.912   4.077  14.028  0.3922  1.7251  0.5717
 4582TIP3    H235238   4.919   4.192  14.126 -1.3140  0.2697  2.4790
 4583TIP3   OH235239   5.914   6.725  14.462  0.5484  0.0279  0.6330
 4583TIP3    H135240   5.881   6.724  14.552  0.4245  0.5343  0.5970
 4583TIP3    H235241   5.879   6.805  14.424  1.6576  0.4875  0.5303
 4584TIP3   OH235242   6.437   5.756  14.440  0.0505 -0.1740 -0.3500
 4584TIP3    H135243   6.451   5.851  14.436 -1.3072  0.1063  0.7279
 4584TIP3    H235244   6.458   5.732  14.530 -0.8677 -0.6532 -0.2538
 4585TIP3   OH235245   5.935   5.326   1.164 -0.5200 -0.0715 -0.3264
 4585TIP3    H135246   5.921   5.240   1.125  1.3659 -1.3789  1.6270
 4585TIP3    H235247   5.960   5.382   1.090  0.7774 -1.8636 -1.3314
 4586TIP3   OH235248   6.043   6.076  14.799 -0.4729 -0.4655 -0.2494
 4586TIP3    H135249   6.000   6.088  14.883  0.7158 -1.3425  0.5056
 4586TIP3    H235250   5.972   6.080  14.735 -1.5414 -0.9372  0.8779
 4587TIP3   OH235251   0.659   3.609   1.066  0.1621  0.3253  0.0994
 4587TIP3    H135252   0.590   3.552   1.098 -0.1437 -0.3746 -1.6977
 4587TIP3    H235253   0.643   3.693   1.109  1.1364 -1.0451  3.4784
 4588TIP3   OH235254   2.628   4.360  15.140 -0.4683 -0.5394 -0.0615
 4588TIP3    H135255   2.577   4.360  15.220 -0.1617 -1.1031  0.1343
 4588TIP3    H235256   2.618   4.449  15.105 -2.0098 -0.7852 -0.3071
 4589TIP3   OH235257   0.448   1.969   1.416  0.4338  0.5531  0.2780
 4589TIP3    H135258   0.410   1.967   1.504 -0.3419  2.9737  0.0868
 4589TIP3    H235259   0.441   1.879   1.385 -2.4725  0.2518  1.4243
 4590TIP3   OH235260   5.898   0.842  15.146 -0.0946  0.0076 -0.0019
 4590TIP3    H135261   5.816   0.810  15.109 -0.9320  1.2084  0.7255
 4590TIP3    H235262   5.961   0.838  15.074 -1.1392  0.2964 -0.9498
 4591TIP3   OH235263   6.342   2.603   4.896 -0.5108 -0.3241  0.0354
 4591TIP3    H135264   6.351   2.691   4.860 -0.4874  0.2807  1.4267
 4591TIP3    H235265   6.352   2.615   4.991 -0.6270 -1.8102  0.2637
 4592TIP3   OH235266   2.611   6.658   0.441 -0.0748  0.0735 -0.7600
 4592TIP3    H135267   2.625   6.691   0.352 -2.5029  0.3801 -1.0878
 4592TIP3    H235268   2.593   6.565   0.429 -0.4944  0.1326 -0.6224
 4593TIP3   OH235269   3.046   5.189  15.959 -0.9598 -0.2973 -0.1249
 4593TIP3    H135270   3.081   5.244  15.890 -0.8078 -0.9272 -0.5582
 4593TIP3    H235271   2.957   5.221  15.974 -1.1975 -0.5142 -1.0104
 4594TIP3   OH235272   3.003   5.924   3.716 -0.4351  0.0680 -0.2621
 4594TIP3    H135273   2.991   5.970   3.633 -0.7669  1.9919  0.7880
 4594TIP3    H235274   2.921   5.877   3.729 -1.5599  2.0423  0.2770
 4595TIP3   OH235275   6.219   6.154   3.376  0.2096  0.7123 -0.2205
 4595TIP3    H135276   6.256   6.073   3.411 -0.1659  0.6610  0.0743
 4595TIP3    H235277   6.231   6.217   3.447 -0.4185  0.6485 -0.0466
 4596TIP3   OH235278   4.418   6.812   1.282  0.4488  0.0747 -0.0897
 4596TIP3    H135279   4.344   6.806   1.221  0.5790 -1.5527 -0.1280
 4596TIP3    H235280   4.495   6.792   1.228  0.6331 -0.7446  0.4575
 4597TIP3   OH235281   1.017   3.220  10.872 -0.0326  0.2167 -0.2006
 4597TIP3    H135282   1.085   3.244  10.810  0.8695  0.8878  1.0108
 4597TIP3    H235283   0.935   3.231  10.824  0.5592  2.1426 -0.8245
 4598TIP3   OH235284   0.104   3.203  15.072 -0.3050 -0.5979 -0.6331
 4598TIP3    H135285   0.021   3.161  15.092  0.1410 -1.3095 -0.2140
 4598TIP3    H235286   0.081   3.294  15.051 -0.9586 -0.0916  1.9408
 4599TIP3   OH235287   2.570   1.658   4.427 -0.6491 -0.5890  0.0953
 4599TIP3    H135288   2.558   1.605   4.348 -0.9399 -1.0079  0.4141
 4599TIP3    H235289   2.664   1.673   4.431 -0.8857  2.6989 -2.4166
 4600TIP3   OH235290   6.521   5.271   0.198  0.0242  0.7787  0.5775
 4600TIP3    H135291   6.451   5.296   0.138  0.1199 -0.4867 -0.0973
 4600TIP3    H235292   6.547   5.353   0.240  1.3033  2.0991 -2.4924
 4601TIP3   OH235293   6.234   1.413   0.296  0.0043  0.0411 -0.0606
 4601TIP3    H135294   6.215   1.340   0.237 -1.7667  0.5702 -0.2089
 4601TIP3    H235295   6.154   1.425   0.347  1.3830 -0.2045  2.3155
 4602TIP3   OH235296   3.738   0.037  10.865  0.2575  0.1945 -0.1933
 4602TIP3    H135297   3.765   0.028  10.956 -0.7195 -0.1456  0.0760
 4602TIP3    H235298   3.760   0.127  10.842 -0.4274  0.6031  0.6968
 4603TIP3   OH235299   1.731   2.674   2.575  0.3231  0.0994  0.1592
 4603TIP3    H135300   1.669   2.658   2.646 -2.1288  0.2086 -1.7892
 4603TIP3    H235301   1.723   2.597   2.519  0.4901  0.9687 -1.1174
 4604TIP3   OH235302   1.618   6.029   4.938 -0.0029 -0.2769 -0.1893
 4604TIP3    H135303   1.695   6.078   4.965 -0.4465  1.3575 -1.7267
 4604TIP3    H235304   1.593   5.979   5.016  1.4472  0.6372  0.9148
 4605TIP3   OH235305   0.472   2.265  13.067  0.3106 -0.5280 -0.4368
 4605TIP3    H135306   0.468   2.175  13.034  0.4897 -0.3347 -0.9894
 4605TIP3    H235307   0.382   2.296  13.062 -0.2162 -1.4139  1.8922
 4606TIP3   OH235308   1.407   4.387  11.518  0.0929 -0.4600 -0.1729
 4606TIP3    H135309   1.500   4.405  11.532 -0.5555  1.0406  3.0923
 4606TIP3    H235310   1.375   4.464  11.471  0.1702 -0.0796  0.3841
 4607TIP3   OH235311   0.365   3.190  13.647  0.5191  0.5786 -0.2555
 4607TIP3    H135312   0.394   3.106  13.683  0.1199  0.7436  0.4878
 4607TIP3    H235313   0.346   3.173  13.555 -0.1705 -0.3039  0.0402
 4608TIP3   OH235314   4.206   6.288   5.890 -0.4496 -0.4004  0.3904
 4608TIP3    H135315   4.247   6.253   5.810  0.6269  1.1985  0.2024
 4608TIP3    H235316   4.116   6.255   5.887 -0.4411 -0.3709 -1.5125
 4609TIP3   OH235317   0.132   0.264   4.905  0.1174 -0.2699  0.1058
 4609TIP3    H135318   0.227   0.267   4.913  0.0141 -0.6155  2.1235
 4609TIP3    H235319   0.102   0.230   4.990 -1.6308 -3.6460 -1.6563
 4610TIP3   OH235320   2.121   1.998   4.087  0.4552  0.4288 -0.2695
 4610TIP3    H135321   2.068   2.008   4.165 -0.2102 -0.1069 -0.6458
 4610TIP3    H235322   2.065   1.951   4.025  2.0247 -2.0201  0.0238
 4611TIP3   OH235323   6.336   5.466   1.550  0.3766  0.6086  0.5180
 4611TIP3    H135324   6.425   5.437   1.531 -0.6616 -2.9362  0.3478
 4611TIP3    H235325   6.285   5.436   1.475 -1.2140  0.9769  1.4110
 4612TIP3   OH235326   0.352   6.549  14.239 -0.4332 -0.3376 -0.0649
 4612TIP3    H135327   0.325   6.537  14.330 -1.9895 -0.6492 -0.5340
 4612TIP3    H235328   0.434   6.598  14.244 -0.9129  0.3560  1.4710
 4613TIP3   OH235329   2.957   2.191  11.359 -0.2284 -0.8795 -0.0344
 4613TIP3    H135330   2.918   2.196  11.446 -0.5207 -0.5947 -0.1770
 4613TIP3    H235331   2.889   2.224  11.301  0.8783  1.4883 -0.0986
 4614TIP3   OH235332   0.248   3.200   3.627 -0.6286 -0.4455  0.0810
 4614TIP3    H135333   0.223   3.186   3.718 -0.2100 -1.3193  0.0771
 4614TIP3    H235334   0.343   3.215   3.631  0.1506 -4.1663 -0.4732
 4615TIP3   OH235335   2.110   5.658   5.842 -0.4615 -0.3606  0.1336
 4615TIP3    H135336   2.112   5.675   5.748 -0.6440  0.2726  0.2370
 4615TIP3    H235337   2.175   5.589   5.855 -0.9731 -0.9819 -0.5536
 4616TIP3   OH235338   1.008   1.364   4.069  0.3441  0.4530 -0.1727
 4616TIP3    H135339   1.020   1.403   3.982  0.1637 -1.7124 -1.2371
 4616TIP3    H235340   1.089   1.316   4.086 -0.2501 -0.4714  0.1189
 4617TIP3   OH235341   5.377   5.381  16.515  0.1749  1.0150  0.2711
 4617TIP3    H135342   5.314   5.445  16.549  0.4328  0.6965  1.4175
 4617TIP3    H235343   5.462   5.423  16.527  0.2765  0.8654  0.0710
 4618TIP3   OH235344   5.188   4.088   4.664 -0.4294 -0.2002 -0.1746
 4618TIP3    H135345   5.255   4.127   4.721 -0.5786  0.7797 -0.6455
 4618TIP3    H235346   5.225   4.004   4.638 -0.6273 -0.9691  1.8535
 4619TIP3   OH235347   1.283   0.453  15.961 -0.3541  0.2512 -0.1280
 4619TIP3    H135348   1.193   0.470  15.991 -0.0156  2.9896 -0.3880
 4619TIP3    H235349   1.271   0.404  15.879 -1.5941  0.2388  0.0326
 4620TIP3   OH235350   1.558   3.173   5.340  0.1190  0.1070 -0.4765
 4620TIP3    H135351   1.504   3.196   5.415  1.3668  0.8679  0.2272
 4620TIP3    H235352   1.552   3.249   5.282 -0.0418 -0.0584 -0.6782
 4621TIP3   OH235353   1.059   0.392   5.860  0.2025  0.4643  0.4548
 4621TIP3    H135354   1.122   0.436   5.917  2.7746 -0.9660 -1.0823
 4621TIP3    H235355   1.040   0.457   5.792 -0.6594  1.1860  1.3612
 4622TIP3   OH235356   1.332   5.912  14.470 -0.4399 -0.4403  0.3207
 4622TIP3    H135357   1.390   5.984  14.443  0.6754 -1.0064  1.1363
 4622TIP3    H235358   1.257   5.920  14.412  0.2142  0.6383 -0.4334
 4623TIP3   OH235359   0.695   4.863   1.232 -0.2242 -0.3991  0.2071
 4623TIP3    H135360   0.732   4.777   1.213 -0.9631 -0.3389 -1.6459
 4623TIP3    H235361   0.656   4.853   1.319 -1.4141 -2.3466 -0.4884
 4624TIP3   OH235362   2.466   4.281   2.146  0.5325  0.2863 -0.6788
 4624TIP3    H135363   2.531   4.211   2.149  0.1889 -0.0181 -0.3120
 4624TIP3    H235364   2.395   4.246   2.092 -0.8093 -0.6689  1.5909
 4625TIP3   OH235365   4.743   3.331  13.952  0.0129  0.1140  0.0133
 4625TIP3    H135366   4.748   3.413  14.002 -0.7228 -0.1059  0.4654
 4625TIP3    H235367   4.762   3.263  14.016 -0.6395 -0.1498 -0.0641
 4626TIP3   OH235368   3.852   0.456  16.907  0.0283 -0.8561 -0.1218
 4626TIP3    H135369   3.901   0.437  16.827  1.3051  1.9591 -0.1237
 4626TIP3    H235370   3.894   0.401  16.973  0.6678 -1.3185 -0.8833
 4627TIP3   OH235371   2.012   5.359  16.892  0.1782  0.5492  0.3798
 4627TIP3    H135372   2.055   5.443  16.873  1.9498 -0.7274 -1.7749
 4627TIP3    H235373   2.049   5.298  16.828 -2.6878 -1.4107  0.3694
 4628TIP3   OH235374   4.571   6.337  12.839 -0.0471  0.6397 -0.0187
 4628TIP3    H135375   4.536   6.381  12.916  2.9017  0.5914  1.4590
 4628TIP3    H235376   4.619   6.262  12.873 -2.0395 -1.9077 -2.2397
 4629TIP3   OH235377   0.199   3.095  15.905  0.0024 -0.4036 -0.1212
 4629TIP3    H135378   0.196   3.017  15.959  1.4713  0.5497  1.4306
 4629TIP3    H235379   0.180   3.167  15.965  0.0958  0.5493 -1.1989
 4630TIP3   OH235380   5.518   3.710  11.429  0.0175  0.5788 -0.3874
 4630TIP3    H135381   5.425   3.689  11.427  0.1117  0.0515  0.3468
 4630TIP3    H235382   5.549   3.691  11.340 -0.9404  2.5918 -1.2144
 4631TIP3   OH235383   4.697   4.831  15.129 -0.2732  0.6927  0.0548
 4631TIP3    H135384   4.705   4.918  15.090  0.2041  0.5877 -0.0849
 4631TIP3    H235385   4.720   4.844  15.221  1.1840  0.4608 -0.2645
 4632TIP3   OH235386   3.562   0.515  12.800  0.1265  0.2908 -0.0531
 4632TIP3    H135387   3.478   0.474  12.777 -0.6223  1.6323  0.2228
 4632TIP3    H235388   3.548   0.608  12.785  2.1697  0.3855 -1.7895
 4633TIP3   OH235389   4.263   5.282  13.611  0.3629 -0.0033 -0.4984
 4633TIP3    H135390   4.317   5.310  13.685 -0.9740  1.0063  0.1494
 4633TIP3    H235391   4.177   5.322  13.628 -0.4195 -1.0600 -1.7846
 4634TIP3   OH235392   1.068   5.257  11.220  0.6835 -0.0134  0.3285
 4634TIP3    H135393   1.043   5.202  11.146 -0.5153  0.5002  0.3355
 4634TIP3    H235394   1.114   5.331  11.180 -1.3397  1.0848 -0.1103
 4635TIP3   OH235395   0.356   0.540  15.290 -0.1613 -0.1982  0.1637
 4635TIP3    H135396   0.425   0.511  15.231 -0.7495 -2.5844  0.5551
 4635TIP3    H235397   0.402   0.571  15.368  0.5696  2.0347 -1.0577
 4636TIP3   OH235398   5.315   0.486  12.086  0.8047  0.0390  0.6231
 4636TIP3    H135399   5.220   0.495  12.092  0.8600  3.0656 -0.9035
 4636TIP3    H235400   5.329   0.427  12.012  0.0666  0.3317  0.2352
 4637TIP3   OH235401   0.626   4.054   5.064  0.2012 -0.1332 -0.1888
 4637TIP3    H135402   0.633   3.993   4.991  0.0698  1.9974 -2.1034
 4637TIP3    H235403   0.716   4.087   5.076 -0.0061  0.5037 -0.3269
 4638TIP3   OH235404   2.387   3.183  14.487  0.0933 -0.4874  0.2190
 4638TIP3    H135405   2.402   3.174  14.582 -0.4823 -0.5489  0.3067
 4638TIP3    H235406   2.420   3.271  14.466  1.6560 -1.0445  0.1782
 4639TIP3   OH235407   4.657   1.728   4.101 -0.1789  0.2825  0.2422
 4639TIP3    H135408   4.712   1.686   4.035  1.3784 -0.3482  1.8627
 4639TIP3    H235409   4.629   1.810   4.060  1.0199  0.0839 -1.0675
 4640TIP3   OH235410   2.802   2.263   4.019  0.1168 -0.1679 -0.4756
 4640TIP3    H135411   2.717   2.252   3.975  1.1622 -2.0042 -2.2212
 4640TIP3    H235412   2.863   2.281   3.948  1.2850  0.7751  0.7175
 4641TIP3   OH235413   1.029   0.212   2.956 -0.4682  0.0053  0.0259
 4641TIP3    H135414   0.939   0.210   2.923 -0.2075 -2.5665 -0.7136
 4641TIP3    H235415   1.059   0.122   2.952  2.0592  0.7203  0.6073
 4642TIP3   OH235416   6.258   3.606   4.468  0.2159 -0.4597 -0.7807
 4642TIP3    H135417   6.194   3.614   4.397  0.8784  0.3100 -1.3156
 4642TIP3    H235418   6.210   3.629   4.547 -0.9109 -2.6588 -0.7400
 4643TIP3   OH235419   1.294   2.840   0.743 -0.9745  0.1426 -0.4260
 4643TIP3    H135420   1.216   2.890   0.767 -1.4446 -0.2545 -1.1088
 4643TIP3    H235421   1.261   2.751   0.726 -0.2146 -0.3064  0.3469
 4644TIP3   OH235422   2.418   2.053   3.024 -0.6197 -0.0432  0.5458
 4644TIP3    H135423   2.354   2.003   3.075 -0.9638 -0.0245  0.1356
 4644TIP3    H235424   2.430   2.003   2.944 -1.1557  0.6526  0.0174
 4645TIP3   OH235425   3.650   0.865  15.774 -0.1835  0.7402 -0.3662
 4645TIP3    H135426   3.636   0.888  15.682 -1.4271  1.5136 -0.0109
 4645TIP3    H235427   3.562   0.862  15.811  0.2273 -0.7231  0.5507
 4646TIP3   OH235428   0.962   5.145   4.836  0.2266 -0.3901  0.5301
 4646TIP3    H135429   0.970   5.181   4.747 -3.2353  0.0705  0.2748
 4646TIP3    H235430   0.967   5.221   4.893  1.3177 -0.5661  0.7009
 4647TIP3   OH235431   3.759   1.093  12.874 -0.0381  0.1234 -0.2207
 4647TIP3    H135432   3.691   1.136  12.926 -0.2127  0.0891 -0.4204
 4647TIP3    H235433   3.795   1.026  12.932 -2.5161 -2.2196 -1.2093
 4648TIP3   OH235434   5.658   1.702  10.650  0.4634  0.4110  0.2346
 4648TIP3    H135435   5.563   1.702  10.651  0.4601 -0.4921  1.1319
 4648TIP3    H235436   5.682   1.790  10.620 -0.6431  0.5621 -0.2378
 4649TIP3   OH235437   3.494   6.746  15.335 -0.5786  0.2854  0.4255
 4649TIP3    H135438   3.445   6.828  15.326 -0.3365  0.3670 -0.2672
 4649TIP3    H235439   3.473   6.715  15.423  0.4542  1.8165  1.2616
 4650TIP3   OH235440   4.058   5.191   3.497 -0.1148 -0.2795 -0.3136
 4650TIP3    H135441   4.097   5.108   3.524  0.9665  0.0030 -0.9167
 4650TIP3    H235442   4.068   5.248   3.573 -0.5291 -0.5879 -0.0246
 4651TIP3   OH235443   4.317   4.790  13.144  0.1694  0.2361 -0.1131
 4651TIP3    H135444   4.362   4.706  13.155  1.4811  0.9133 -0.0811
 4651TIP3    H235445   4.272   4.782  13.060  0.8864 -0.2380 -0.4639
 4652TIP3   OH235446   1.831   4.935   5.406  0.0797 -0.1657  0.2324
 4652TIP3    H135447   1.832   4.936   5.501 -1.7427 -1.0490  0.2942
 4652TIP3    H235448   1.813   5.025   5.381 -1.7901 -0.3320  0.8273
 4653TIP3   OH235449   4.338   6.782  15.917 -0.6294  0.1063 -0.0212
 4653TIP3    H135450   4.348   6.783  15.822 -1.3891  1.0608 -0.1021
 4653TIP3    H235451   4.411   6.728  15.948 -0.4755 -0.3631 -1.1479
 4654TIP3   OH235452   1.327   2.686   0.422 -0.6890  0.4883  0.2157
 4654TIP3    H135453   1.338   2.671   0.515 -1.2965  1.3332  0.4304
 4654TIP3    H235454   1.368   2.771   0.406 -4.9687  2.9094  0.7177
 4655TIP3   OH235455   6.089   1.888   0.861 -0.4925 -0.5549  0.0434
 4655TIP3    H135456   6.130   1.812   0.819  0.8502 -0.5639  1.2875
 4655TIP3    H235457   6.151   1.914   0.929 -0.9506  1.6088 -0.2794
 4656TIP3   OH235458   5.633   1.482   0.799  0.2365 -0.6452 -0.0618
 4656TIP3    H135459   5.588   1.547   0.854  1.3342  1.3264 -1.4036
 4656TIP3    H235460   5.649   1.409   0.859 -2.1273 -0.2571  1.1959
 4657TIP3   OH235461   4.411   1.319  17.060 -0.1830  0.2074 -0.2310
 4657TIP3    H135462   4.376   1.307  16.972  0.7012 -1.6820 -0.3735
 4657TIP3    H235463   4.484   1.380  17.049 -0.0459 -0.0603 -0.8298
 4658TIP3   OH235464   5.030   2.117  12.407 -0.5835  0.1946  0.0911
 4658TIP3    H135465   5.020   2.022  12.400 -0.2316  0.0528  1.2557
 4658TIP3    H235466   5.056   2.131  12.498  1.6980  1.1973 -0.6336
 4659TIP3   OH235467   6.014   3.408   5.222 -0.1141 -0.1887  0.2636
 4659TIP3    H135468   6.052   3.496   5.223 -1.4788  0.4548 -0.6478
 4659TIP3    H235469   6.052   3.366   5.144  1.9336 -1.1087  1.6858
 4660TIP3   OH235470   2.796   0.279   0.727 -0.2137  0.0899 -0.0396
 4660TIP3    H135471   2.752   0.351   0.773  1.3949  0.3833  1.1256
 4660TIP3    H235472   2.841   0.322   0.654 -0.3217  0.0627 -0.1228
 4661TIP3   OH235473   4.986   5.225  14.867 -0.1685 -0.0609  0.2543
 4661TIP3    H135474   5.007   5.290  14.935  0.9057  1.0731 -1.1093
 4661TIP3    H235475   4.973   5.277  14.788 -0.5496 -1.4284 -0.6050
 4662TIP3   OH235476   0.458   1.444   1.485 -0.6975  0.0894  0.2602
 4662TIP3    H135477   0.452   1.507   1.557  0.0313 -1.4241  1.7102
 4662TIP3    H235478   0.388   1.380   1.504 -1.6373  0.5919 -1.3550
 4663TIP3   OH235479   2.808   3.561   0.718 -0.1658 -0.1568  0.1232
 4663TIP3    H135480   2.889   3.588   0.673 -0.4992 -1.4150 -1.3420
 4663TIP3    H235481   2.774   3.491   0.663 -3.2887  1.5820 -0.3806
 4664TIP3   OH235482   3.812   3.306  16.365 -0.1222 -0.2545  0.0225
 4664TIP3    H135483   3.736   3.258  16.333 -1.9338  4.1992 -3.5406
 4664TIP3    H235484   3.778   3.363  16.434  0.4040  0.3751 -0.2183
 4665TIP3   OH235485   6.780   4.632   2.764 -0.0487  0.4452 -0.4527
 4665TIP3    H135486   6.739   4.567   2.821 -1.3859  1.9902  0.4395
 4665TIP3    H235487   6.864   4.651   2.806  0.1603 -0.3672 -0.4867
 4666TIP3   OH235488   1.668   5.220  15.215  0.7178  0.2696 -0.4274
 4666TIP3    H135489   1.665   5.298  15.160 -0.1589  0.0800 -0.6677
 4666TIP3    H235490   1.589   5.225  15.269  1.0273 -0.0831  0.0626
 4667TIP3   OH235491   1.604   1.749   4.889  0.2312  0.5582  0.4491
 4667TIP3    H135492   1.513   1.777   4.894  0.6515  1.8155  2.0184
 4667TIP3    H235493   1.650   1.823   4.848  0.4398 -0.4213 -1.1617
 4668TIP3   OH235494   0.754   6.791  15.419  0.0178  0.2745  0.3725
 4668TIP3    H135495   0.825   6.849  15.390 -0.2222  0.5364  0.3067
 4668TIP3    H235496   0.676   6.846  15.418 -0.1036  0.1167  0.9193
 4669TIP3   OH235497   1.359   0.138  14.538 -0.1380 -0.0841  0.2335
 4669TIP3    H135498   1.435   0.189  14.508 -1.9062  3.1028  0.6899
 4669TIP3    H235499   1.363   0.057  14.487  2.8925  0.4499 -0.5785
 4670TIP3   OH235500   6.001   4.900   3.830 -0.0894  0.1265 -0.0769
 4670TIP3    H135501   5.931   4.966   3.825 -1.8347 -1.4622  1.7569
 4670TIP3    H235502   6.059   4.922   3.757 -2.1117  1.9522 -1.2736
 4671TIP3   OH235503   6.041   4.151   5.228  0.2312 -0.0611 -0.0252
 4671TIP3    H135504   6.034   4.230   5.175  0.8457  0.9119  1.2556
 4671TIP3    H235505   6.123   4.111   5.200  0.5897  0.4867  0.2142
 4672TIP3   OH235506   5.283   3.621  13.483  0.3965  0.5022 -0.3769
 4672TIP3    H135507   5.213   3.668  13.528 -0.1778  0.0603 -0.7845
 4672TIP3    H235508   5.363   3.645  13.529 -0.2707 -0.7578  1.5548
 4673TIP3   OH235509   1.591   5.488  14.809 -0.0060  0.1093 -0.6359
 4673TIP3    H135510   1.553   5.562  14.762 -0.4331  0.0622 -0.3756
 4673TIP3    H235511   1.654   5.450  14.748  0.4341  0.8642 -0.6612
 4674TIP3   OH235512   3.894   1.628   1.903 -0.3600 -0.4680  0.1591
 4674TIP3    H135513   3.955   1.559   1.930  0.4345  0.2078  0.1282
 4674TIP3    H235514   3.813   1.608   1.950  0.3128 -0.5936  1.2920
 4675TIP3   OH235515   6.592   6.569   2.320 -0.2798 -0.2120  0.5267
 4675TIP3    H135516   6.508   6.567   2.274 -0.8155  0.2998  1.4523
 4675TIP3    H235517   6.575   6.621   2.399  0.7852 -0.4995  0.9628
 4676TIP3   OH235518   5.378   4.923  11.436 -0.7696  0.2635  0.2588
 4676TIP3    H135519   5.350   4.854  11.376  0.5645  0.1022 -0.2232
 4676TIP3    H235520   5.305   4.984  11.439 -1.6540 -0.7695  0.0712
 4677TIP3   OH235521   3.692   5.206   0.098 -0.6972 -0.2190  0.2199
 4677TIP3    H135522   3.745   5.231   0.173  0.4277  0.3153 -0.7212
 4677TIP3    H235523   3.747   5.225   0.022 -2.6961  1.5986 -0.8873
 4678TIP3   OH235524   4.104   4.419  13.383  0.1122 -0.5810  0.2086
 4678TIP3    H135525   4.074   4.474  13.311 -1.2274 -1.3386  0.1344
 4678TIP3    H235526   4.099   4.330  13.348  0.8808 -0.8554  0.7692
 4679TIP3   OH235527   2.919   5.897   2.683  0.2506 -0.0631 -0.0482
 4679TIP3    H135528   2.948   5.972   2.631 -1.2605  1.0613  0.6695
 4679TIP3    H235529   2.966   5.823   2.645  0.7796  1.0239 -1.6421
 4680TIP3   OH235530   5.463   3.333   4.556 -0.4859  0.0669  0.3730
 4680TIP3    H135531   5.452   3.238   4.555 -1.6404  0.1708 -1.2686
 4680TIP3    H235532   5.477   3.357   4.464 -0.5907  1.5147  0.7039
 4681TIP3   OH235533   5.538   5.255  11.944  0.2980 -0.1653 -0.4928
 4681TIP3    H135534   5.628   5.229  11.921  0.1081 -0.8890 -0.4441
 4681TIP3    H235535   5.495   5.173  11.968  0.1418  0.4095  1.2924
 4682TIP3   OH235536   6.343   0.685   3.300  0.0487  0.3053  0.6306
 4682TIP3    H135537   6.435   0.681   3.272  1.0323  0.4423  3.5266
 4682TIP3    H235538   6.308   0.599   3.277  0.9741  0.1384 -0.2562
 4683TIP3   OH235539   1.482   3.626  11.836 -0.1954  0.4989 -0.4492
 4683TIP3    H135540   1.415   3.561  11.816  1.9734 -2.2852  0.6533
 4683TIP3    H235541   1.543   3.622  11.763 -1.1637  3.1263 -1.5291
 4684TIP3   OH235542   3.349   2.759   0.431 -0.2888  0.1068  0.1477
 4684TIP3    H135543   3.353   2.817   0.508  0.7390 -0.8007  0.8070
 4684TIP3    H235544   3.343   2.671   0.468  0.2743 -0.3497 -0.8237
 4685TIP3   OH235545   6.251   1.166   4.846 -0.0554 -0.5551  0.1206
 4685TIP3    H135546   6.308   1.232   4.888  0.0436 -0.1417 -0.6457
 4685TIP3    H235547   6.310   1.119   4.787 -0.2561 -0.9509  0.2352
 4686TIP3   OH235548   1.571   6.723  17.146  0.1901  0.2429  0.8205
 4686TIP3    H135549   1.609   6.651  17.094  0.3642  0.1599  1.0601
 4686TIP3    H235550   1.599   6.704  17.236 -1.4761 -0.5279  1.2105
 4687TIP3   OH235551   4.525   5.387  10.779 -0.0459 -0.3178 -0.4883
 4687TIP3    H135552   4.588   5.438  10.728 -0.1984 -1.0324 -1.4239
 4687TIP3    H235553   4.440   5.408  10.740 -0.6887  2.0437  1.9201
 4688TIP3   OH235554   4.788   2.245  12.882 -0.4196  0.4631 -0.3380
 4688TIP3    H135555   4.692   2.240  12.875 -0.4985  0.5517  0.4841
 4688TIP3    H235556   4.814   2.304  12.812 -0.7830 -0.9419 -1.6993
 4689TIP3   OH235557   2.955   6.143  13.556 -0.1503 -0.3743 -0.0871
 4689TIP3    H135558   2.997   6.214  13.507  0.9584 -2.1305 -1.8604
 4689TIP3    H235559   3.002   6.138  13.639 -0.3500  1.0339  0.1227
 4690TIP3   OH235560   5.775   5.135   3.656 -0.2379  0.1842 -0.2772
 4690TIP3    H135561   5.760   5.194   3.582 -0.9559  0.8659  0.3850
 4690TIP3    H235562   5.688   5.100   3.677 -0.1845  0.6136  0.7282
 4691TIP3   OH235563   6.718   4.145  13.955 -0.2993  0.9083  0.0570
 4691TIP3    H135564   6.701   4.230  13.996  0.8458  0.1348  2.3392
 4691TIP3    H235565   6.713   4.082  14.028 -0.2153 -0.8829 -1.3959
 4692TIP3   OH235566   1.521   1.561   0.501  0.4087 -0.5980 -0.4344
 4692TIP3    H135567   1.590   1.624   0.521  1.3008 -1.6890  0.0628
 4692TIP3    H235568   1.568   1.480   0.481 -0.6719 -2.5239  3.6906
 4693TIP3   OH235569   5.136   2.924   4.027  0.1975  0.8626 -0.1036
 4693TIP3    H135570   5.227   2.896   4.019 -0.0789 -0.9551  1.8628
 4693TIP3    H235571   5.115   2.908   4.119 -1.5635  3.0928 -0.0377
 4694TIP3   OH235572   2.847   4.760   0.126  0.2557 -0.3620 -0.9327
 4694TIP3    H135573   2.827   4.741   0.218 -0.9564  0.7711 -0.9288
 4694TIP3    H235574   2.879   4.850   0.127  1.0022 -0.6062 -1.5500
 4695TIP3   OH235575   4.300   3.977  12.629 -0.0797  0.2827 -0.1841
 4695TIP3    H135576   4.388   3.951  12.656  0.0825 -0.0369 -0.9954
 4695TIP3    H235577   4.308   3.996  12.535 -1.2391 -1.4797 -0.6864
 4696TIP3   OH235578   5.756   1.199   2.709 -0.7281 -0.4163  0.2451
 4696TIP3    H135579   5.753   1.264   2.639  0.7672 -1.3411 -0.7482
 4696TIP3    H235580   5.775   1.250   2.788  0.9744  0.3280 -0.5972
 4697TIP3   OH235581   5.317   1.835  12.018  0.0124  0.7101 -0.4694
 4697TIP3    H135582   5.298   1.854  11.926  2.3478  0.8004 -0.9775
 4697TIP3    H235583   5.382   1.765  12.016 -0.5400  0.0972  1.1602
 4698TIP3   OH235584   3.573   1.733  13.189  0.0433 -0.5951 -0.0158
 4698TIP3    H135585   3.488   1.764  13.221  0.5228  0.2925  0.4393
 4698TIP3    H235586   3.616   1.697  13.267  0.0966 -1.0415 -0.2452
 4699TIP3   OH235587   4.818   3.797   2.465  0.1607 -0.2011  0.0707
 4699TIP3    H135588   4.871   3.807   2.387  0.5048  0.4439  0.3754
 4699TIP3    H235589   4.853   3.862   2.526  0.6707 -1.4893  1.1934
 4700TIP3   OH235590   4.418   5.736   5.467 -0.4551  0.1000 -0.5882
 4700TIP3    H135591   4.388   5.749   5.377 -0.9956 -0.7719 -0.5543
 4700TIP3    H235592   4.358   5.670   5.502 -1.3622  1.6964  0.9838
 4701TIP3   OH235593   0.449   0.953   5.919 -0.0553 -0.2478 -0.1123
 4701TIP3    H135594   0.424   1.011   5.847 -1.3259  0.1418  0.6033
 4701TIP3    H235595   0.482   1.012   5.987 -1.0521 -0.3731  0.4985
 4702TIP3   OH235596   3.571   5.448  12.573 -0.3324  0.2388 -0.0101
 4702TIP3    H135597   3.618   5.487  12.646 -0.6114  0.8893 -0.1708
 4702TIP3    H235598   3.548   5.522  12.517  0.7995 -0.3368 -1.3109
 4703TIP3   OH235599   1.696   0.030   1.280  0.1171 -0.5607 -0.1260
 4703TIP3    H135600   1.694  -0.065   1.285 -0.7322 -0.5558 -0.1995
 4703TIP3    H235601   1.610   0.054   1.246  0.4169  0.2193 -0.3568
 4704TIP3   OH235602   2.256   6.809   5.548  0.1588  1.1177  0.2423
 4704TIP3    H135603   2.315   6.749   5.594 -0.7077  0.4150  0.4606
 4704TIP3    H235604   2.263   6.891   5.597 -0.3429  0.5365  1.3259
 4705TIP3   OH235605   1.250   1.252   4.000 -0.7706 -0.7285 -0.2179
 4705TIP3    H135606   1.230   1.159   4.011 -1.8481 -0.5834 -0.7959
 4705TIP3    H235607   1.341   1.254   3.972 -0.8495 -1.6436 -0.5759
 4706TIP3   OH235608   6.531   3.338   4.576 -0.3391 -0.2406 -0.1296
 4706TIP3    H135609   6.483   3.416   4.604 -2.9347  0.1761 -4.6958
 4706TIP3    H235610   6.608   3.372   4.531  1.2263 -0.7046  2.0049
 4707TIP3   OH235611   6.394   3.410  11.012 -0.5784 -0.2200 -0.2811
 4707TIP3    H135612   6.378   3.482  11.073 -0.4908 -0.8560  0.4971
 4707TIP3    H235613   6.486   3.388  11.023 -0.2716  0.3903 -1.4547
 4708TIP3   OH235614   6.456   3.947  13.582 -0.0081 -0.3442 -0.2308
 4708TIP3    H135615   6.397   4.007  13.535 -0.2250  0.0103  0.4709
 4708TIP3    H235616   6.543   3.969  13.550 -0.2830 -1.2215 -1.6566
 4709TIP3   OH235617   1.650   2.806   5.861 -0.1243 -0.0615  0.0801
 4709TIP3    H135618   1.674   2.897   5.874  1.0896 -0.4818  0.9381
 4709TIP3    H235619   1.711   2.756   5.915  0.1508 -1.4839 -1.4432
 4710TIP3   OH235620   3.187   2.901  15.843  0.0268 -0.4413 -0.5136
 4710TIP3    H135621   3.141   2.838  15.788  1.1474 -0.4080 -1.5410
 4710TIP3    H235622   3.204   2.853  15.924 -0.8615 -0.7931 -0.5241
 4711TIP3   OH235623   4.864   5.329  12.436 -0.3484 -0.0861  0.5467
 4711TIP3    H135624   4.929   5.292  12.376  0.5260  0.1760  1.3235
 4711TIP3    H235625   4.913   5.390  12.491 -0.6610 -1.9322  3.0426
 4712TIP3   OH235626   0.318   6.385   3.951  0.0649 -0.2043  0.2097
 4712TIP3    H135627   0.371   6.388   3.871  0.4765  0.0782  0.4859
 4712TIP3    H235628   0.228   6.397   3.921  0.1728 -0.5536 -0.2550
 4713TIP3   OH235629   3.336   1.067  16.408  0.1092  0.9151 -0.0636
 4713TIP3    H135630   3.406   1.088  16.346 -0.5434 -0.5892 -1.4096
 4713TIP3    H235631   3.374   1.000  16.465 -0.3563 -0.3444 -1.1752
 4714TIP3   OH235632   0.206   5.656  13.680 -0.7061 -0.4588 -0.0976
 4714TIP3    H135633   0.113   5.669  13.661 -0.6613  0.5334  0.3148
 4714TIP3    H235634   0.252   5.716  13.621 -0.3313 -0.8597 -0.2205
 4715TIP3   OH235635   1.448   0.013   1.158  0.6959  0.3687  0.0235
 4715TIP3    H135636   1.419  -0.077   1.143  0.5815  0.5511 -0.9256
 4715TIP3    H235637   1.383   0.050   1.218 -0.1916  0.3000 -0.8723
 4716TIP3   OH235638   5.224   0.629  10.672  0.1974 -0.2464  0.0533
 4716TIP3    H135639   5.244   0.570  10.599 -0.3600  2.1805 -2.2181
 4716TIP3    H235640   5.129   0.622  10.683  0.2346 -0.3352  0.3421
 4717TIP3   OH235641   5.554   2.013  13.671 -0.0662 -0.1388 -0.5774
 4717TIP3    H135642   5.558   2.101  13.633  0.6653  0.2931  0.4597
 4717TIP3    H235643   5.536   2.028  13.764 -0.0813 -1.0973 -0.4206
 4718TIP3   OH235644   3.177   5.648   2.992 -0.4025  0.1047 -0.1607
 4718TIP3    H135645   3.209   5.650   2.901 -0.8655 -0.7970 -0.3629
 4718TIP3    H235646   3.193   5.558   3.020 -1.3374  0.0580  0.2522
 4719TIP3   OH235647   1.813   6.023   0.379  0.2217 -0.2927 -0.0991
 4719TIP3    H135648   1.906   6.039   0.398  0.7596 -1.1022 -1.8190
 4719TIP3    H235649   1.810   5.931   0.352 -1.4549 -0.8834  1.8701
 4720TIP3   OH235650   4.953   5.102  14.163 -0.2519 -0.2064  0.8187
 4720TIP3    H135651   4.931   5.185  14.121  0.2326 -0.2496  0.4711
 4720TIP3    H235652   4.894   5.097  14.238 -0.6887  0.1708  0.5073
 4721TIP3   OH235653   4.100   5.839   2.244 -0.0017  0.0526 -0.0162
 4721TIP3    H135654   4.005   5.832   2.234  0.0534  0.4367 -0.9568
 4721TIP3    H235655   4.117   5.815   2.335 -0.8824 -1.0580 -0.1263
 4722TIP3   OH235656   5.458   3.107  13.485 -0.7177 -0.2195  0.2844
 4722TIP3    H135657   5.417   3.177  13.434 -0.9863  0.0279  0.8307
 4722TIP3    H235658   5.401   3.031  13.472 -0.1014 -0.5194 -0.7959
 4723TIP3   OH235659   0.840   0.520   2.331 -0.3718 -0.0891  0.1038
 4723TIP3    H135660   0.782   0.445   2.345 -1.1315  0.4446 -0.1606
 4723TIP3    H235661   0.812   0.557   2.248  0.8240 -0.2356 -0.3895
 4724TIP3   OH235662   6.543   2.681   0.534  0.2307 -0.4010 -0.3532
 4724TIP3    H135663   6.463   2.641   0.502  0.2831 -0.7015 -0.1139
 4724TIP3    H235664   6.612   2.621   0.509  0.2102 -0.9344  0.8167
 4725TIP3   OH235665   0.274   6.097  12.417  0.4252  0.7325  0.1938
 4725TIP3    H135666   0.198   6.058  12.375 -0.9639  0.3281  2.8414
 4725TIP3    H235667   0.333   6.118  12.345 -1.6850  0.0199 -1.8894
 4726TIP3   OH235668   3.076   3.687  13.025 -0.1094 -0.3343 -0.0351
 4726TIP3    H135669   3.029   3.616  13.070 -1.4821  0.7871  0.3827
 4726TIP3    H235670   3.153   3.703  13.080 -0.9606 -0.0128  1.1167
 4727TIP3   OH235671   4.126   3.220  16.884 -0.1489  0.4342 -0.2892
 4727TIP3    H135672   4.149   3.256  16.798  1.0983  0.9955  0.2464
 4727TIP3    H235673   4.179   3.271  16.946 -3.5969  2.5060  1.2189
 4728TIP3   OH235674   4.109   0.595  16.559 -0.7077  0.2851  0.6817
 4728TIP3    H135675   4.030   0.552  16.593  1.0798 -2.6441  1.4682
 4728TIP3    H235676   4.163   0.523  16.526  2.3992  1.9557  1.7549
 4729TIP3   OH235677   5.468   0.857  16.085  0.0896  0.7515 -0.0794
 4729TIP3    H135678   5.492   0.882  15.996  1.1683 -0.9599 -0.3307
 4729TIP3    H235679   5.374   0.871  16.090  0.2298  2.1660 -1.0280
 4730TIP3   OH235680   1.773   1.183  13.290 -0.0835 -0.1916  0.7394
 4730TIP3    H135681   1.753   1.264  13.338 -1.5886  1.7731 -2.8106
 4730TIP3    H235682   1.868   1.175  13.295 -0.0183  1.0783  2.2474
 4731TIP3   OH235683   2.755   3.969   5.596  0.3259  0.2405  0.0797
 4731TIP3    H135684   2.701   4.010   5.664 -0.4322  1.9166 -1.4711
 4731TIP3    H235685   2.747   3.875   5.613 -0.1499  0.5882  2.0526
 4732TIP3   OH235686   5.684   0.544   1.684  0.1613  0.3737 -0.1473
 4732TIP3    H135687   5.630   0.623   1.692 -0.8767 -0.3306  0.0844
 4732TIP3    H235688   5.646   0.483   1.748  0.1656 -0.7310 -1.1657
 4733TIP3   OH235689   4.630   4.300  11.970  0.1140 -0.1114 -0.1384
 4733TIP3    H135690   4.650   4.225  11.914  0.4506  0.6020 -0.9763
 4733TIP3    H235691   4.623   4.374  11.910 -2.1457  0.2153  0.4179
 4734TIP3   OH235692   3.401   4.547   2.032 -0.2716 -0.4112  0.5471
 4734TIP3    H135693   3.439   4.599   1.962 -0.3324 -0.4378  0.4949
 4734TIP3    H235694   3.445   4.462   2.026 -1.9238 -1.2142 -0.9384
 4735TIP3   OH235695   4.620   6.072   3.486 -0.2387 -0.0006  0.0325
 4735TIP3    H135696   4.540   6.030   3.455 -0.0752 -0.4542  0.2031
 4735TIP3    H235697   4.639   6.028   3.570 -1.0549  1.6886  1.1455
 4736TIP3   OH235698   3.875   0.028   4.527 -0.7939 -0.0011 -0.5019
 4736TIP3    H135699   3.891   0.086   4.452 -1.2979  0.0640 -0.5616
 4736TIP3    H235700   3.816  -0.039   4.493 -2.1189  0.7774  0.1767
 4737TIP3   OH235701   2.450   1.055  12.116 -0.1333  0.0741 -0.2639
 4737TIP3    H135702   2.356   1.070  12.125 -0.2721 -1.4918  1.3040
 4737TIP3    H235703   2.468   0.979  12.171  2.1071  0.4733 -0.3549
 4738TIP3   OH235704   5.756   0.948   5.529 -0.0866 -0.0824  0.3973
 4738TIP3    H135705   5.753   0.853   5.517 -0.5900  0.0015 -0.1756
 4738TIP3    H235706   5.740   0.984   5.442 -0.6926  0.5344  0.7547
 4739TIP3   OH235707   6.756   4.604  11.395 -0.2245  0.0303 -0.4002
 4739TIP3    H135708   6.710   4.524  11.419  0.4143 -0.5189 -0.9718
 4739TIP3    H235709   6.820   4.576  11.330 -1.4386  1.3376 -2.2798
 4740TIP3   OH235710   4.033   4.337  15.731  0.5877 -0.1713  0.2761
 4740TIP3    H135711   4.027   4.380  15.817 -0.1743 -0.8034  0.5523
 4740TIP3    H235712   4.072   4.404  15.674  0.0710  0.6512  0.8531
 4741TIP3   OH235713   3.665   5.780   5.689 -0.8389 -0.0034  0.5443
 4741TIP3    H135714   3.692   5.867   5.660  0.0600 -0.1285  0.9783
 4741TIP3    H235715   3.680   5.781   5.783 -0.7403 -0.6537  0.5391
 4742TIP3   OH235716   1.235   3.378  16.878  0.1562 -0.7104  0.4191
 4742TIP3    H135717   1.201   3.320  16.810 -0.6879  0.6179 -0.3169
 4742TIP3    H235718   1.278   3.318  16.940 -0.7993 -2.1336 -0.2346
 4743TIP3   OH235719   4.928   6.101   6.023 -0.3598 -0.0491  0.4682
 4743TIP3    H135720   4.932   6.066   5.934 -1.8488  1.2370 -0.1554
 4743TIP3    H235721   5.019   6.119   6.046  0.2197 -2.0663 -0.0725
 4744TIP3   OH235722   4.717   4.805  11.788 -0.6083 -0.3810  0.3862
 4744TIP3    H135723   4.665   4.772  11.714  1.7382 -0.3949 -1.3453
 4744TIP3    H235724   4.781   4.736  11.804 -0.0143  0.3764  1.3370
 4745TIP3   OH235725   4.527   1.228   5.205  0.1274  0.4163 -0.1500
 4745TIP3    H135726   4.562   1.313   5.179  0.3450 -0.5709 -3.5734
 4745TIP3    H235727   4.439   1.247   5.237  0.6476  2.0311  0.3761
 4746TIP3   OH235728   4.574   0.812  12.416 -0.2220  0.0207 -0.1339
 4746TIP3    H135729   4.638   0.862  12.365  0.2905  1.2139  1.5864
 4746TIP3    H235730   4.532   0.877  12.472  0.3085 -1.3903  2.0231
 4747TIP3   OH235731   6.496   0.261   3.397  0.2555  0.1263  0.0329
 4747TIP3    H135732   6.403   0.274   3.378 -0.3684 -1.7538  1.5131
 4747TIP3    H235733   6.509   0.301   3.483  0.9660  0.7730 -0.3537
 4748TIP3   OH235734   0.549   6.210  13.308  0.2614  0.6441  0.3868
 4748TIP3    H135735   0.457   6.229  13.290  0.3301  1.4797  0.8954
 4748TIP3    H235736   0.580   6.166  13.228 -0.9034 -0.8724  0.7261
 4749TIP3   OH235737   1.492   3.524   3.902  0.3567 -0.1969  0.1367
 4749TIP3    H135738   1.472   3.435   3.930  0.9629 -1.0931 -1.9942
 4749TIP3    H235739   1.476   3.523   3.807  0.4901  1.9440  0.0392
 4750TIP3   OH235740   5.329   5.393   1.097 -0.6618  0.5893 -0.1373
 4750TIP3    H135741   5.366   5.332   1.162  0.0161  0.9616 -0.1669
 4750TIP3    H235742   5.317   5.474   1.145  0.0815  0.9420 -0.5313
 4751TIP3   OH235743   3.351   0.681   5.711  0.4246  0.0482 -0.3771
 4751TIP3    H135744   3.276   0.635   5.673  0.9364 -1.3516  0.2566
 4751TIP3    H235745   3.340   0.672   5.805  0.7359  0.9261 -0.2466
 4752TIP3   OH235746   0.855   4.995   0.079  0.0136 -0.0080 -0.1240
 4752TIP3    H135747   0.761   5.010   0.095 -0.3178 -2.1938  0.3420
 4752TIP3    H235748   0.868   5.021  -0.012 -1.3488 -0.8175 -0.5776
 4753TIP3   OH235749   5.784   3.522  15.346 -0.1070  0.2373 -0.3621
 4753TIP3    H135750   5.747   3.604  15.377 -0.3729 -0.3987  1.0936
 4753TIP3    H235751   5.807   3.474  15.426  1.8302 -0.3086 -1.1921
 4754TIP3   OH235752   4.766   2.611  13.220  0.3104 -0.2762 -0.3825
 4754TIP3    H135753   4.792   2.529  13.179 -1.6703 -0.1949 -2.0003
 4754TIP3    H235754   4.677   2.595  13.252 -1.1862  1.8731 -3.0504
 4755TIP3   OH235755   6.424   2.724  15.329 -0.7832 -0.2129  0.0603
 4755TIP3    H135756   6.477   2.733  15.250 -1.8883 -1.4912 -0.8613
 4755TIP3    H235757   6.486   2.693  15.395 -0.1414 -0.6269 -0.7121
 4756TIP3   OH235758   5.132   1.223   1.309  0.6784 -0.4955 -0.2063
 4756TIP3    H135759   5.120   1.154   1.374  1.1750  0.9703  1.5221
 4756TIP3    H235760   5.043   1.258   1.295  0.7174 -0.0738  0.5608
 4757TIP3   OH235761   6.125   0.846  12.213  0.1622  0.5705  0.1738
 4757TIP3    H135762   6.218   0.868  12.215 -0.2263  2.2885  1.6298
 4757TIP3    H235763   6.121   0.766  12.161  2.5686 -0.1128  0.8946
 4758TIP3   OH235764   3.067   1.459  14.933  0.4410  0.6002  0.0886
 4758TIP3    H135765   3.130   1.393  14.905  0.9363  0.3284  1.7508
 4758TIP3    H235766   3.102   1.541  14.898  1.6253  0.4229  0.8004
 4759TIP3   OH235767   4.714   1.796  13.640  0.6787 -0.2220  0.2368
 4759TIP3    H135768   4.650   1.798  13.711  1.1973  0.7139  0.6959
 4759TIP3    H235769   4.686   1.723  13.584 -0.3761 -0.2643  0.8010
 4760TIP3   OH235770   1.375   6.217   4.066 -0.3647 -0.2093 -0.8099
 4760TIP3    H135771   1.388   6.183   4.155 -0.2610 -0.8655 -1.0752
 4760TIP3    H235772   1.419   6.154   4.009  1.4090  1.3153 -1.1886
 4761TIP3   OH235773   2.964   4.607   6.299  0.7401  0.5607  0.2544
 4761TIP3    H135774   3.040   4.557   6.269  1.0949  0.5723  1.1190
 4761TIP3    H235775   2.916   4.546   6.355 -0.5296  0.1662 -1.1993
 4762TIP3   OH235776   2.929   3.907  14.517  0.1892 -0.7223 -0.1131
 4762TIP3    H135777   2.857   3.854  14.551  0.1424 -1.9203 -1.9420
 4762TIP3    H235778   2.927   3.892  14.422 -0.4952  3.4085 -0.9244
 4763TIP3   OH235779   3.482   4.248  12.018 -0.0547 -0.8116 -0.8336
 4763TIP3    H135780   3.544   4.175  12.022  1.1312  0.1140 -1.4294
 4763TIP3    H235781   3.441   4.240  11.932 -0.9737 -1.5691 -0.3410
 4764TIP3   OH235782   5.607   3.745   2.608 -0.6576 -0.0541  0.6560
 4764TIP3    H135783   5.531   3.772   2.556  0.5832  0.5018 -0.9204
 4764TIP3    H235784   5.606   3.805   2.683 -2.0113 -0.3397  0.8958
 4765TIP3   OH235785   1.232   1.605  12.275  0.1694  0.5231  0.3413
 4765TIP3    H135786   1.165   1.537  12.276  0.5490  0.1418  0.3038
 4765TIP3    H235787   1.236   1.636  12.366 -2.0965  2.6110 -0.1820
 4766TIP3   OH235788   4.137   2.459   3.007 -0.1302  0.0203  0.3177
 4766TIP3    H135789   4.189   2.390   2.965  1.6439  1.6801 -0.3600
 4766TIP3    H235790   4.150   2.536   2.952 -1.1568  1.2041  1.6421
 4767TIP3   OH235791   6.329   1.732  11.999  0.3442 -0.1041 -0.0797
 4767TIP3    H135792   6.316   1.673  11.924  0.9798  1.8412 -1.8490
 4767TIP3    H235793   6.241   1.760  12.023  0.1871  0.0825 -0.8422
 4768TIP3   OH235794   6.632   4.589  14.076 -0.0124 -0.2359  0.2915
 4768TIP3    H135795   6.574   4.645  14.023  0.1037  2.1463  2.4636
 4768TIP3    H235796   6.680   4.538  14.012  0.1885  2.5209 -1.9852
 4769TIP3   OH235797   5.048   3.898   1.792  0.2837  0.2208 -0.0411
 4769TIP3    H135798   5.049   3.932   1.703  0.1370  0.0214 -0.1201
 4769TIP3    H235799   5.076   3.972   1.846 -0.5897  0.6417 -0.1493
 4770TIP3   OH235800   4.685   2.476  16.312  0.5409  0.6181  0.0392
 4770TIP3    H135801   4.684   2.412  16.241  2.7863  1.7577 -1.1360
 4770TIP3    H235802   4.622   2.443  16.375 -1.3175 -0.6432 -2.3101
 4771TIP3   OH235803   6.251   0.704  16.014 -0.4610  0.1983  0.2383
 4771TIP3    H135804   6.276   0.736  15.927  0.2836 -0.0770  0.3475
 4771TIP3    H235805   6.255   0.782  16.070  3.2898 -0.3261  0.9367
 4772TIP3   OH235806   3.761   5.194   0.745  0.6858 -0.0949  0.2795
 4772TIP3    H135807   3.824   5.232   0.684  1.5136 -1.3308  0.3569
 4772TIP3    H235808   3.708   5.135   0.691  1.5361 -1.3307  0.7620
 4773TIP3   OH235809   3.916   0.936  11.295 -0.1789  0.0042  0.2946
 4773TIP3    H135810   3.885   1.014  11.341  2.1413  1.4862 -0.4661
 4773TIP3    H235811   3.952   0.969  11.213  0.8009 -1.8680 -0.0850
 4774TIP3   OH235812   1.322   5.836   5.914  0.5470 -0.1189 -0.2190
 4774TIP3    H135813   1.398   5.780   5.903  1.5883  0.8732  1.5120
 4774TIP3    H235814   1.324   5.893   5.837  2.5374  0.9486  0.5504
 4775TIP3   OH235815   5.186   1.717  16.851  0.2245 -0.1928 -0.3577
 4775TIP3    H135816   5.254   1.650  16.850  0.3701 -0.0974  1.1078
 4775TIP3    H235817   5.192   1.759  16.766  0.9265 -1.2440 -0.8447
 4776TIP3   OH235818   1.610   5.212   1.034  0.0880 -0.1947 -0.2026
 4776TIP3    H135819   1.682   5.221   1.096  1.6287 -1.3782 -1.7521
 4776TIP3    H235820   1.625   5.281   0.969  0.7436 -1.3776 -1.3582
 4777TIP3   OH235821   0.561   4.773  16.435 -0.6571  0.1107  0.2619
 4777TIP3    H135822   0.559   4.695  16.380  0.1081 -0.2967  0.7971
 4777TIP3    H235823   0.542   4.741  16.523  1.2822  0.2482  0.7790
 4778TIP3   OH235824   5.778   6.622   3.318 -0.0831  0.0251 -0.6581
 4778TIP3    H135825   5.841   6.585   3.255  0.1863 -0.8696  0.1162
 4778TIP3    H235826   5.747   6.546   3.368 -0.2408  0.7352  0.3394
 4779TIP3   OH235827   1.821   5.681  11.565 -0.5583  0.1605  0.2881
 4779TIP3    H135828   1.765   5.722  11.631 -1.6621  0.2063 -0.6331
 4779TIP3    H235829   1.797   5.726  11.483  0.6760  0.0200 -0.1669
 4780TIP3   OH235830   1.009   2.294  12.661  0.2591 -0.1526 -0.7803
 4780TIP3    H135831   0.914   2.306  12.666  0.2306 -0.4723 -0.5623
 4780TIP3    H235832   1.045   2.382  12.674  0.0158 -0.1428 -0.1600
 4781TIP3   OH235833   2.347   3.619  10.830 -0.4039 -0.4065  0.0764
 4781TIP3    H135834   2.397   3.643  10.909  1.5446 -0.7388 -0.9947
 4781TIP3    H235835   2.407   3.636  10.758 -1.1584 -2.6536 -1.1706
 4782TIP3   OH235836   1.163   0.438   2.846 -0.1263  0.1371  0.1190
 4782TIP3    H135837   1.239   0.435   2.904  0.9603 -0.5454 -1.2810
 4782TIP3    H235838   1.099   0.380   2.888  1.0254 -1.1661  0.1596
 4783TIP3   OH235839   1.697   1.806  13.916 -0.0047 -0.2954 -0.5167
 4783TIP3    H135840   1.718   1.720  13.879 -1.0306 -0.9312  0.3146
 4783TIP3    H235841   1.650   1.786  13.998  0.0526  1.0576 -0.1280
 4784TIP3   OH235842   1.729   3.970   3.159  0.1880  0.0255 -0.4547
 4784TIP3    H135843   1.672   3.971   3.082 -1.3769 -1.4978  0.5929
 4784TIP3    H235844   1.799   4.032   3.138 -1.1163  0.9693 -2.3724
 4785TIP3   OH235845   5.567   6.427   1.367  0.2952 -0.0722 -0.6486
 4785TIP3    H135846   5.591   6.520   1.371  1.2525 -0.2673 -1.3910
 4785TIP3    H235847   5.618   6.387   1.438 -0.1023 -0.0370 -0.3416
 4786TIP3   OH235848   3.125   1.309   4.369 -0.4095  1.1070 -0.0065
 4786TIP3    H135849   3.168   1.276   4.289  3.2646  0.4646  2.0125
 4786TIP3    H235850   3.190   1.366   4.409 -0.4223 -1.5334  4.3777
 4787TIP3   OH235851   5.393   4.578   4.932 -0.2067 -0.2263 -0.6084
 4787TIP3    H135852   5.443   4.659   4.921 -0.1262 -0.2214 -0.2259
 4787TIP3    H235853   5.426   4.540   5.013  0.2566 -1.0085 -1.1403
 4788TIP3   OH235854   1.368   5.183   1.953  0.1712 -0.2295 -0.0406
 4788TIP3    H135855   1.451   5.218   1.986 -0.9092  2.2276  0.2917
 4788TIP3    H235856   1.308   5.193   2.027 -1.3163  1.6615 -1.4060
 4789TIP3   OH235857   6.346   0.437   5.572  0.4430 -0.3783 -0.7579
 4789TIP3    H135858   6.321   0.514   5.623 -0.0221 -0.2953 -1.1052
 4789TIP3    H235859   6.441   0.435   5.576  0.3852 -0.7969  0.7360
 4790TIP3   OH235860   0.509   5.169  15.369 -0.0372 -0.5111 -0.2555
 4790TIP3    H135861   0.590   5.197  15.327 -0.3996 -0.9630 -1.2766
 4790TIP3    H235862   0.476   5.098  15.314 -1.9705  0.7018 -0.7735
 4791TIP3   OH235863   2.913   4.697   2.441 -0.3809  0.3856 -0.1336
 4791TIP3    H135864   2.891   4.781   2.481  0.6590  0.0180  1.2898
 4791TIP3    H235865   2.967   4.652   2.506  1.4566 -0.2487 -1.9589
 4792TIP3   OH235866   0.269   3.497   0.701 -0.6987  0.1967 -0.3515
 4792TIP3    H135867   0.292   3.543   0.620  1.2082 -0.2960 -0.1381
 4792TIP3    H235868   0.242   3.410   0.672 -2.2881  0.7214 -0.5875
 4793TIP3   OH235869   0.091   2.894  16.951 -0.2027 -0.4789  0.4322
 4793TIP3    H135870   0.093   2.987  16.976  1.5428 -0.4390  0.3086
 4793TIP3    H235871   0.007   2.862  16.984 -0.6696  1.0506  0.8228
 4794TIP3   OH235872   5.921   2.469  11.591 -0.1013  0.0837 -0.4609
 4794TIP3    H135873   5.830   2.494  11.572 -0.2647 -0.5496 -0.5048
 4794TIP3    H235874   5.936   2.504  11.679 -0.0933  0.9754 -0.8035
 4795TIP3   OH235875   0.584   6.513  12.377  0.7868 -0.9762 -0.3900
 4795TIP3    H135876   0.605   6.514  12.470  1.4910 -0.5060 -0.5458
 4795TIP3    H235877   0.488   6.517  12.374  0.8037  0.9689  0.3038
 4796TIP3   OH235878   3.735   6.194  11.999  0.0346 -0.1121 -0.3920
 4796TIP3    H135879   3.733   6.192  12.095  0.6301  1.7187 -0.3022
 4796TIP3    H235880   3.676   6.123  11.972 -2.0191  0.8238  1.3347
 4797TIP3   OH235881   0.599   1.234   2.180 -0.1154 -0.1614 -0.2886
 4797TIP3    H135882   0.556   1.297   2.122  0.5674  0.3048 -0.3076
 4797TIP3    H235883   0.594   1.274   2.266  0.2681 -0.1022 -0.2906
 4798TIP3   OH235884   4.266   1.004  10.691 -0.2438 -0.2810  0.7749
 4798TIP3    H135885   4.274   1.087  10.643  2.2255  0.3997  2.2102
 4798TIP3    H235886   4.171   0.989  10.695 -0.7113  1.7466 -0.6941
 4799TIP3   OH235887   1.127   5.674  13.583 -0.1027  0.9179 -0.3222
 4799TIP3    H135888   1.195   5.742  13.585  1.3333 -0.3533  3.5897
 4799TIP3    H235889   1.066   5.698  13.653 -1.4448 -0.0940 -1.0964
 4800TIP3   OH235890   0.218   2.484  15.696 -0.6342  0.4388 -0.1739
 4800TIP3    H135891   0.258   2.561  15.655 -0.0551  0.5767  0.6368
 4800TIP3    H235892   0.124   2.499  15.688 -0.5268  1.2426 -0.0138
 4801TIP3   OH235893   6.506   1.050   4.528 -0.1606 -0.4749  0.1330
 4801TIP3    H135894   6.484   1.015   4.614 -0.9477  0.7341  0.4529
 4801TIP3    H235895   6.542   0.976   4.480  1.0677 -0.9816  1.7671
 4802TIP3   OH235896   1.815   6.595   1.951  0.2630  0.0961  0.5165
 4802TIP3    H135897   1.902   6.566   1.976  0.4241 -0.1716 -0.3333
 4802TIP3    H235898   1.830   6.667   1.889 -0.1273  0.8073  1.2258
 4803TIP3   OH235899   2.614   0.187  16.833 -0.4855  0.1636 -0.2929
 4803TIP3    H135900   2.562   0.126  16.780 -0.9841 -0.5323  0.9643
 4803TIP3    H235901   2.672   0.131  16.884 -1.0365  0.6976  0.9742
 4804TIP3   OH235902   2.292   0.623   4.507  1.1294 -0.4438 -0.1511
 4804TIP3    H135903   2.275   0.542   4.556  0.1762 -0.9088 -1.1946
 4804TIP3    H235904   2.211   0.674   4.517  0.6219 -0.8684 -1.7974
 4805TIP3   OH235905   4.985   0.315  12.517 -0.3343  0.4280 -0.6800
 4805TIP3    H135906   5.052   0.323  12.449 -0.7203 -0.2141 -1.1404
 4805TIP3    H235907   4.947   0.403  12.523 -0.0782  0.5676 -1.0685
 4806TIP3   OH235908   2.488   0.321   2.075  0.3706 -0.3000  0.4341
 4806TIP3    H135909   2.493   0.380   2.150 -0.7484 -0.1134  0.3710
 4806TIP3    H235910   2.452   0.375   2.004  0.6065 -0.7027  0.0011
 4807TIP3   OH235911   0.053   2.487  14.660  0.4664  0.2270  0.5272
 4807TIP3    H135912   0.036   2.417  14.724 -0.7976 -0.0462 -0.0783
 4807TIP3    H235913   0.068   2.440  14.578  0.9097  0.6256  0.3780
 4808TIP3   OH235914   1.401   0.443   4.960 -0.0695  0.4711 -0.0965
 4808TIP3    H135915   1.470   0.408   4.904  0.6385  0.2488  0.8835
 4808TIP3    H235916   1.443   0.453   5.046 -1.3537 -0.0126  0.6175
 4809TIP3   OH235917   2.314   6.137  15.452  0.0179  0.0160  0.6006
 4809TIP3    H135918   2.220   6.133  15.467  0.0269 -2.4684  0.4210
 4809TIP3    H235919   2.327   6.217  15.402 -1.9165  0.7031  1.1078
 4810TIP3   OH235920   0.275   5.895  15.315 -0.3684  0.7808  0.1361
 4810TIP3    H135921   0.309   5.827  15.372  0.4171 -0.2813 -1.5138
 4810TIP3    H235922   0.235   5.959  15.374 -0.6852 -0.8448  1.7603
 4811TIP3   OH235923   4.024   2.103  11.218 -0.0525 -0.3698 -0.0466
 4811TIP3    H135924   3.990   2.032  11.273  0.4252  0.5272  1.4697
 4811TIP3    H235925   3.948   2.158  11.200 -0.0462 -0.1558  0.5450
 4812TIP3   OH235926   1.074   4.329   5.707 -0.5715 -0.2118  0.1117
 4812TIP3    H135927   1.123   4.385   5.767 -1.5894  0.9372 -0.0754
 4812TIP3    H235928   1.010   4.388   5.667 -0.7968 -1.2395 -1.1101
 4813TIP3   OH235929   3.161   5.482   4.246  0.1002  0.5309  0.3402
 4813TIP3    H135930   3.078   5.445   4.217 -0.1199 -0.6873  2.3139
 4813TIP3    H235931   3.174   5.560   4.192 -0.6481 -1.0742 -2.2966
 4814TIP3   OH235932   0.886   2.200   5.152  0.2518  0.0840  0.7213
 4814TIP3    H135933   0.828   2.276   5.159 -0.6195 -0.4163 -0.5987
 4814TIP3    H235934   0.914   2.183   5.242 -0.1419  1.4927  1.1361
 4815TIP3   OH235935   2.497   0.160  12.674 -0.4075 -0.2748 -0.4242
 4815TIP3    H135936   2.580   0.132  12.636  0.3753  0.7343  0.4683
 4815TIP3    H235937   2.432   0.145  12.605  0.5464 -0.8694 -1.2164
 4816TIP3   OH235938   2.100   3.862  15.605  0.1378  0.5802  0.2293
 4816TIP3    H135939   2.061   3.856  15.692 -0.5975 -1.0458 -0.1711
 4816TIP3    H235940   2.027   3.884  15.548  0.1287 -0.6434 -0.2649
 4817TIP3   OH235941   4.325   1.075  15.621  0.3687 -0.4847 -0.2957
 4817TIP3    H135942   4.384   1.139  15.580  1.0601 -1.5757 -1.0552
 4817TIP3    H235943   4.349   1.077  15.713 -1.2679  2.0716  0.1760
 4818TIP3   OH235944   1.983   2.381  12.107 -0.5339  0.2990 -0.0313
 4818TIP3    H135945   1.986   2.377  12.011 -2.0934 -2.9825 -0.0802
 4818TIP3    H235946   2.063   2.336  12.135 -0.2527  0.9491  0.2302
 4819TIP3   OH235947   3.588   4.144  14.713 -0.1438 -0.0453  0.0194
 4819TIP3    H135948   3.672   4.185  14.689 -0.2197 -0.1532 -0.4452
 4819TIP3    H235949   3.524   4.214  14.702 -0.4748 -0.6152 -2.1199
 4820TIP3   OH235950   5.214   6.330  15.303 -0.0976 -0.2823  0.8108
 4820TIP3    H135951   5.281   6.382  15.258  0.1068  0.3174  1.7838
 4820TIP3    H235952   5.258   6.295  15.380 -0.9037  0.1747  1.5022
 4821TIP3   OH235953   5.232   4.227  11.486  0.6856 -0.4856 -0.2481
 4821TIP3    H135954   5.218   4.249  11.579  2.5057 -0.3040  0.0123
 4821TIP3    H235955   5.146   4.197  11.456  0.2200 -1.2651  1.6969
 4822TIP3   OH235956   4.798   0.179  13.617 -0.0659  0.3958 -0.2225
 4822TIP3    H135957   4.835   0.208  13.534 -0.5589  0.8587 -0.2787
 4822TIP3    H235958   4.708   0.211  13.617 -0.8905 -1.7258 -0.6155
 4823TIP3   OH235959   5.342   5.305   6.026 -0.0643  0.3870  0.1972
 4823TIP3    H135960   5.437   5.300   6.030  0.2467  2.0266 -2.4503
 4823TIP3    H235961   5.315   5.223   5.984  0.3945  0.7156 -0.7626
 4824TIP3   OH235962   4.862   4.722  17.016  0.2172  0.6088  0.4692
 4824TIP3    H135963   4.858   4.815  17.036 -3.4545  0.6480  0.1815
 4824TIP3    H235964   4.865   4.719  16.920  0.6186  0.4119  0.4852
 4825TIP3   OH235965   1.609   4.865  11.334 -0.3226  0.0916  0.3665
 4825TIP3    H135966   1.649   4.909  11.260  0.8851  0.9118  1.4637
 4825TIP3    H235967   1.561   4.934  11.381 -0.3728 -0.2420  0.8193
 4826TIP3   OH235968   5.427   1.953  17.001 -0.2657  0.7925 -0.2956
 4826TIP3    H135969   5.433   1.884  16.936  0.8708  0.5357  0.0593
 4826TIP3    H235970   5.358   1.924  17.061  0.6283 -0.3365  0.2020
 4827TIP3   OH235971   3.150   4.657  14.718 -0.0773  0.2812  0.4165
 4827TIP3    H135972   3.092   4.599  14.668 -1.0189  1.0526  0.5806
 4827TIP3    H235973   3.193   4.711  14.651  1.4705 -1.1562  0.1928
 4828TIP3   OH235974   2.080   3.844   3.133 -0.4888  0.6167  0.3827
 4828TIP3    H135975   2.026   3.917   3.104 -0.0922  0.8130  0.1307
 4828TIP3    H235976   2.096   3.793   3.054 -0.3267  0.5445  0.4625
 4829TIP3   OH235977   2.119   1.948   0.131 -0.2219  0.0174 -0.2995
 4829TIP3    H135978   2.129   1.856   0.106 -0.4544 -0.3864  1.0345
 4829TIP3    H235979   2.191   1.965   0.192 -1.4513  0.0791  1.1804
 4830TIP3   OH235980   4.947   1.291   2.675 -0.4166  0.3833 -0.2671
 4830TIP3    H135981   4.935   1.251   2.760  0.5735  0.3727 -0.1135
 4830TIP3    H235982   4.881   1.360   2.671  0.0892  0.9694  0.8838
 4831TIP3   OH235983   3.333   1.228   5.564  0.3392 -0.1598  0.2989
 4831TIP3    H135984   3.358   1.148   5.518  0.6312  1.1802 -2.0571
 4831TIP3    H235985   3.278   1.276   5.501  0.6430  1.7351  1.3943
 4832TIP3   OH235986   1.562   2.249  11.423  0.2724 -0.2768  0.5301
 4832TIP3    H135987   1.502   2.188  11.381  1.3492 -1.4004  0.5572
 4832TIP3    H235988   1.514   2.282  11.499 -1.1489  0.6531 -0.7088
 4833TIP3   OH235989   2.491   3.664  15.663  0.5736  0.1651  0.2613
 4833TIP3    H135990   2.449   3.640  15.745  1.3984  0.3916  0.7625
 4833TIP3    H235991   2.421   3.701  15.610  0.4288  2.0689  1.6893
 4834TIP3   OH235992   5.684   3.966   3.804 -0.1814 -0.0467  0.1118
 4834TIP3    H135993   5.716   4.056   3.814  1.1798 -0.7551  3.8430
 4834TIP3    H235994   5.720   3.937   3.720  3.0404  1.5819  0.7676
 4835TIP3   OH235995   5.990   1.074  14.134 -0.7155  0.1354 -0.3364
 4835TIP3    H135996   5.920   1.139  14.145 -0.8838  0.0537 -0.9046
 4835TIP3    H235997   5.953   1.007  14.078 -0.1339  0.1670 -0.7774
 4836TIP3   OH235998   6.350   5.367  14.164 -0.3114  0.1829  0.5319
 4836TIP3    H135999   6.407   5.376  14.241  2.6174  0.1198 -1.4568
 4836TIP3    H236000   6.386   5.292  14.117 -1.5033  0.6966 -1.2859
 4837TIP3   OH236001   4.154   6.781   6.318  0.3894  0.1050  0.1110
 4837TIP3    H136002   4.183   6.848   6.379  0.1389  0.6861 -0.3948
 4837TIP3    H236003   4.207   6.794   6.240 -0.1001  0.1316 -0.2244
 4838TIP3   OH236004   5.555   1.750   5.783  0.1055  0.2198 -0.0846
 4838TIP3    H136005   5.524   1.771   5.871 -2.4734  0.0163 -0.8754
 4838TIP3    H236006   5.577   1.657   5.787  0.8109  0.3996  0.5311
 4839TIP3   OH236007   0.302   4.797  14.036 -0.3206 -0.4777 -0.4512
 4839TIP3    H136008   0.221   4.748  14.050 -0.7766 -0.2917 -2.1457
 4839TIP3    H236009   0.317   4.844  14.118 -1.3158 -1.3715  0.2729
 4840TIP3   OH236010   2.918   6.209   3.712  0.0062  0.4531 -0.0985
 4840TIP3    H136011   2.829   6.185   3.738 -0.3245  0.6675 -1.0031
 4840TIP3    H236012   2.928   6.172   3.624  1.1991 -0.5215  0.4168
 4841TIP3   OH236013   6.793   3.922  11.566  0.4879 -0.0708  0.0047
 4841TIP3    H136014   6.839   3.946  11.646 -0.0147  0.9990 -0.0022
 4841TIP3    H236015   6.706   3.962  11.576  0.8747  1.3162 -1.6671
 4842TIP3   OH236016   1.245   5.696  12.169  0.1059  0.7567 -0.5624
 4842TIP3    H136017   1.177   5.724  12.107 -0.4340 -0.9557 -0.8059
 4842TIP3    H236018   1.274   5.777  12.210 -2.9383  1.4779  0.4650
 4843TIP3   OH236019   0.274   3.784   4.706  0.2612  0.0513  0.2705
 4843TIP3    H136020   0.358   3.825   4.686  0.1044 -0.1373 -0.8577
 4843TIP3    H236021   0.212   3.828   4.649  0.1950 -2.1242 -1.4666
 4844TIP3   OH236022   4.055   4.612   6.002 -0.2815 -0.0306 -0.1138
 4844TIP3    H136023   4.005   4.685   5.966 -1.9774 -0.0407  2.0054
 4844TIP3    H236024   4.043   4.619   6.097  0.9584 -2.0541  0.2544
 4845TIP3   OH236025   1.359   6.486  12.828 -0.0102 -0.3164 -0.5393
 4845TIP3    H136026   1.449   6.499  12.798  0.6226  1.0850  1.7260
 4845TIP3    H236027   1.319   6.573  12.826 -0.1375 -0.2366  1.7935
 4846TIP3   OH236028   4.967   1.377   0.283  0.2979 -0.0284  0.3485
 4846TIP3    H136029   4.981   1.442   0.352 -0.9628  0.5953  0.0473
 4846TIP3    H236030   4.982   1.293   0.327  3.1257  0.4285  0.4578
 4847TIP3   OH236031   6.358   6.383   5.162  0.5097 -0.5157 -0.3845
 4847TIP3    H136032   6.283   6.326   5.182 -0.1475  0.5444  0.2934
 4847TIP3    H236033   6.332   6.431   5.084  1.4534 -1.7808 -1.5283
 4848TIP3   OH236034   1.379   1.474   4.320  0.7049 -0.3093  0.0231
 4848TIP3    H136035   1.403   1.566   4.326  2.0400 -0.5488 -0.9820
 4848TIP3    H236036   1.318   1.460   4.391  0.5738  1.3226  0.2688
 4849TIP3   OH236037   4.932   0.701   6.038 -0.0392 -0.0532 -0.2338
 4849TIP3    H136038   4.838   0.719   6.039  0.0886  0.6092  0.0906
 4849TIP3    H236039   4.968   0.761   5.973 -0.0524 -1.4853 -1.6438
 4850TIP3   OH236040   1.538   2.775  16.892  0.3939 -0.1670 -0.2025
 4850TIP3    H136041   1.555   2.708  16.958 -0.0132  0.1222  0.1988
 4850TIP3    H236042   1.476   2.835  16.933  0.9185  0.5879 -0.4774
 4851TIP3   OH236043   0.068   4.925  12.486 -0.0312 -0.3753  0.2333
 4851TIP3    H136044   0.036   4.972  12.409 -0.1453 -0.0620  0.4728
 4851TIP3    H236045   0.021   4.841  12.484 -0.3172 -0.2148  0.1736
 4852TIP3   OH236046   2.129   4.271   0.516  0.4590 -0.3577  0.0548
 4852TIP3    H136047   2.091   4.240   0.434  1.2124 -0.1168 -0.3948
 4852TIP3    H236048   2.097   4.210   0.582  1.0789 -1.4700 -0.6546
 4853TIP3   OH236049   1.810   3.628  11.941  0.3103 -0.5337  0.4873
 4853TIP3    H136050   1.878   3.583  11.892 -0.4732 -0.0304 -1.1160
 4853TIP3    H236051   1.736   3.566  11.941  0.7220 -1.0717  2.1976
 4854TIP3   OH236052   1.488   5.842  12.982 -0.0287 -0.3622 -0.1235
 4854TIP3    H136053   1.486   5.928  12.940 -3.0942 -0.3127 -0.1108
 4854TIP3    H236054   1.547   5.853  13.056  0.4118  1.4247 -0.6789
 4855TIP3   OH236055   0.042   2.968  14.756  0.3374  0.5786 -0.3403
 4855TIP3    H136056   0.129   2.992  14.788  0.6026  1.1876 -1.4357
 4855TIP3    H236057   0.059   2.901  14.690  0.1697  1.8895 -1.7877
 4856TIP3   OH236058   3.075   3.089  17.121  0.2953  0.6501 -0.0177
 4856TIP3    H136059   2.984   3.103  17.149  0.5755  1.7323  0.3957
 4856TIP3    H236060   3.084   3.143  17.043  0.3087 -0.2373 -0.6421
 4857TIP3   OH236061   5.746   2.883  16.918 -0.2423  0.1277 -0.0491
 4857TIP3    H136062   5.785   2.882  16.831 -1.4061 -1.5848 -0.6049
 4857TIP3    H236063   5.688   2.959  16.918  1.9646  1.8775  0.3128
 4858TIP3   OH236064   5.354   4.360  10.638 -0.2424 -0.4408 -0.4349
 4858TIP3    H136065   5.303   4.413  10.700  0.0292 -0.7495  0.0601
 4858TIP3    H236066   5.429   4.414  10.617 -0.2156 -0.4301 -0.3120
 4859TIP3   OH236067   3.387   6.278   5.688  0.7411  0.6616 -0.4448
 4859TIP3    H136068   3.376   6.229   5.769  0.2035 -0.4030 -1.1345
 4859TIP3    H236069   3.450   6.347   5.710  0.4933  0.4908  0.8999
 4860TIP3   OH236070   2.838   1.384   2.759  0.2642  0.8942 -0.3192
 4860TIP3    H136071   2.861   1.425   2.675  1.0821  2.1543  0.5018
 4860TIP3    H236072   2.742   1.383   2.759  0.1991 -0.9460 -2.1150
 4861TIP3   OH236073   3.258   2.853  12.216 -0.2197  0.1047  0.4674
 4861TIP3    H136074   3.247   2.900  12.133 -0.2765  0.4711  0.6816
 4861TIP3    H236075   3.344   2.812  12.209 -0.9864 -1.4463 -0.5581
 4862TIP3   OH236076   6.614   0.338   1.633  0.8394 -0.1340 -0.4284
 4862TIP3    H136077   6.550   0.366   1.699 -0.3756 -0.3032 -1.4858
 4862TIP3    H236078   6.566   0.342   1.550  1.6077 -2.0937 -1.0307
 4863TIP3   OH236079   4.632   2.473  11.188 -0.6510  0.4176 -0.6690
 4863TIP3    H136080   4.699   2.513  11.132 -0.7231  1.1417 -0.2536
 4863TIP3    H236081   4.669   2.388  11.212  1.2367  1.7598  1.5180
 4864TIP3   OH236082   4.113   2.011  14.291 -0.0795  0.1919  0.1495
 4864TIP3    H136083   4.027   2.052  14.279  0.9847  3.7207  2.7341
 4864TIP3    H236084   4.174   2.071  14.249  1.3225 -0.9104  0.5198
 4865TIP3   OH236085   0.121   2.256   3.556  0.2718 -0.0345  0.2300
 4865TIP3    H136086   0.059   2.237   3.626  0.0989  0.9271  0.3556
 4865TIP3    H236087   0.118   2.351   3.546  2.9580  0.2767  1.4086
 4866TIP3   OH236088   0.218   0.188  11.992 -0.3313  0.0609 -0.0120
 4866TIP3    H136089   0.289   0.124  11.991  0.3658  0.7470 -2.5146
 4866TIP3    H236090   0.227   0.233  12.075  0.7723 -1.3257  0.6637
 4867TIP3   OH236091   5.467   2.126  14.576 -0.5521  0.4609  0.0743
 4867TIP3    H136092   5.495   2.208  14.617 -0.4630  0.2250  0.5017
 4867TIP3    H236093   5.432   2.152  14.491  1.7680  0.6930 -0.8908
 4868TIP3   OH236094   1.899   4.842  13.790  0.3173  0.3866  0.3449
 4868TIP3    H136095   1.919   4.928  13.752  0.2351  1.5700  2.8120
 4868TIP3    H236096   1.803   4.842  13.800  0.1057 -0.7622 -1.2396
 4869TIP3   OH236097   1.402   2.852  12.030  0.5684 -0.2550  0.5439
 4869TIP3    H136098   1.378   2.882  11.942 -0.3375 -0.0215  0.8646
 4869TIP3    H236099   1.435   2.931  12.073 -2.5559  0.6007  1.6527
 4870TIP3   OH236100   4.382   1.588  14.776  1.3433  0.6455  0.2432
 4870TIP3    H136101   4.365   1.631  14.692 -0.7098  1.3706  0.9674
 4870TIP3    H236102   4.440   1.649  14.822  2.1729  0.4197 -0.4646
 4871TIP3   OH236103   4.250   3.006  12.485 -0.5191  0.2495 -0.2676
 4871TIP3    H136104   4.310   2.936  12.510 -2.0780 -1.1608 -0.3147
 4871TIP3    H236105   4.304   3.066  12.432  0.9383 -0.7077  0.0690
 4872TIP3   OH236106   4.225   1.523   5.918 -0.1875 -0.5831 -0.0641
 4872TIP3    H136107   4.241   1.566   6.002 -0.5203 -0.8078  0.1159
 4872TIP3    H236108   4.303   1.468   5.905  1.1260  1.4428 -1.1929
 4873TIP3   OH236109   3.228   6.778  13.292 -0.2978  0.4607 -0.4712
 4873TIP3    H136110   3.234   6.718  13.218  2.2611  0.5494 -0.4290
 4873TIP3    H236111   3.307   6.831  13.286 -0.2407  0.7797  2.0689
 4874TIP3   OH236112   4.256   5.472  12.619 -0.1302  0.0500 -0.0800
 4874TIP3    H136113   4.163   5.455  12.606  0.0262  0.2647 -1.7967
 4874TIP3    H236114   4.299   5.393  12.587  0.3032  0.2895 -0.0911
 4875TIP3   OH236115   1.951   4.137  12.024  0.2019 -0.0315  0.4186
 4875TIP3    H136116   2.035   4.179  12.044  0.7507 -1.8239  2.1625
 4875TIP3    H236117   1.919   4.106  12.109 -2.0729  0.2869 -0.2713
 4876TIP3   OH236118   2.566   6.255  12.482 -0.4705  0.0387 -0.5689
 4876TIP3    H136119   2.586   6.331  12.428 -1.4589 -0.1579 -1.2282
 4876TIP3    H236120   2.496   6.210  12.436 -0.1667 -1.0703  0.0109
 4877TIP3   OH236121   2.842   2.982  13.554  0.4244 -0.1872 -0.1837
 4877TIP3    H136122   2.781   3.020  13.617  2.4425 -0.4402  2.0660
 4877TIP3    H236123   2.866   3.055  13.496 -0.6828  0.3208 -0.0118
 4878TIP3   OH236124   4.163   5.328   2.346  0.3287  0.7792  0.0440
 4878TIP3    H136125   4.089   5.378   2.315  0.7120  0.2883 -1.7771
 4878TIP3    H236126   4.238   5.363   2.298  1.3341  1.3068  1.8809
 4879TIP3   OH236127   3.111   2.010   4.077  0.0969  0.3584  0.2711
 4879TIP3    H136128   3.127   2.076   4.009  2.6248 -2.1416 -1.7573
 4879TIP3    H236129   3.031   1.966   4.049  0.0801  0.5646 -0.0169
 4880TIP3   OH236130   4.029   1.046  13.671 -0.2971 -0.2221 -0.1753
 4880TIP3    H136131   3.944   1.008  13.695 -0.1410 -0.9986 -0.7964
 4880TIP3    H236132   4.090   1.012  13.737 -0.5458  0.7804  0.6024
 4881TIP3   OH236133   6.006   6.127  16.921 -0.0758 -0.1879 -0.4204
 4881TIP3    H136134   5.914   6.125  16.895 -0.1264 -0.6402 -0.2195
 4881TIP3    H236135   6.054   6.098  16.843  0.0587  1.9035 -1.1657
 4882TIP3   OH236136   1.543   5.026  10.798  0.5655 -0.5866  0.2367
 4882TIP3    H136137   1.498   5.022  10.882 -0.8428  2.7043 -0.2166
 4882TIP3    H236138   1.504   4.956  10.746 -1.2299 -0.3428  1.1755
 4883TIP3   OH236139   6.667   1.078  12.318 -0.2919 -0.0856 -0.1282
 4883TIP3    H136140   6.683   1.051  12.227 -1.2948  0.2096 -0.4016
 4883TIP3    H236141   6.586   1.033  12.342 -0.1524  0.0231  0.5434
 4884TIP3   OH236142   6.040   5.495   4.464  0.2315 -0.0648  0.3134
 4884TIP3    H136143   6.046   5.562   4.532  3.2584 -0.5563  0.6687
 4884TIP3    H236144   5.986   5.426   4.503 -1.3626  1.2903  0.6477
 4885TIP3   OH236145   2.289   0.507  14.217 -0.6831 -0.5371  0.3717
 4885TIP3    H136146   2.321   0.595  14.198 -1.3322  0.1339  2.2125
 4885TIP3    H236147   2.215   0.520  14.275 -1.1913 -2.2920  0.1828
 4886TIP3   OH236148   6.307   4.473  13.765 -0.0342  0.3893  0.5878
 4886TIP3    H136149   6.355   4.395  13.736  0.6014  0.6745  0.8608
 4886TIP3    H236150   6.372   4.542  13.769 -0.5652  0.9067  0.5059
 4887TIP3   OH236151   0.887   1.075  12.189  0.1402 -0.4721  0.3502
 4887TIP3    H136152   0.953   1.136  12.157 -1.6689  0.8690 -1.1127
 4887TIP3    H236153   0.864   1.022  12.112 -0.1849 -1.1892  0.9302
 4888TIP3   OH236154   5.923   4.802  12.692 -0.0477 -0.0037 -0.5177
 4888TIP3    H136155   5.909   4.757  12.608 -0.2931 -1.8141  0.4370
 4888TIP3    H236156   6.006   4.766  12.724 -0.1263  0.4141  0.1691
 4889TIP3   OH236157   2.047   2.406   5.751  0.3162  0.1120  0.0799
 4889TIP3    H136158   2.096   2.454   5.685 -1.5301  1.6585 -0.2526
 4889TIP3    H236159   2.097   2.419   5.832  1.7681 -0.5120 -0.6819
 4890TIP3   OH236160   6.002   4.433  14.041  0.0967 -0.3521 -0.0901
 4890TIP3    H136161   5.991   4.344  14.077  2.1049  0.1198  1.9104
 4890TIP3    H236162   5.959   4.489  14.106  0.8113  0.2966 -0.1769
 4891TIP3   OH236163   5.115   4.635  12.501 -0.0882  0.3323 -0.0234
 4891TIP3    H136164   5.161   4.683  12.432  0.3761 -0.6010 -0.3859
 4891TIP3    H236165   5.038   4.599  12.457  0.3725 -0.5270 -0.1562
 4892TIP3   OH236166   0.724   1.706  17.053 -0.1614  0.4510 -0.0814
 4892TIP3    H136167   0.697   1.684  17.142  1.1158 -0.8823  0.0094
 4892TIP3    H236168   0.646   1.691  17.000 -1.4616  2.8928  0.9683
 4893TIP3   OH236169   0.045   2.434   3.189 -0.1469  0.2099  0.1204
 4893TIP3    H136170   0.045   2.341   3.166 -0.6648  0.3741 -0.5985
 4893TIP3    H236171  -0.047   2.458   3.193 -0.0141  0.8800 -0.5221
 4894TIP3   OH236172   1.178   1.904   4.093  0.0438 -0.2491 -0.1038
 4894TIP3    H136173   1.266   1.895   4.057 -0.6803 -2.2562 -1.5579
 4894TIP3    H236174   1.124   1.931   4.019 -0.7154  0.2844  0.6126
 4895TIP3   OH236175   2.874   2.744   4.744 -0.6677 -0.6511  0.1452
 4895TIP3    H136176   2.874   2.743   4.840 -1.1363 -2.8558  0.1947
 4895TIP3    H236177   2.786   2.713   4.721 -0.5785 -0.0816 -1.0127
 4896TIP3   OH236178   1.098   6.058   5.977  0.5077 -0.5330 -0.1027
 4896TIP3    H136179   1.096   6.081   6.070  0.2799  1.4198 -0.5481
 4896TIP3    H236180   1.170   5.996   5.970  0.6962 -0.5181  1.3358
 4897TIP3   OH236181   5.665   3.119  12.774 -0.5124  0.4587  0.4855
 4897TIP3    H136182   5.654   3.024  12.776 -0.5978  0.4799  1.3691
 4897TIP3    H236183   5.734   3.136  12.839 -0.8245  1.0399  0.6675
 4898TIP3   OH236184   6.481   5.660  14.701 -0.0503  0.3722 -0.0605
 4898TIP3    H136185   6.555   5.712  14.733  1.1262 -1.3539  0.1738
 4898TIP3    H236186   6.423   5.652  14.776  1.4060 -1.3949  0.9837
 4899TIP3   OH236187   5.398   0.999  10.883  0.0200  0.3029 -0.1582
 4899TIP3    H136188   5.353   1.014  10.966 -0.4323  2.7870 -0.7703
 4899TIP3    H236189   5.491   0.999  10.906 -0.0298  2.3937  0.2292
 4900TIP3   OH236190   1.635   6.618   4.324 -0.1315 -0.5078  0.0173
 4900TIP3    H136191   1.617   6.712   4.327  0.0159 -0.4941  1.3415
 4900TIP3    H236192   1.692   6.603   4.400 -0.6550 -1.7665  0.1849
 4901TIP3   OH236193   1.028   1.559  13.199 -0.0669 -0.1905  0.3537
 4901TIP3    H136194   0.980   1.615  13.259 -1.6925  1.6837 -2.4888
 4901TIP3    H236195   0.964   1.494  13.169  0.7306 -1.1407  0.6358
 4902TIP3   OH236196   4.839   1.320   4.171  0.0732  0.1957  0.3627
 4902TIP3    H136197   4.873   1.406   4.146  0.1000  0.1246  0.1580
 4902TIP3    H236198   4.780   1.339   4.244  0.6001  0.3068  0.7609
 4903TIP3   OH236199   4.147   2.120  11.605  0.0692 -0.4312  0.6406
 4903TIP3    H136200   4.052   2.109  11.595 -0.2549  1.4904  1.0244
 4903TIP3    H236201   4.181   2.032  11.615 -1.4265 -1.3521 -1.4767
 4904TIP3   OH236202   5.339   5.063   1.524 -0.1364  0.1296  0.0373
 4904TIP3    H136203   5.390   5.009   1.463 -1.8364  0.0280 -1.3695
 4904TIP3    H236204   5.279   5.112   1.468 -0.6268  1.3018  1.5336
 4905TIP3   OH236205   1.567   5.564  10.311  0.3271  0.3956 -0.0026
 4905TIP3    H136206   1.558   5.536  10.402 -0.7691 -0.8853 -0.4834
 4905TIP3    H236207   1.577   5.659  10.317 -3.1451  0.8043  1.3004
 4906TIP3   OH236208   5.105   1.512   4.143  0.6809  0.3619 -0.3473
 4906TIP3    H136209   5.101   1.522   4.238  1.8276 -0.9296 -0.1222
 4906TIP3    H236210   5.094   1.600   4.109 -1.0104  0.6828  0.9126
 4907TIP3   OH236211   6.796   0.671  12.474  0.0883 -0.6452 -0.6156
 4907TIP3    H136212   6.721   0.657  12.416 -0.5178 -0.2437  0.0678
 4907TIP3    H236213   6.867   0.698  12.415 -0.5127 -0.2710 -1.1779
 4908TIP3   OH236214   4.950   6.327  15.664  0.5636 -0.3408 -0.4025
 4908TIP3    H136215   4.859   6.301  15.677 -0.5939  3.7966  1.5330
 4908TIP3    H236216   4.987   6.329  15.752  1.2256  1.8300 -0.6716
 4909TIP3   OH236217   0.392   2.647  12.240  0.1313 -0.0237  0.0713
 4909TIP3    H136218   0.352   2.723  12.199 -0.8405 -0.7274 -0.3249
 4909TIP3    H236219   0.397   2.581  12.171  1.6317 -0.0987  0.2181
 4910TIP3   OH236220   0.321   4.910  16.568  0.1245 -0.0919  0.2901
 4910TIP3    H136221   0.230   4.895  16.594 -0.3289  1.6266 -0.2140
 4910TIP3    H236222   0.368   4.835  16.604 -1.9998 -3.1066 -2.5978
 4911TIP3   OH236223   0.371   0.474  10.993 -0.8133  0.2979 -0.2791
 4911TIP3    H136224   0.324   0.548  11.031 -0.9222  0.0838  0.0126
 4911TIP3    H236225   0.311   0.400  11.004 -0.3335 -0.0199  0.2885
 4912TIP3   OH236226   3.020   1.091  12.802 -0.2732  0.3151 -0.0298
 4912TIP3    H136227   2.983   1.158  12.860 -1.3652 -0.5973  0.3626
 4912TIP3    H236228   2.975   1.010  12.826  2.1854 -0.9665  0.6657
 4913TIP3   OH236229   1.467   2.358  12.720 -0.9246 -0.4137  0.1542
 4913TIP3    H136230   1.392   2.370  12.662 -1.5835  0.2758  1.1165
 4913TIP3    H236231   1.520   2.291  12.677 -2.0808 -0.9066 -0.5538
 4914TIP3   OH236232   3.428   3.939   4.725 -0.2027  0.5648  0.3022
 4914TIP3    H136233   3.455   3.870   4.664  0.1506  0.8496  0.1368
 4914TIP3    H236234   3.509   3.983   4.750 -0.1141 -0.6501  2.3485
 4915TIP3   OH236235   2.114   0.232  14.999  0.0190  0.0076 -0.1665
 4915TIP3    H136236   2.209   0.228  15.011  0.2293 -3.7657 -1.8518
 4915TIP3    H236237   2.079   0.177  15.069 -0.8828  0.8270  0.0384
 4916TIP3   OH236238   3.551   6.787   1.991  0.4796  0.3913 -0.2541
 4916TIP3    H136239   3.489   6.716   1.973  0.1924  0.5231  0.2026
 4916TIP3    H236240   3.637   6.745   1.988  0.3137  0.0336 -0.0280
 4917TIP3   OH236241   2.890   4.114   3.826 -0.1498 -0.5402 -0.0597
 4917TIP3    H136242   2.873   4.020   3.826 -1.8107 -0.3581 -3.0511
 4917TIP3    H236243   2.927   4.132   3.740 -1.3503  1.7358 -0.1865
 4918TIP3   OH236244   5.865   2.494   5.378  0.4156  0.2591  0.1609
 4918TIP3    H136245   5.820   2.410   5.368 -1.0597  1.0899 -0.5583
 4918TIP3    H236246   5.932   2.478   5.444 -0.1193 -1.3736  0.3442
 4919TIP3   OH236247   1.884   1.003   2.190  0.0925 -0.1299  0.1248
 4919TIP3    H136248   1.810   0.968   2.238  1.5039  1.0017  3.3997
 4919TIP3    H236249   1.956   0.943   2.209  1.1349  1.3392  1.0509
 4920TIP3   OH236250   5.886   1.641   3.979 -0.1052  0.2479  0.2995
 4920TIP3    H136251   5.950   1.571   3.991 -1.6073 -1.0749  0.9192
 4920TIP3    H236252   5.939   1.718   3.957  1.6161 -0.9752 -0.0404
 4921TIP3   OH236253   2.796   2.974  14.635 -0.0112 -1.0198  0.3226
 4921TIP3    H136254   2.762   2.898  14.683  1.6321 -0.6364  2.2364
 4921TIP3    H236255   2.821   3.036  14.704  2.0068 -0.2296 -1.0391
 4922TIP3   OH236256   6.080   1.926   2.693  0.0543 -0.1393  0.3282
 4922TIP3    H136257   6.135   1.986   2.643 -1.1599 -0.5002 -1.5446
 4922TIP3    H236258   6.045   1.979   2.765  1.9703  0.3596  0.9343
 4923TIP3   OH236259   0.354   0.879  16.105 -0.2118 -0.7049  0.5154
 4923TIP3    H136260   0.448   0.892  16.093  0.2558 -1.3135  3.0919
 4923TIP3    H236261   0.347   0.813  16.173 -2.5216 -0.4154  0.6237
 4924TIP3   OH236262   0.291   1.887  15.521 -0.6403 -0.2020 -0.4850
 4924TIP3    H136263   0.384   1.863  15.528 -1.0732 -1.6992  0.4112
 4924TIP3    H236264   0.264   1.906  15.611 -1.4623 -0.7827 -0.6018
 4925TIP3   OH236265   4.399   6.041   0.249  0.0868 -0.0232 -0.2158
 4925TIP3    H136266   4.448   6.092   0.184  1.1775  0.3160  0.8437
 4925TIP3    H236267   4.317   6.089   0.259  0.8164  1.1813  0.2673
 4926TIP3   OH236268   1.815   4.465  13.735 -0.0858 -0.3614  0.0940
 4926TIP3    H136269   1.860   4.388  13.699  0.9604  1.2761 -2.3819
 4926TIP3    H236270   1.853   4.475  13.823  2.4476 -0.6650 -0.8660
 4927TIP3   OH236271   5.023   5.426  12.755 -0.0580 -0.2123  0.3901
 4927TIP3    H136272   4.965   5.479  12.700  1.3927  2.1237  0.9895
 4927TIP3    H236273   4.976   5.417  12.838 -0.1074  0.6272  0.4622
 4928TIP3   OH236274   5.737   5.804   5.887  0.4327 -0.6193 -0.0971
 4928TIP3    H136275   5.642   5.804   5.901  0.4240  1.0581  0.0104
 4928TIP3    H236276   5.773   5.783   5.973  0.1737  0.2991  0.2492
 4929TIP3   OH236277   3.184   1.439  15.208  0.2577  0.1729 -0.5886
 4929TIP3    H136278   3.156   1.422  15.119 -0.4692 -0.6246 -0.2260
 4929TIP3    H236279   3.258   1.499  15.200 -0.2078  0.6100 -1.6846
 4930TIP3   OH236280   6.745   6.093   5.065 -0.0420  0.4552  0.7581
 4930TIP3    H136281   6.702   6.171   5.029 -0.2380  0.1135  0.2375
 4930TIP3    H236282   6.746   6.107   5.159 -2.5654 -0.1261  0.9479
 4931TIP3   OH236283   6.105   5.966   3.852  0.1742  0.2254  0.1162
 4931TIP3    H136284   6.031   5.999   3.904  0.8839 -0.9249  1.9609
 4931TIP3    H236285   6.182   5.989   3.904  0.8510 -1.7484  0.0477
 4932TIP3   OH236286   5.870   2.123  16.681  0.2095  0.8333  0.2015
 4932TIP3    H136287   5.908   2.121  16.769 -0.4551 -0.3605  0.4872
 4932TIP3    H236288   5.806   2.052  16.681  0.1570  0.8521 -1.2381
 4933TIP3   OH236289   1.838   5.058   4.985  0.4731 -0.3988  0.0674
 4933TIP3    H136290   1.855   5.129   5.046 -0.8788  0.6639 -0.7380
 4933TIP3    H236291   1.846   4.979   5.038  1.1681  0.3848  1.1813
 4934TIP3   OH236292   2.575   0.346   5.695  0.0307  0.3853  0.3585
 4934TIP3    H136293   2.627   0.370   5.772  2.0751 -1.7317 -0.2469
 4934TIP3    H236294   2.566   0.428   5.646  1.1958  1.1998  1.4430
 4935TIP3   OH236295   2.642   5.560   1.836  0.1850 -0.0806  0.3296
 4935TIP3    H136296   2.580   5.505   1.884 -1.4021  0.2313 -1.2365
 4935TIP3    H236297   2.598   5.577   1.752  1.9670  1.0328 -0.4281
 4936TIP3   OH236298   6.490   6.222   2.794  0.7290 -0.0479  0.1795
 4936TIP3    H136299   6.564   6.212   2.854 -0.8924  0.0337  2.3106
 4936TIP3    H236300   6.450   6.135   2.789  0.3771  0.1292 -0.1706
 4937TIP3   OH236301   2.401   5.390   1.881  0.6084  0.2988 -0.0545
 4937TIP3    H136302   2.396   5.445   1.803 -1.6239  0.6663  0.2755
 4937TIP3    H236303   2.416   5.302   1.848 -0.3677  0.4442 -0.9187
 4938TIP3   OH236304   0.098   1.620   6.464  0.1297 -0.0468  0.5149
 4938TIP3    H136305   0.170   1.559   6.448  0.6188  1.1291 -2.4002
 4938TIP3    H236306   0.026   1.565   6.496  1.2709 -1.7697  0.2443
 4939TIP3   OH236307   5.292   1.382   1.496 -0.1537 -0.0919 -0.3971
 4939TIP3    H136308   5.260   1.384   1.406 -0.5462 -0.1568 -0.2585
 4939TIP3    H236309   5.312   1.290   1.513 -0.8008 -0.1969 -0.1677
 4940TIP3   OH236310   3.667   1.545  16.898  0.6917  0.5663 -0.0512
 4940TIP3    H136311   3.618   1.610  16.948  0.0431  0.8275 -0.9992
 4940TIP3    H236312   3.692   1.479  16.962 -1.4398  0.1061  0.4073
 4941TIP3   OH236313   6.429   0.900   4.029 -0.0258  0.2014  0.6648
 4941TIP3    H136314   6.467   0.969   4.085 -2.1964  2.1499 -0.1114
 4941TIP3    H236315   6.335   0.916   4.032 -0.4215 -1.4103 -1.3279
 4942TIP3   OH236316   4.251   5.883   4.709  0.0270  0.6762  0.1194
 4942TIP3    H136317   4.346   5.887   4.703  0.0573  0.4798  0.4422
 4942TIP3    H236318   4.229   5.791   4.694 -0.3333  1.1358 -2.7823
 4943TIP3   OH236319   1.037   6.121   0.795  0.2292 -0.1346  0.6055
 4943TIP3    H136320   0.985   6.088   0.868  0.0014  1.0421  0.9909
 4943TIP3    H236321   1.000   6.207   0.776 -0.6383 -0.9518 -1.8264
 4944TIP3   OH236322   2.171   0.187  15.806  0.1919 -0.4829 -0.8140
 4944TIP3    H136323   2.258   0.193  15.845 -0.2776 -2.2626  0.6475
 4944TIP3    H236324   2.115   0.156  15.877 -1.6662  0.6545 -1.7058
 4945TIP3   OH236325   5.579   0.864   5.737 -0.0291  0.2513  0.0369
 4945TIP3    H136326   5.617   0.799   5.796 -0.1573  0.4899  0.3880
 4945TIP3    H236327   5.647   0.879   5.671  0.0002 -0.2355 -0.0491
 4946TIP3   OH236328   3.609   3.414   2.008 -0.1309 -0.8302  0.0784
 4946TIP3    H136329   3.671   3.422   2.081  1.1398 -0.4758 -1.0022
 4946TIP3    H236330   3.569   3.501   2.002 -1.3377 -1.2851  1.2803
 4947TIP3   OH236331   6.568   3.787  11.357 -0.7699 -0.4944  0.1461
 4947TIP3    H136332   6.576   3.765  11.264 -0.7784 -0.7917  0.2126
 4947TIP3    H236333   6.495   3.848  11.361 -0.9175 -0.6596 -0.0162
 4948TIP3   OH236334   3.262   4.515   2.948  1.0610  0.0022 -0.0723
 4948TIP3    H136335   3.263   4.435   3.001 -0.1044 -0.6332 -0.9396
 4948TIP3    H236336   3.239   4.584   3.009  1.2099 -0.4690  0.5291
 4949TIP3   OH236337   5.078   4.503   5.047  0.0059  0.1912  0.7897
 4949TIP3    H136338   5.019   4.440   5.088 -0.0285  0.5649  1.3346
 4949TIP3    H236339   5.166   4.472   5.068 -0.0092  0.1398  0.7755
 4950TIP3   OH236340   3.460   4.690  15.480 -0.4378  0.2162 -0.4072
 4950TIP3    H136341   3.526   4.735  15.427 -0.0624  0.5051  0.2882
 4950TIP3    H236342   3.440   4.752  15.550  2.0470 -1.6278  2.1402
 4951TIP3   OH236343   5.935   0.113  16.012 -0.3751 -0.2190 -0.0586
 4951TIP3    H136344   5.953   0.113  15.918  2.6531 -0.4478  0.4106
 4951TIP3    H236345   5.859   0.057  16.022  0.4149 -1.8175 -2.2304
 4952TIP3   OH236346   5.284   6.444   4.416 -0.0504  1.2104  0.3275
 4952TIP3    H136347   5.217   6.497   4.373  0.9371  2.2223 -0.0187
 4952TIP3    H236348   5.318   6.387   4.347  0.0000  1.2669  0.3054
 4953TIP3   OH236349   6.559   6.440  12.309  0.0826  0.8988  0.8582
 4953TIP3    H136350   6.577   6.529  12.340  2.1250  0.6625  0.5003
 4953TIP3    H236351   6.518   6.453  12.223  0.9601  1.5056  0.5150
 4954TIP3   OH236352   1.299   5.934  12.271 -0.0511 -0.0999  0.4473
 4954TIP3    H136353   1.352   5.967  12.344 -3.1124  0.8288  2.4587
 4954TIP3    H236354   1.293   6.008  12.210  0.8821 -0.1995  0.2242
 4955TIP3   OH236355   4.515   4.010  13.132  0.2778 -0.2016 -0.1286
 4955TIP3    H136356   4.521   4.101  13.104 -0.4726 -0.5214 -1.4119
 4955TIP3    H236357   4.574   3.963  13.074  0.9036 -0.5192  0.7304
 4956TIP3   OH236358   4.175   1.007   3.641 -0.4384 -0.5297 -0.2708
 4956TIP3    H136359   4.242   0.942   3.664  0.4940 -0.1444 -1.7812
 4956TIP3    H236360   4.097   0.954   3.621 -0.3411 -1.0373  0.6403
 4957TIP3   OH236361   3.935   5.058  16.343  0.8173  0.0025  0.0842
 4957TIP3    H136362   3.984   5.135  16.315 -0.3488 -0.2133 -3.0066
 4957TIP3    H236363   3.995   4.985  16.328  0.1415 -0.1293 -2.3319
 4958TIP3   OH236364   6.531   0.948   3.484  0.0479 -0.1686 -0.3049
 4958TIP3    H136365   6.486   0.974   3.565  1.1073  1.0889 -0.0943
 4958TIP3    H236366   6.575   0.866   3.507  1.9620  1.1594  1.0567
 4959TIP3   OH236367   6.394   4.183  15.193 -0.5238  0.5620  0.1069
 4959TIP3    H136368   6.402   4.278  15.189 -0.2742  0.5130 -0.7864
 4959TIP3    H236369   6.418   4.160  15.283  1.0475  1.2039 -0.1201
 4960TIP3   OH236370   2.891   5.291   6.088 -0.5406  0.4839 -0.2257
 4960TIP3    H136371   2.817   5.293   6.027 -1.4323 -0.2079  0.7876
 4960TIP3    H236372   2.910   5.198   6.099  0.6079  0.6658 -0.6067
 4961TIP3   OH236373   2.757   1.763   5.622  0.3016 -0.0209  0.1207
 4961TIP3    H136374   2.671   1.774   5.664  0.4986  1.2435  0.2399
 4961TIP3    H236375   2.736   1.729   5.535 -0.2783 -0.2986  0.3604
 4962TIP3   OH236376   0.654   1.123   1.887  0.1313 -0.0982  0.0890
 4962TIP3    H136377   0.608   1.204   1.906  1.9149  1.3366 -1.4008
 4962TIP3    H236378   0.741   1.150   1.860  1.4158 -2.6258  1.3213
 4963TIP3   OH236379   5.988   5.575  11.860  0.4449 -0.4779  0.2172
 4963TIP3    H136380   5.975   5.516  11.934  1.5698 -0.6886  0.2563
 4963TIP3    H236381   6.060   5.632  11.885 -0.8098  1.1447  0.2882
 4964TIP3   OH236382   3.597   2.876   2.551  0.1329 -0.0510 -0.2255
 4964TIP3    H136383   3.668   2.870   2.614 -0.4973 -1.6244  0.3715
 4964TIP3    H236384   3.640   2.866   2.466  0.8190  0.7511  0.0112
 4965TIP3   OH236385   4.414   1.682  16.418 -0.0545 -0.1401 -0.0632
 4965TIP3    H136386   4.464   1.763  16.428 -0.8381  0.3116  0.2787
 4965TIP3    H236387   4.480   1.616  16.396  0.5364  0.6744 -0.8006
 4966TIP3   OH236388   1.993   0.506   0.234  0.3053  0.2086  0.0682
 4966TIP3    H136389   1.920   0.500   0.173 -0.1993 -0.0621  0.6974
 4966TIP3    H236390   2.053   0.436   0.207  0.3534  0.4477 -0.4624
 4967TIP3   OH236391   3.017   6.333  13.377 -0.0378 -0.2768 -0.1538
 4967TIP3    H136392   3.102   6.358  13.341  0.1161 -1.6627 -0.8235
 4967TIP3    H236393   2.963   6.315  13.300 -0.7260 -0.0880  0.2808
 4968TIP3   OH236394   6.507   1.940   1.789  0.0380  1.0983  0.3948
 4968TIP3    H136395   6.536   1.866   1.842 -0.4595  1.8028  1.6869
 4968TIP3    H236396   6.489   2.010   1.852 -0.4388  2.0152 -0.7119
 4969TIP3   OH236397   1.294   3.689   1.160 -0.1074  0.6376 -0.0719
 4969TIP3    H136398   1.389   3.687   1.168 -0.0623  0.2957 -0.6273
 4969TIP3    H236399   1.274   3.773   1.119 -0.0527  0.7345  0.0985
 4970TIP3   OH236400   4.336   3.317   1.811 -0.6437  0.6179 -0.1766
 4970TIP3    H136401   4.242   3.333   1.804 -0.7470 -0.3566 -1.2018
 4970TIP3    H236402   4.344   3.243   1.871 -0.7068 -0.7586 -1.7902
 4971TIP3   OH236403   2.873   2.747   5.039  0.0482 -0.5620  0.0007
 4971TIP3    H136404   2.804   2.805   5.071 -0.3408 -0.6639 -0.6462
 4971TIP3    H236405   2.955   2.792   5.064 -0.2422 -0.2787  0.4691
 4972TIP3   OH236406   2.039   4.862  11.852  0.2968 -0.2957 -0.0519
 4972TIP3    H136407   1.964   4.824  11.898  1.0246  0.0206  1.4557
 4972TIP3    H236408   2.086   4.786  11.816 -1.3160 -0.4426 -2.0349
 4973TIP3   OH236409   1.611   0.606   0.678  0.4008 -0.3108 -0.0791
 4973TIP3    H136410   1.648   0.614   0.590  0.4069 -0.9761 -0.1453
 4973TIP3    H236411   1.559   0.526   0.675  0.2026 -0.2097  0.4546
 4974TIP3   OH236412   2.034   5.038   1.963  0.3462  0.9591  0.5139
 4974TIP3    H136413   2.105   5.094   1.993  0.0472  1.0537  1.0550
 4974TIP3    H236414   1.967   5.045   2.031  0.4693 -0.3745  0.8033
 4975TIP3   OH236415   5.811   4.953  16.849  0.1845  0.1542 -0.4957
 4975TIP3    H136416   5.886   4.976  16.905  0.0609 -0.3844 -0.0993
 4975TIP3    H236417   5.850   4.936  16.763  0.6756 -1.1538 -0.0422
 4976TIP3   OH236418   1.933   3.922  14.701 -0.5001  0.7283  0.5821
 4976TIP3    H136419   1.841   3.933  14.722 -0.6563  1.2913 -0.3423
 4976TIP3    H236420   1.978   3.988  14.753 -0.6559  0.7165  0.7312
 4977TIP3   OH236421   2.183   1.621   5.580  0.0848 -0.3467 -0.1569
 4977TIP3    H136422   2.096   1.588   5.557  0.1920  0.2684 -1.4987
 4977TIP3    H236423   2.225   1.548   5.625 -1.5396 -0.2690  1.6140
 4978TIP3   OH236424   0.391   1.524   6.602  0.5395 -0.0460  0.1248
 4978TIP3    H136425   0.364   1.612   6.628 -0.6786 -0.9324  2.0704
 4978TIP3    H236426   0.484   1.520   6.625  0.9420  1.1161 -1.1836
 4979TIP3   OH236427   5.691   3.490  15.070  0.2292 -0.2143  0.0876
 4979TIP3    H136428   5.647   3.422  15.121 -1.1450 -0.4668 -1.3628
 4979TIP3    H236429   5.630   3.510  14.999  2.0515  0.1261 -1.4596
 4980TIP3   OH236430   2.363   2.596   2.762  0.1273 -0.0069  0.7371
 4980TIP3    H136431   2.326   2.534   2.825  0.2494 -2.6184 -1.6044
 4980TIP3    H236432   2.457   2.580   2.763  0.1392 -0.0304 -0.0522
 4981TIP3   OH236433   5.869   4.836  11.644 -0.3051  0.3295  0.3823
 4981TIP3    H136434   5.796   4.842  11.582 -0.4673  0.1893  0.5581
 4981TIP3    H236435   5.945   4.816  11.589 -0.5637 -0.4553  0.2916
 4982TIP3   OH236436   3.874   3.620  13.733 -0.0134 -0.2209  0.2582
 4982TIP3    H136437   3.807   3.683  13.707 -0.8974 -1.4381 -0.4958
 4982TIP3    H236438   3.844   3.586  13.817 -0.0211 -0.3133  0.2183
 4983TIP3   OH236439   0.201   4.129   3.259 -0.1120  0.3367 -0.4711
 4983TIP3    H136440   0.283   4.176   3.243 -1.3358  2.4678 -0.8797
 4983TIP3    H236441   0.189   4.134   3.354  0.0477  0.3592 -0.4522
 4984TIP3   OH236442   6.779   0.785  11.314  0.2503 -0.2038 -0.4093
 4984TIP3    H136443   6.871   0.773  11.287  0.6294 -0.4095  0.9096
 4984TIP3    H236444   6.773   0.743  11.400 -1.0187  0.0503 -0.3524
 4985TIP3   OH236445   3.906   6.112  17.177 -0.4036  0.1253  0.0153
 4985TIP3    H136446   3.861   6.191  17.208  0.2107  0.3061  0.4602
 4985TIP3    H236447   3.976   6.144  17.120  0.2725 -0.0503  0.7281
 4986TIP3   OH236448   1.755   0.879   3.749  0.1948  0.1603  0.4995
 4986TIP3    H136449   1.736   0.889   3.656 -1.3704  0.7718  0.8473
 4986TIP3    H236450   1.803   0.796   3.756  1.6638  0.8324 -0.9973
 4987TIP3   OH236451   0.278   1.857   2.886  0.4975  0.4228 -0.4867
 4987TIP3    H136452   0.252   1.859   2.794  0.6584  2.0543 -0.5252
 4987TIP3    H236453   0.322   1.941   2.900 -1.7256  1.3421  1.6759
 4988TIP3   OH236454   2.724   1.922   3.012  0.3103  0.1103  0.6109
 4988TIP3    H136455   2.699   2.009   3.042 -0.9720 -0.2392  0.6375
 4988TIP3    H236456   2.779   1.937   2.935 -1.4436  0.9282 -0.5279
 4989TIP3   OH236457   1.835   1.328  14.479 -0.2558 -0.5861  0.6703
 4989TIP3    H136458   1.838   1.424  14.476  0.1293 -0.5644  1.4921
 4989TIP3    H236459   1.744   1.306  14.456 -0.1978 -0.0528 -0.0830
 4990TIP3   OH236460   5.614   1.394  10.700  0.0911 -0.2815 -0.2487
 4990TIP3    H136461   5.700   1.351  10.701  0.6018  0.6999  0.5219
 4990TIP3    H236462   5.552   1.323  10.714  0.8359 -0.9259 -0.1272
 4991TIP3   OH236463   5.757   0.790  16.182 -1.0246 -0.4583  0.6854
 4991TIP3    H136464   5.787   0.728  16.115 -0.3624  1.0173 -0.4184
 4991TIP3    H236465   5.673   0.822  16.149 -0.5838  0.4526  0.4229
 4992TIP3   OH236466   2.646   2.951   3.831  0.1209  0.1638  0.6827
 4992TIP3    H136467   2.727   2.965   3.781 -1.0820  0.6064 -1.2297
 4992TIP3    H236468   2.625   3.037   3.866  0.5952 -0.0083  1.4218
 4993TIP3   OH236469   3.912   4.970   2.644 -0.1963 -0.3178 -0.3949
 4993TIP3    H136470   3.861   4.890   2.632  0.1067 -0.5097 -0.4094
 4993TIP3    H236471   3.897   4.995   2.735  0.2138 -0.7454 -0.2066
 4994TIP3   OH236472   2.523   6.128  15.067  0.8153  0.4437  0.6049
 4994TIP3    H136473   2.568   6.199  15.113  1.5354  1.7952 -2.0262
 4994TIP3    H236474   2.549   6.049  15.115  0.5845  1.8166  3.1711
 4995TIP3   OH236475   1.843   1.523   4.925  0.3343 -0.2844 -0.0835
 4995TIP3    H136476   1.916   1.534   4.864 -0.3847 -1.9762 -1.3604
 4995TIP3    H236477   1.768   1.502   4.868 -1.0969  1.1418  1.1984
 4996TIP3   OH236478   6.059   3.070   2.203  0.2269  0.3542  0.1254
 4996TIP3    H136479   6.028   3.159   2.186  1.1182  0.5262 -0.7001
 4996TIP3    H236480   6.045   3.023   2.121 -0.4171 -0.3345  0.6168
 4997TIP3   OH236481   5.389   6.248  14.933 -0.2708  0.3650  0.1099
 4997TIP3    H136482   5.479   6.270  14.957  0.9468 -0.6741 -3.0008
 4997TIP3    H236483   5.341   6.330  14.944  1.2458  1.1983  0.9122
 4998TIP3   OH236484   3.977   1.120  15.909 -0.4081 -0.2293 -0.1421
 4998TIP3    H136485   3.932   1.201  15.883 -0.1734 -0.3050 -0.7856
 4998TIP3    H236486   4.062   1.150  15.942  0.6205 -0.3599 -2.5238
 4999TIP3   OH236487   3.765   2.309   2.494 -0.4712  0.0148 -0.4190
 4999TIP3    H136488   3.813   2.297   2.412 -0.4801  0.8511 -0.5628
 4999TIP3    H236489   3.831   2.295   2.562 -0.1110  0.7025 -0.6086
 5000TIP3   OH236490   1.542   4.920  12.517  0.2647 -0.5576  0.3310
 5000TIP3    H136491   1.497   5.001  12.493 -0.6325 -0.8440  0.9987
 5000TIP3    H236492   1.563   4.879  12.433 -0.2189 -0.1409  0.0023
 5001TIP3   OH236493   5.186   0.689  13.366  0.1069 -0.1342 -0.6727
 5001TIP3    H136494   5.109   0.703  13.310  0.9802  0.0729 -1.8665
 5001TIP3    H236495   5.152   0.641  13.441 -1.3525  0.7434 -0.7293
 5002TIP3   OH236496   6.542   2.996   0.116  0.1894 -0.3066  0.1564
 5002TIP3    H136497   6.523   2.919   0.062  1.6877 -0.7421  0.2082
 5002TIP3    H236498   6.564   2.961   0.202 -2.5153  0.3993  1.2656
 5003TIP3   OH236499   5.216   1.999   5.169 -0.0974  0.2210 -0.3905
 5003TIP3    H136500   5.277   1.926   5.180 -1.0978 -0.4726  0.8099
 5003TIP3    H236501   5.242   2.040   5.086  1.1390 -0.8535 -0.5649
 5004TIP3   OH236502   2.151   1.324  11.434  0.1109  0.5462 -0.3084
 5004TIP3    H136503   2.197   1.268  11.371 -0.7726 -0.3199 -0.1935
 5004TIP3    H236504   2.161   1.412  11.398 -0.8412  0.0232 -1.9777
 5005TIP3   OH236505   6.588   1.484   2.142 -0.4763  0.2391 -0.7673
 5005TIP3    H136506   6.665   1.527   2.106  0.7045 -1.3563 -0.2447
 5005TIP3    H236507   6.582   1.401   2.094 -0.1332 -0.9539  1.1523
 5006TIP3   OH236508   5.506   5.586  11.495  0.7698 -0.0140  0.0231
 5006TIP3    H136509   5.547   5.554  11.575  4.9003 -0.4784 -2.0059
 5006TIP3    H236510   5.523   5.518  11.430  0.1666  1.5881 -1.9263
 5007TIP3   OH236511   6.566   2.500   4.703  0.2392  0.2649  0.3525
 5007TIP3    H136512   6.564   2.594   4.719  1.2969  0.3126  0.2878
 5007TIP3    H236513   6.479   2.469   4.729 -0.2326  1.3009  0.0664
 5008TIP3   OH236514   3.798   3.049  15.888 -0.1127 -0.1481  0.4297
 5008TIP3    H136515   3.721   3.105  15.883  0.2923  0.3472 -0.4919
 5008TIP3    H236516   3.821   3.048  15.981 -0.1155  1.2422  0.4650
 5009TIP3   OH236517   5.797   1.833   0.301 -0.0302  0.3809  0.0106
 5009TIP3    H136518   5.813   1.927   0.312  1.3289  0.2371 -0.5654
 5009TIP3    H236519   5.737   1.811   0.372 -0.5549  1.7269  0.0201
 5010TIP3   OH236520   2.088   3.430  13.862 -0.0191  0.4022 -0.5858
 5010TIP3    H136521   2.113   3.520  13.846 -0.6248  0.8545  0.9068
 5010TIP3    H236522   2.132   3.406  13.943 -0.3526 -0.4525 -0.6452
 5011TIP3   OH236523   0.042   6.081   6.129  0.0756 -0.0496 -0.5989
 5011TIP3    H136524   0.060   6.012   6.193 -0.0697  0.3412 -0.1303
 5011TIP3    H236525  -0.048   6.066   6.102  0.5895 -1.1155 -1.8434
 5012TIP3   OH236526   2.180   3.868  16.507 -0.0396  0.0261 -0.2284
 5012TIP3    H136527   2.171   3.903  16.418 -1.6014  0.9122  0.2537
 5012TIP3    H236528   2.101   3.895  16.552  0.8133 -0.2394  1.5148
 5013TIP3   OH236529   3.337   2.812  13.105  0.2874 -0.5914 -0.5362
 5013TIP3    H136530   3.398   2.849  13.170  0.1855 -2.1806  0.5126
 5013TIP3    H236531   3.298   2.736  13.148 -0.1995 -1.3912 -2.2749
 5014TIP3   OH236532   1.964   5.699  12.612 -0.1442 -0.4596  0.4882
 5014TIP3    H136533   1.998   5.730  12.528 -0.3324 -0.6371  0.3465
 5014TIP3    H236534   1.907   5.626  12.590 -1.8090  0.7374  0.5701
 5015TIP3   OH236535   1.138   4.891   1.421 -0.0744 -0.6215 -0.5478
 5015TIP3    H136536   1.181   4.955   1.477 -0.7706 -0.6344  0.0064
 5015TIP3    H236537   1.045   4.898   1.443 -0.5432  0.2487 -2.5560
 5016TIP3   OH236538   1.347   3.895   4.581 -0.5899 -0.0473  0.0380
 5016TIP3    H136539   1.366   3.989   4.575 -0.9911 -0.0694 -2.2012
 5016TIP3    H236540   1.252   3.889   4.575 -0.6368 -0.5690  1.0627
 5017TIP3   OH236541   2.201   2.106   1.388  0.3383 -0.4779 -0.3142
 5017TIP3    H136542   2.270   2.050   1.423 -0.7082 -1.3702  0.4167
 5017TIP3    H236543   2.195   2.082   1.296  1.3415 -0.0051 -0.5158
 5018TIP3   OH236544   3.521   3.297  12.713  0.2462  0.4884 -0.4466
 5018TIP3    H136545   3.459   3.259  12.652 -0.6712  0.1611  0.6610
 5018TIP3    H236546   3.604   3.299  12.665 -0.5569  0.7287 -1.8607
 5019TIP3   OH236547   2.457   3.666  17.155 -0.0563 -0.0151 -0.5565
 5019TIP3    H136548   2.485   3.723  17.227 -1.3556  0.3872 -0.3410
 5019TIP3    H236549   2.528   3.671  17.091  0.3011  1.0614 -0.1031
 5020TIP3   OH236550   4.245   1.337  11.915 -0.2664  0.2751 -0.2234
 5020TIP3    H136551   4.222   1.261  11.861 -1.6065 -0.2033  0.9635
 5020TIP3    H236552   4.339   1.328  11.931 -0.2714 -0.7377 -0.7123
 5021TIP3   OH236553   0.352   2.348  12.052  0.8760 -0.3774  0.2630
 5021TIP3    H136554   0.362   2.283  12.123  2.3488 -1.0525 -0.5177
 5021TIP3    H236555   0.293   2.306  11.990  0.6294 -0.3447  0.4754
 5022TIP3   OH236556   0.584   0.632   1.010 -0.0459  0.0714  0.0872
 5022TIP3    H136557   0.658   0.660   1.063  0.5529  1.3279 -1.3617
 5022TIP3    H236558   0.555   0.711   0.965 -0.1112 -1.0647 -1.9655
 5023TIP3   OH236559   6.572   6.160   2.260 -0.0177 -0.5905  0.1252
 5023TIP3    H136560   6.526   6.083   2.294 -1.4419  0.5118  0.7832
 5023TIP3    H236561   6.618   6.128   2.183  1.1863 -2.5897  1.5672
 5024TIP3   OH236562   6.371   3.158  16.149  0.2772  0.2109  0.1499
 5024TIP3    H136563   6.369   3.064  16.166  2.5651  0.4193  2.2344
 5024TIP3    H236564   6.451   3.171  16.098  1.7612  1.2410  2.5373
 5025TIP3   OH236565   2.618   6.024   2.643  0.2309 -0.3640 -0.1598
 5025TIP3    H136566   2.698   6.007   2.691  0.6958  0.0525 -0.7631
 5025TIP3    H236567   2.550   6.030   2.710  0.5942 -1.2980  0.3134
 5026TIP3   OH236568   3.277   6.211   5.452 -0.6102 -0.0777  0.0850
 5026TIP3    H136569   3.325   6.290   5.425 -1.5640 -0.0697 -1.7500
 5026TIP3    H236570   3.277   6.215   5.547  1.1119  1.0729  0.0891
 5027TIP3   OH236571   2.206   1.277   1.895 -0.1358 -0.5363 -0.2032
 5027TIP3    H136572   2.198   1.359   1.847 -0.9551  0.6663  1.8706
 5027TIP3    H236573   2.193   1.301   1.986 -0.8686 -3.0557  0.4328
 5028TIP3   OH236574   5.246   4.218  14.051 -0.0225  0.4718  0.0455
 5028TIP3    H136575   5.226   4.309  14.072 -1.5178 -0.0327  0.9367
 5028TIP3    H236576   5.187   4.166  14.106  1.8056 -1.0941  0.6498
 5029TIP3   OH236577   5.351   2.982  14.791 -0.6031 -0.5566 -0.6697
 5029TIP3    H136578   5.327   3.014  14.704  0.0839  2.0207 -0.0043
 5029TIP3    H236579   5.439   2.947  14.781 -0.0174  0.8958 -0.8012
 5030TIP3   OH236580   1.738   3.572   3.038  0.1523  0.0544 -0.5089
 5030TIP3    H136581   1.816   3.524   3.064 -0.7405 -0.4938  1.3246
 5030TIP3    H236582   1.769   3.635   2.973  2.3023  0.4519  0.7952
 5031TIP3   OH236583   2.090   4.283   4.990  0.6622 -0.2419  0.1323
 5031TIP3    H136584   2.001   4.318   5.004 -0.0472 -1.8716 -0.0819
 5031TIP3    H236585   2.132   4.290   5.075 -0.3262 -1.1430  0.7207
 5032TIP3   OH236586   6.740   6.730  14.063  0.6196  0.5534 -0.2406
 5032TIP3    H136587   6.784   6.648  14.042 -0.5632 -0.5917  1.4737
 5032TIP3    H236588   6.763   6.746  14.155 -0.2960  1.3860 -0.1389
 5033TIP3   OH236589   3.579   1.760   0.273  0.4758  0.0905  0.2948
 5033TIP3    H136590   3.644   1.691   0.257  0.9997  0.6190  0.1394
 5033TIP3    H236591   3.505   1.713   0.312  0.3879 -0.7422 -0.8054
 5034TIP3   OH236592   2.510   0.269   0.590 -0.0333  0.5880  0.3054
 5034TIP3    H136593   2.581   0.209   0.614  0.1767  1.1887  1.2424
 5034TIP3    H236594   2.548   0.356   0.598 -0.7122  0.8987  0.2497
 5035TIP3   OH236595   2.154   3.135   0.666  0.5993  0.5253  0.0886
 5035TIP3    H136596   2.086   3.092   0.718  0.3342 -0.3689 -0.9642
 5035TIP3    H236597   2.231   3.080   0.677  0.7416  0.7283  0.1011
 5036TIP3   OH236598   2.538   3.847  13.064 -0.3649 -0.2564  0.1252
 5036TIP3    H136599   2.514   3.862  12.973 -1.4593  1.4908  0.6486
 5036TIP3    H236600   2.463   3.801  13.102 -0.1543 -0.4840  0.2678
 5037TIP3   OH236601   2.842   5.307  13.696 -0.1297  0.1068 -0.0616
 5037TIP3    H136602   2.875   5.262  13.774  0.9203 -0.1248 -0.6146
 5037TIP3    H236603   2.852   5.243  13.625  0.7340  0.9377 -0.7241
 5038TIP3   OH236604   6.228   1.477   3.212  0.6522 -0.0850 -0.0663
 5038TIP3    H136605   6.213   1.460   3.119 -1.0070 -0.4260  0.2275
 5038TIP3    H236606   6.148   1.521   3.242  1.8803  1.6562  0.8250
 5039TIP3   OH236607   1.616   5.308   0.530 -0.1209  0.7355  0.1911
 5039TIP3    H136608   1.644   5.235   0.475  0.6649  0.3924  1.0137
 5039TIP3    H236609   1.558   5.360   0.474  0.5641  0.3392 -0.9179
 5040TIP3   OH236610   0.696   1.566   1.223 -0.3950  0.0315  0.0356
 5040TIP3    H136611   0.684   1.556   1.129  2.3218  0.6795 -0.4854
 5040TIP3    H236612   0.790   1.581   1.233 -0.7953  1.3505  2.7270
 5041TIP3   OH236613   5.496   4.448  11.368  0.7619 -0.3780  0.0603
 5041TIP3    H136614   5.411   4.454  11.326  0.7638 -0.5587  0.0325
 5041TIP3    H236615   5.557   4.425  11.298  0.6957 -1.1155  0.2437
 5042TIP3   OH236616   1.050   1.778   5.129 -0.2385  0.3313 -0.5039
 5042TIP3    H136617   1.128   1.755   5.180 -0.8642  2.0035  1.3342
 5042TIP3    H236618   1.001   1.837   5.186 -1.4914  1.5311 -2.7001
 5043TIP3   OH236619   1.190   0.349   1.426 -0.0243 -0.2940  0.4201
 5043TIP3    H136620   1.111   0.378   1.472 -0.2683 -0.6988  0.2619
 5043TIP3    H236621   1.260   0.406   1.460  0.1260 -1.6528  2.5614
 5044TIP3   OH236622   0.975   5.357  11.655  0.2397  0.1329  0.1618
 5044TIP3    H136623   1.062   5.395  11.638  0.2589  0.1727  0.3480
 5044TIP3    H236624   0.988   5.301  11.732  0.2507 -0.3899 -0.2153
 5045TIP3   OH236625   5.654   3.552  12.108  0.0431 -0.1750  0.0590
 5045TIP3    H136626   5.731   3.606  12.090  1.6471 -1.4917  2.3714
 5045TIP3    H236627   5.620   3.586  12.191 -0.9485 -0.6185 -0.1460
 5046TIP3   OH236628   5.753   5.969   4.556  0.2260 -0.5472  0.1637
 5046TIP3    H136629   5.806   6.046   4.535  0.9312 -1.2767 -0.8064
 5046TIP3    H236630   5.812   5.895   4.540 -1.1338 -1.3933 -1.1108
 5047TIP3   OH236631   4.816   1.412   3.538  0.1922 -0.1044  0.1173
 5047TIP3    H136632   4.811   1.355   3.461  0.2426 -0.6776  0.5401
 5047TIP3    H236633   4.907   1.404   3.568  0.0803 -0.1384  0.4422
 5048TIP3   OH236634   1.850   3.420   3.564  0.1285  0.1505  0.6338
 5048TIP3    H136635   1.805   3.382   3.640 -1.5710 -0.4776 -0.6262
 5048TIP3    H236636   1.922   3.359   3.546 -0.4348 -0.5758  0.7812
 5049TIP3   OH236637   2.909   0.056   6.367 -0.1562 -0.4341  0.1853
 5049TIP3    H136638   2.938  -0.035   6.372 -0.1924 -0.3894  2.3818
 5049TIP3    H236639   2.986   0.104   6.337 -1.1600 -1.4861 -5.1078
 5050TIP3   OH236640   1.331   3.607  12.057 -0.5266 -0.2100 -0.4001
 5050TIP3    H136641   1.376   3.628  11.975  0.6026 -0.1355  0.2029
 5050TIP3    H236642   1.241   3.589  12.032 -0.5126  1.0734 -1.4983
 5051TIP3   OH236643   2.753   4.957   3.649  0.0664 -0.0282  0.2623
 5051TIP3    H136644   2.755   4.957   3.553  2.6365 -0.7256  0.2541
 5051TIP3    H236645   2.659   4.955   3.671 -0.5922  0.5420 -2.2004
 5052TIP3   OH236646   4.222   0.447  11.474 -0.1852  0.3899  0.1069
 5052TIP3    H136647   4.209   0.504  11.398 -1.0151  0.5700  0.3747
 5052TIP3    H236648   4.229   0.507  11.548 -2.9837  0.1431  0.6686
 5053TIP3   OH236649   5.254   2.328  12.553  0.2849 -0.2974  0.3692
 5053TIP3    H136650   5.338   2.327  12.601 -0.3768  1.1170  1.6406
 5053TIP3    H236651   5.273   2.282  12.471  1.8195 -1.6508  1.4112
 5054TIP3   OH236652   3.102   2.437   1.007 -0.2627 -0.3498 -0.5243
 5054TIP3    H136653   3.129   2.350   1.038  0.4973  0.1238  0.1750
 5054TIP3    H236654   3.123   2.496   1.079  0.3633  0.5942 -1.4449
 5055TIP3   OH236655   2.949   2.736   3.780 -0.3477  0.0254 -0.5878
 5055TIP3    H136656   2.867   2.712   3.823 -0.0553 -2.1971 -1.1196
 5055TIP3    H236657   2.974   2.819   3.820 -1.2700 -0.7829  1.8682
 5056TIP3   OH236658   5.226   5.129  13.707 -0.2973 -0.0651 -0.0574
 5056TIP3    H136659   5.255   5.045  13.673 -0.3956  0.2603 -0.9655
 5056TIP3    H236660   5.206   5.112  13.799 -2.4984 -1.5954 -0.7441
 5057TIP3   OH236661   4.645   2.357  13.662 -0.3902  0.3679  1.0021
 5057TIP3    H136662   4.678   2.299  13.730 -1.8719 -2.1451 -0.2944
 5057TIP3    H236663   4.719   2.367  13.601 -0.0528  0.0317  1.3516
 5058TIP3   OH236664   5.545   5.758   5.283 -0.1292 -0.3923 -0.1384
 5058TIP3    H136665   5.599   5.715   5.350 -0.1161  0.4889  0.4313
 5058TIP3    H236666   5.570   5.850   5.287  0.5122 -0.4355 -1.9693
 5059TIP3   OH236667   4.087   5.189  15.576 -0.3611  0.1201 -0.1989
 5059TIP3    H136668   4.026   5.121  15.606  0.0575  0.0995  0.6294
 5059TIP3    H236669   4.147   5.143  15.517 -1.2369  0.1745 -1.1584
 5060TIP3   OH236670   2.249   6.313  11.737  0.5971 -0.1233 -0.3227
 5060TIP3    H136671   2.255   6.263  11.818 -0.5257  3.2848  2.0868
 5060TIP3    H236672   2.337   6.347  11.722  0.9345 -1.2193 -0.9108
 5061TIP3   OH236673   2.754   4.702   2.801  0.0051 -0.2116  0.0626
 5061TIP3    H136674   2.752   4.613   2.836  1.9530 -0.4825 -0.3991
 5061TIP3    H236675   2.753   4.691   2.706  1.9620  0.1248 -0.0407
 5062TIP3   OH236676   3.089   2.084  15.303  0.5029  0.1413 -0.1459
 5062TIP3    H136677   3.068   2.056  15.214  2.1501  0.9459 -0.8259
 5062TIP3    H236678   3.172   2.041  15.322  1.7424  2.3825 -0.2021
 5063TIP3   OH236679   1.798   0.185   3.796  0.1295 -0.6434 -0.1496
 5063TIP3    H136680   1.765   0.096   3.783  0.6720 -0.8323 -0.2785
 5063TIP3    H236681   1.836   0.185   3.884 -1.7127  0.0588  0.6941
 5064TIP3   OH236682   0.482   6.091  11.503 -0.1094 -0.4626 -0.1683
 5064TIP3    H136683   0.451   6.149  11.573 -0.3376 -1.9577  1.0250
 5064TIP3    H236684   0.403   6.048  11.471  0.1090 -0.4554 -0.7146
 5065TIP3   OH236685   1.138   4.532  15.973  0.0987  0.1474  0.0085
 5065TIP3    H136686   1.102   4.444  15.983  1.1768 -0.4321 -0.8747
 5065TIP3    H236687   1.063   4.590  15.981 -0.7387 -0.8987 -0.0131
 5066TIP3   OH236688   6.805   5.643   4.254  0.1748 -0.0324  0.1406
 5066TIP3    H136689   6.815   5.549   4.238  0.3222  0.0062  0.0035
 5066TIP3    H236690   6.871   5.663   4.320  0.1755 -0.0171  0.1352
 5067TIP3   OH236691   1.083   1.463  15.919 -0.3446  0.0078  0.3019
 5067TIP3    H136692   1.120   1.429  15.838 -1.1749 -1.7323  0.6038
 5067TIP3    H236693   1.097   1.393  15.983 -3.6437 -0.6004  0.5519
 5068TIP3   OH236694   4.531   1.618  14.462 -0.1373  0.0257  0.3804
 5068TIP3    H136695   4.526   1.523  14.475  1.3827 -0.6576 -2.9813
 5068TIP3    H236696   4.446   1.650  14.491 -1.0996 -2.5237  0.6671
 5069TIP3   OH236697   4.926   1.877   6.287  0.0358 -0.4532 -0.2993
 5069TIP3    H136698   4.871   1.847   6.359  1.0350 -1.0192  0.2435
 5069TIP3    H236699   4.991   1.934   6.328 -1.3377  1.9439 -1.2035
 5070TIP3   OH236700   5.849   3.736   3.269 -0.6715  0.1548 -0.0895
 5070TIP3    H136701   5.940   3.764   3.280 -0.5450 -0.9234  2.2969
 5070TIP3    H236702   5.805   3.812   3.231  0.7417  1.5943  1.0128
 5071TIP3   OH236703   4.026   2.994   3.988  0.2622  0.2908 -0.3266
 5071TIP3    H136704   4.002   2.916   3.937  1.5178  0.2326 -0.8667
 5071TIP3    H236705   3.947   3.016   4.036 -0.4913 -0.5934 -1.1121
 5072TIP3   OH236706   2.237   4.218  14.499  0.4758  0.2261  0.3968
 5072TIP3    H136707   2.198   4.303  14.518  0.1246 -0.1179  1.2840
 5072TIP3    H236708   2.171   4.171  14.449  0.2629  0.1146  0.7787
 5073TIP3   OH236709   3.653   4.938   4.624 -0.0582 -0.4180 -0.1735
 5073TIP3    H136710   3.738   4.895   4.617 -0.1585 -0.6455 -0.0277
 5073TIP3    H236711   3.597   4.872   4.665 -0.6344 -0.7261 -1.4365
 5074TIP3   OH236712   3.781   3.968   5.018  0.2356  0.2578  0.6787
 5074TIP3    H136713   3.758   4.018   4.939 -2.3829 -1.0266  0.5347
 5074TIP3    H236714   3.869   3.935   5.000  0.8323  2.2931 -0.4726
 5075TIP3   OH236715   3.229   4.177  12.911  0.1306  0.5255 -0.0323
 5075TIP3    H136716   3.271   4.097  12.880  0.3720  0.8065 -0.4348
 5075TIP3    H236717   3.149   4.147  12.955 -0.3435  0.1332 -1.1295
 5076TIP3   OH236718   2.503   4.275  12.196  0.1227 -0.0389 -0.1800
 5076TIP3    H136719   2.501   4.285  12.101  0.1910 -0.4098 -0.2225
 5076TIP3    H236720   2.575   4.214  12.213  0.9297  0.9779  0.2062
 5077TIP3   OH236721   6.606   4.217   2.030 -0.7474 -0.1873  0.5946
 5077TIP3    H136722   6.641   4.163   2.100 -0.7079 -0.2989  0.4876
 5077TIP3    H236723   6.608   4.161   1.952 -0.2458  0.1253  0.3754
 5078TIP3   OH236724   3.322   0.013   0.554 -0.3214 -0.0104  0.0385
 5078TIP3    H136725   3.278   0.097   0.544 -1.3205 -0.4585  0.4965
 5078TIP3    H236726   3.365   0.018   0.639  0.9796  0.6262 -0.6422
 5079TIP3   OH236727   4.786   2.477  10.688 -0.1730 -0.1413 -0.8699
 5079TIP3    H136728   4.773   2.524  10.606  1.7680  0.0927 -1.0952
 5079TIP3    H236729   4.876   2.445  10.684  0.1018  0.1544  1.3001
 5080TIP3   OH236730   1.173   2.166  16.922 -0.4799  0.3090 -0.1830
 5080TIP3    H136731   1.104   2.113  16.883 -0.4639 -0.0883  0.3223
 5080TIP3    H236732   1.193   2.232  16.856 -1.7781  0.8145 -0.0912
 5081TIP3   OH236733   1.562   3.487  15.065 -0.1482 -0.1507 -0.3014
 5081TIP3    H136734   1.578   3.411  15.009  0.2922  0.5212 -1.1238
 5081TIP3    H236735   1.594   3.460  15.151  2.8581  0.0870 -1.2255
 5082TIP3   OH236736   1.070   6.472   3.466  0.3648 -0.1641 -0.4251
 5082TIP3    H136737   1.016   6.497   3.392  0.4973  0.5631 -0.2860
 5082TIP3    H236738   1.008   6.449   3.535  0.2430 -0.7409 -0.7227
 5083TIP3   OH236739   6.639   0.546   2.376  0.3501  0.4672 -0.0151
 5083TIP3    H136740   6.607   0.635   2.359 -2.7400 -0.6322 -0.4482
 5083TIP3    H236741   6.591   0.517   2.453  0.6388 -1.1558 -0.4161
 5084TIP3   OH236742   2.050   3.291  15.348 -0.3444  0.3732 -0.0365
 5084TIP3    H136743   2.139   3.256  15.348 -1.0522 -1.6430 -1.3768
 5084TIP3    H236744   2.011   3.256  15.428 -0.2077  0.5193  0.0966
 5085TIP3   OH236745   5.713   6.507   1.605  0.4858  0.1475 -0.4107
 5085TIP3    H136746   5.673   6.558   1.676 -1.6886 -1.8018 -0.0917
 5085TIP3    H236747   5.777   6.451   1.649 -0.9195 -1.1220  0.1259
 5086TIP3   OH236748   6.624   5.028  17.167  0.0222  0.8329  0.1043
 5086TIP3    H136749   6.591   5.066  17.085  0.5460  0.4899 -0.2751
 5086TIP3    H236750   6.719   5.033  17.159  0.1641 -1.7819 -0.5758
 5087TIP3   OH236751   3.642   2.497  11.597 -0.3214 -0.0854  0.0338
 5087TIP3    H136752   3.673   2.586  11.618  0.0731 -0.2641  0.2307
 5087TIP3    H236753   3.550   2.508  11.574 -0.5107  0.2522  0.9356
 5088TIP3   OH236754   3.440   4.042  13.094 -0.3173  0.0155  0.4170
 5088TIP3    H136755   3.373   3.990  13.139 -0.9409  1.1358  0.8276
 5088TIP3    H236756   3.421   4.031  13.001 -0.9376  0.1543  0.5251
 5089TIP3   OH236757   2.937   3.800  15.263  0.7365  0.0407  0.7836
 5089TIP3    H136758   2.875   3.868  15.288  1.0364  0.9935 -0.9295
 5089TIP3    H236759   2.946   3.808  15.168  2.5452 -0.8678  0.8268
 5090TIP3   OH236760   0.338   4.670  15.280  0.0684 -0.0438 -0.0015
 5090TIP3    H136761   0.296   4.635  15.359 -1.2273 -2.7142 -1.6844
 5090TIP3    H236762   0.265   4.680  15.217  1.3015 -0.1014 -1.5069
 5091TIP3   OH236763   3.114   4.903  16.422  0.3601 -0.3076 -0.6237
 5091TIP3    H136764   3.103   4.817  16.464  1.3019  0.2841  0.9168
 5091TIP3    H236765   3.171   4.886  16.347 -0.3168 -1.1899 -0.9557
 5092TIP3   OH236766   3.522   2.754   1.207  0.0560  0.3343 -0.3868
 5092TIP3    H136767   3.468   2.807   1.266 -0.9379  0.0080 -0.9704
 5092TIP3    H236768   3.610   2.791   1.215 -0.3096  1.0873  0.3529
 5093TIP3   OH236769   1.516   3.744   2.124 -0.7738 -0.2848  0.7350
 5093TIP3    H136770   1.438   3.689   2.129 -0.7397 -0.2560  1.9535
 5093TIP3    H236771   1.571   3.714   2.196 -0.2829  0.6354  0.7584
 5094TIP3   OH236772   2.297   1.406  15.080  0.1577 -0.4001  0.2456
 5094TIP3    H136773   2.327   1.469  15.145 -2.3396 -0.3574  1.4759
 5094TIP3    H236774   2.207   1.433  15.060  0.2954 -1.3854 -2.0386
 5095TIP3   OH236775   1.606   5.632  12.673 -0.1452 -0.0896 -0.2516
 5095TIP3    H136776   1.668   5.575  12.719  1.4218  1.2578 -0.6067
 5095TIP3    H236777   1.606   5.601  12.583  0.5043  0.2828 -0.3859
 5096TIP3   OH236778   5.007   5.278  11.565 -0.1407 -0.3479 -0.2588
 5096TIP3    H136779   5.028   5.350  11.624 -1.2221  1.3415 -1.8523
 5096TIP3    H236780   5.016   5.200  11.619 -1.3799  1.1138  2.2211
 5097TIP3   OH236781   2.681   3.457  13.139 -0.4404 -0.1113  0.0780
 5097TIP3    H136782   2.674   3.492  13.050 -1.5791  1.5107  0.7557
 5097TIP3    H236783   2.649   3.367  13.132 -0.7819  0.0840 -1.0926
 5098TIP3   OH236784   0.522   1.222  11.778 -0.4291 -0.2256 -0.1313
 5098TIP3    H136785   0.541   1.304  11.825 -0.0321  0.2126 -1.0394
 5098TIP3    H236786   0.583   1.159  11.815  1.6337  0.7185 -1.7456
 5099TIP3   OH236787   1.156   3.739  12.723  0.1087  0.2896  0.2934
 5099TIP3    H136788   1.158   3.829  12.755 -4.5984  0.5820  0.4551
 5099TIP3    H236789   1.200   3.743  12.638  0.5229  2.6025  0.5367
 5100TIP3   OH236790   0.062   3.281  11.827  0.0829 -0.0406  0.5830
 5100TIP3    H136791  -0.021   3.242  11.854  0.0277 -0.0268  0.4348
 5100TIP3    H236792   0.113   3.208  11.790 -0.2711  0.1445 -0.2895
 5101TIP3   OH236793   2.256   5.709  11.867 -0.0615 -0.0541 -0.6785
 5101TIP3    H136794   2.278   5.616  11.861 -2.3113 -0.6131 -1.1041
 5101TIP3    H236795   2.191   5.723  11.798 -1.6227  1.2307  0.9663
 5102TIP3   OH236796   5.460   2.944  14.159 -0.3768  0.1405  0.0197
 5102TIP3    H136797   5.552   2.955  14.136 -0.2514  0.1988  0.5598
 5102TIP3    H236798   5.415   2.942  14.074  0.1825 -0.5053 -0.2756
 5103TIP3   OH236799   6.301   4.646  10.906  0.2482  0.3050  0.0519
 5103TIP3    H136800   6.253   4.565  10.888  1.0267 -0.5179  1.5135
 5103TIP3    H236801   6.362   4.655  10.833 -0.0025 -0.2923 -0.2361
 5104TIP3   OH236802   1.859   3.778  16.666 -0.1019  0.0933  0.2069
 5104TIP3    H136803   1.817   3.708  16.715  0.6208 -2.3751 -2.3575
 5104TIP3    H236804   1.789   3.839  16.645 -1.5802 -1.6910 -0.3471
 5105TIP3   OH236805   4.191   4.506   3.153 -0.4726 -0.1317 -0.4571
 5105TIP3    H136806   4.222   4.596   3.165 -2.9252  0.8369 -0.8761
 5105TIP3    H236807   4.131   4.491   3.227 -1.4838 -0.7467 -1.3776
 5106TIP3   OH236808   0.747   5.753   2.275 -0.3679  0.9607  0.0063
 5106TIP3    H136809   0.652   5.758   2.288 -0.2297  0.0317  1.5023
 5106TIP3    H236810   0.784   5.808   2.344  0.1936  1.9320 -1.0264
 5107TIP3   OH236811   4.033   4.966  11.739 -0.1499  0.4188  0.2335
 5107TIP3    H136812   4.008   4.873  11.738  1.1727  0.0325 -0.4909
 5107TIP3    H236813   4.050   4.986  11.647  1.4651  0.8104  0.5863
 5108TIP3   OH236814   5.524   4.008  13.303  0.3012  0.1968 -0.1321
 5108TIP3    H136815   5.491   4.068  13.237 -2.3363 -0.2800  0.5985
 5108TIP3    H236816   5.582   3.949  13.256  0.3716  1.3150 -1.5040
 5109TIP3   OH236817   4.465   5.410  16.170 -0.0017  0.3036 -0.6687
 5109TIP3    H136818   4.444   5.502  16.152  0.0114  0.3021 -0.6914
 5109TIP3    H236819   4.561   5.406  16.165  0.0737  0.5245  0.4517
 5110TIP3   OH236820   6.214   0.475   3.000 -0.5384 -0.5236 -0.1593
 5110TIP3    H136821   6.139   0.512   2.954  0.0411  1.3934  0.3594
 5110TIP3    H236822   6.288   0.527   2.970  0.5487 -2.0910 -0.3197
 5111TIP3   OH236823   2.778   5.681  16.308  0.0343  0.1751 -0.2475
 5111TIP3    H136824   2.770   5.776  16.316  2.9987  0.5236 -0.5868
 5111TIP3    H236825   2.706   5.656  16.250 -1.7049  1.9470  1.0005
 5112TIP3   OH236826   1.410   3.833  13.545  0.3340  0.1289 -0.4446
 5112TIP3    H136827   1.326   3.879  13.545  0.0821 -0.3173 -1.3699
 5112TIP3    H236828   1.387   3.740  13.539  0.8904  0.0182 -0.9441
 5113TIP3   OH236829   1.502   1.522   3.784  0.2075 -0.2630 -0.1868
 5113TIP3    H136830   1.477   1.501   3.874 -1.0535  0.0371 -0.4448
 5113TIP3    H236831   1.423   1.561   3.746  1.2340  1.1936 -0.9234
 5114TIP3   OH236832   3.205   0.093  15.891  0.0254 -0.3488  0.1324
 5114TIP3    H136833   3.217   0.185  15.870  1.2793 -0.3254  0.8066
 5114TIP3    H236834   3.292   0.054  15.877 -0.1596 -1.1558  1.0850
 5115TIP3   OH236835   4.938   4.735   4.527  0.2973 -0.0248  0.5864
 5115TIP3    H136836   4.874   4.679   4.570  0.2660 -0.1770  0.3440
 5115TIP3    H236837   5.023   4.698   4.551  0.2575 -0.8182 -0.4205
 5116TIP3   OH236838   1.122   2.079   1.210 -0.6928 -0.3185  0.6886
 5116TIP3    H136839   1.107   2.131   1.290  0.5767  1.3444 -0.0801
 5116TIP3    H236840   1.206   2.036   1.226 -0.5385 -0.1504  0.3306
 5117TIP3   OH236841   6.560   2.812  14.459 -0.2088 -0.1621  0.5677
 5117TIP3    H136842   6.517   2.887  14.417  0.3029  0.0533  0.4237
 5117TIP3    H236843   6.636   2.794  14.404  1.1424  0.8502  1.9879
 5118TIP3   OH236844   6.419   3.523   3.768 -0.4527 -0.5500 -0.1061
 5118TIP3    H136845   6.514   3.528   3.767 -0.3250 -2.0248 -2.0742
 5118TIP3    H236846   6.399   3.447   3.823 -0.4909 -0.3339  0.1802
 5119TIP3   OH236847   1.989   4.066   4.308 -0.3446  0.2516 -0.0235
 5119TIP3    H136848   2.038   4.148   4.295  2.7050 -1.7510 -2.6149
 5119TIP3    H236849   2.017   4.010   4.236 -3.4332 -2.6408  0.7956
 5120TIP3   OH236850   3.166   4.589   0.618  0.5094 -0.0220  0.0329
 5120TIP3    H136851   3.107   4.664   0.630  0.8960  0.3099 -0.1151
 5120TIP3    H236852   3.213   4.582   0.701  1.3731  0.6937 -0.3789
 5121TIP3   OH236853   5.761   3.987   0.983  0.4129  0.0355 -0.1603
 5121TIP3    H136854   5.780   3.997   1.076 -1.7916  1.5138  0.2068
 5121TIP3    H236855   5.709   3.907   0.977  0.8893 -0.2781 -0.2071
 5122TIP3   OH236856   3.098   5.278   3.666 -0.3815 -0.5378 -0.7131
 5122TIP3    H136857   3.067   5.347   3.607  0.0214 -1.0639 -1.5709
 5122TIP3    H236858   3.165   5.321   3.719 -2.1219  0.4564  0.7706
 5123TIP3   OH236859   3.589   5.987   1.340 -0.2244  0.7382  0.1361
 5123TIP3    H136860   3.598   5.903   1.296 -0.1271  1.6198 -1.6202
 5123TIP3    H236861   3.496   6.008   1.333  0.2202  2.2487 -2.4211
 5124TIP3   OH236862   0.863   3.278   3.697  0.5246  0.3941 -0.0604
 5124TIP3    H136863   0.804   3.299   3.624 -0.8147 -0.7392  0.6287
 5124TIP3    H236864   0.808   3.285   3.775  1.2826 -0.7294  0.6107
 5125TIP3   OH236865   0.992   2.934   2.314 -0.0920  0.0007 -0.1737
 5125TIP3    H136866   1.050   2.894   2.379 -0.9746  0.7643  1.1488
 5125TIP3    H236867   1.019   3.026   2.310 -0.6504  0.1727 -0.1660
 5126TIP3   OH236868   5.455   4.500   4.556 -0.1975  0.7648 -0.0538
 5126TIP3    H136869   5.414   4.584   4.535 -0.7622  0.7575  0.9866
 5126TIP3    H236870   5.386   4.448   4.595 -0.4573 -1.0373 -2.6655
 5127TIP3   OH236871   4.098   1.835   1.798  0.4132 -0.1118  0.0968
 5127TIP3    H136872   4.056   1.764   1.750  0.8103 -0.3437  0.0866
 5127TIP3    H236873   4.066   1.915   1.756 -0.1229 -0.2782  0.1809
 5128TIP3   OH236874   0.131   0.868   1.229  0.1308 -0.2502 -0.0978
 5128TIP3    H136875   0.190   0.800   1.196  0.9823  0.2845  0.2614
 5128TIP3    H236876   0.062   0.821   1.275  1.6706 -0.8637  1.7149
 5129TIP3   OH236877   0.026   6.684   5.023  0.3702  0.0987 -0.2243
 5129TIP3    H136878   0.065   6.596   5.029  2.0756  0.8386 -0.0450
 5129TIP3    H236879   0.056   6.728   5.103 -1.6030  0.4415  0.3836
 5130TIP3   OH236880   3.565   4.839  12.158  0.0955  0.1718 -0.7537
 5130TIP3    H136881   3.518   4.885  12.227 -1.4985  0.6779 -2.0893
 5130TIP3    H236882   3.508   4.765  12.135  0.4450  0.1809 -1.6980
 5131TIP3   OH236883   2.052   1.924  16.140 -0.5889  0.4058 -0.6063
 5131TIP3    H136884   2.057   1.992  16.207  1.0887  0.0321 -0.3137
 5131TIP3    H236885   2.053   1.973  16.057 -1.4280  0.8069 -0.3967
 5132TIP3   OH236886   1.319   6.384   3.503  0.3380 -0.0580 -0.0048
 5132TIP3    H136887   1.228   6.405   3.481  0.1562  0.0604  0.8214
 5132TIP3    H236888   1.316   6.362   3.596  0.8792 -1.6685 -0.3291
 5133TIP3   OH236889   2.857   3.832  13.829 -0.1881 -0.2082 -0.0640
 5133TIP3    H136890   2.883   3.840  13.737  0.4570  0.5613  0.1737
 5133TIP3    H236891   2.877   3.741  13.852  1.7836  0.1897 -0.0600
 5134TIP3   OH236892   4.627   3.319   5.879  0.0725  0.4511 -0.5411
 5134TIP3    H136893   4.627   3.223   5.886 -2.8154  0.1303 -2.7142
 5134TIP3    H236894   4.681   3.349   5.952  1.7341 -2.8308 -0.2491
 5135TIP3   OH236895   2.610   4.731   5.283 -0.1176 -0.4455 -0.1209
 5135TIP3    H136896   2.632   4.822   5.261 -0.2585  0.1140  1.8263
 5135TIP3    H236897   2.525   4.716   5.240 -0.1462  0.3866 -0.3683
 5136TIP3   OH236898   4.774   0.585  16.254 -0.5715 -0.2723 -0.5245
 5136TIP3    H136899   4.864   0.608  16.276  0.2764 -0.9361 -3.0034
 5136TIP3    H236900   4.741   0.663  16.208 -1.4376  0.1298  0.7353
 5137TIP3   OH236901   6.701   5.599  16.458  0.4774  0.0474 -0.5265
 5137TIP3    H136902   6.703   5.683  16.412  1.7731  1.3678  1.7438
 5137TIP3    H236903   6.608   5.578  16.465 -0.2364  3.1609  1.8018
 5138TIP3   OH236904   1.022   4.355  11.933 -0.0515  0.4777 -0.0944
 5138TIP3    H136905   1.047   4.293  11.864 -1.5355 -0.4149  0.1264
 5138TIP3    H236906   0.938   4.323  11.964 -0.5842  2.2972  0.4379
 5139TIP3   OH236907   1.605   5.106   0.756  0.3579 -0.4296 -0.6009
 5139TIP3    H136908   1.591   5.127   0.849  1.2921 -0.9110 -0.3297
 5139TIP3    H236909   1.533   5.149   0.710  0.3212  0.4827  0.2669
 5140TIP3   OH236910   0.330   5.803   6.490  0.5466 -0.1252 -0.3294
 5140TIP3    H136911   0.374   5.857   6.556  1.3866 -1.5944  0.3766
 5140TIP3    H236912   0.401   5.754   6.449 -0.2198 -0.9382 -0.7093
 5141TIP3   OH236913   6.122   3.087   4.662  0.0472  0.6739 -0.3969
 5141TIP3    H136914   6.185   3.067   4.731  2.1037  0.3171 -2.2722
 5141TIP3    H236915   6.159   3.163   4.617  1.5080 -1.9510 -4.1083
 5142TIP3   OH236916   2.379   0.134   6.204 -0.2330 -0.3536  0.1343
 5142TIP3    H136917   2.400   0.219   6.244 -0.1731 -0.0108 -0.6024
 5142TIP3    H236918   2.293   0.111   6.241 -1.2888  1.0902 -1.2727
 5143TIP3   OH236919   3.512   3.204   2.577 -0.1287 -0.4877  0.0837
 5143TIP3    H136920   3.419   3.202   2.600 -0.0226  1.7341  1.0170
 5143TIP3    H236921   3.528   3.121   2.532 -2.0655 -1.8343  1.7202
 5144TIP3   OH236922   2.361   5.333  13.336 -0.1876 -0.2418  0.1265
 5144TIP3    H136923   2.292   5.290  13.286 -0.1084  0.2734 -0.4366
 5144TIP3    H236924   2.427   5.357  13.270 -0.4580  1.1771  0.3533
 5145TIP3   OH236925   0.352   3.169  14.204 -0.1649 -0.0489  0.4719
 5145TIP3    H136926   0.354   3.082  14.165  0.1351  0.1064  0.1325
 5145TIP3    H236927   0.289   3.218  14.151  1.0640  0.4920 -0.5569
 5146TIP3   OH236928   2.123   3.058  11.503 -0.6465 -0.0519  0.4343
 5146TIP3    H136929   2.205   3.084  11.544 -0.0894  0.5560 -1.0405
 5146TIP3    H236930   2.098   3.132  11.449  0.6615 -2.1437 -3.4129
 5147TIP3   OH236931   5.142   4.092   1.963  0.2092 -0.0065  0.2462
 5147TIP3    H136932   5.082   4.104   2.037  0.2495  3.3190 -0.1246
 5147TIP3    H236933   5.227   4.075   2.003 -0.2446 -0.8934  0.8631
 5148TIP3   OH236934   6.020   3.675   5.284 -0.0531  0.1900  0.0249
 5148TIP3    H136935   6.056   3.740   5.224  0.8840  0.1250  0.4958
 5148TIP3    H236936   6.069   3.688   5.365 -1.7059  0.6677  0.9667
 5149TIP3   OH236937   1.590   1.383   0.739 -0.1804 -0.2150 -0.1926
 5149TIP3    H136938   1.527   1.415   0.803 -0.2105 -0.9236  0.1409
 5149TIP3    H236939   1.542   1.382   0.656 -0.5831 -0.6762  0.0440
 5150TIP3   OH236940   5.704   1.848  12.610  0.0966 -0.4568  0.0684
 5150TIP3    H136941   5.658   1.800  12.679  3.1604 -0.5478  2.2669
 5150TIP3    H236942   5.766   1.784  12.574  0.0255  0.2007 -1.2601
 5151TIP3   OH236943   0.311   2.663  11.054 -0.6277 -0.0933 -0.1217
 5151TIP3    H136944   0.387   2.721  11.049  0.5909 -1.4004  1.8487
 5151TIP3    H236945   0.270   2.671  10.968 -0.0681  2.9973 -0.2377
 5152TIP3   OH236946   6.244   2.845  11.616  0.1014  0.6368 -0.0517
 5152TIP3    H136947   6.199   2.929  11.622 -3.1647 -0.7535 -2.1947
 5152TIP3    H236948   6.185   2.790  11.563  3.0530 -2.3495 -0.5658
 5153TIP3   OH236949   4.916   0.598   4.608 -0.2954 -0.5487 -0.6977
 5153TIP3    H136950   4.932   0.688   4.581  1.5552 -0.9681 -1.1324
 5153TIP3    H236951   4.841   0.603   4.668  1.2817  1.6195  1.2278
 5154TIP3   OH236952   6.074   3.270   4.988  0.4410  0.0042 -0.0577
 5154TIP3    H136953   6.120   3.335   4.934 -0.4154 -1.3453 -2.5747
 5154TIP3    H236954   6.127   3.191   4.982 -1.1179 -1.0138 -1.4233
 5155TIP3   OH236955   2.972   2.061   1.204 -0.2145  0.0399 -0.3260
 5155TIP3    H136956   3.036   2.111   1.153 -1.8818  4.1253  1.1393
 5155TIP3    H236957   3.017   2.042   1.287 -0.1099  0.8157 -0.1937
 5156TIP3   OH236958   5.620   4.065  12.171  0.6430  0.9417  0.5854
 5156TIP3    H136959   5.612   4.045  12.078 -0.7228  0.5065  0.7794
 5156TIP3    H236960   5.712   4.048  12.191  0.7059 -0.0325 -0.4416
 5157TIP3   OH236961   3.698   5.956  15.796 -0.1748  0.1224  0.1125
 5157TIP3    H136962   3.743   5.982  15.715 -0.0652 -1.5169 -0.3824
 5157TIP3    H236963   3.638   5.887  15.768  0.2702 -0.8723  1.5240
 5158TIP3   OH236964   0.159   1.942  15.299 -0.2826 -0.5220 -0.3013
 5158TIP3    H136965   0.080   1.893  15.322 -1.1048  0.3231 -1.2107
 5158TIP3    H236966   0.215   1.934  15.376 -1.4911 -0.6624  0.6007
 5159TIP3   OH236967   2.947   3.470  12.584  0.2357  0.1916 -0.5790
 5159TIP3    H136968   2.916   3.560  12.569  1.0391  0.4871 -0.5020
 5159TIP3    H236969   2.880   3.415  12.544 -0.4599  0.8140 -0.2945
 5160TIP3   OH236970   3.291   3.332  16.083 -0.5174 -0.3012 -0.0309
 5160TIP3    H136971   3.228   3.350  16.152 -0.3139  1.5294 -0.2878
 5160TIP3    H236972   3.240   3.289  16.014 -1.2253  0.0572  0.2628
 5161TIP3   OH236973   3.407   1.702   3.509 -0.1882 -0.0103 -0.1942
 5161TIP3    H136974   3.335   1.751   3.550 -1.7662 -2.2966 -0.0650
 5161TIP3    H236975   3.443   1.763   3.445 -1.9028  1.4035  0.0937
 5162TIP3   OH236976   1.171   6.322   5.396 -0.0402 -0.0060 -0.1084
 5162TIP3    H136977   1.224   6.399   5.417 -1.5499  0.5676  1.9087
 5162TIP3    H236978   1.196   6.257   5.462 -0.8294 -0.1970  0.0150
 5163TIP3   OH236979   3.214   2.161  11.220 -0.1967 -0.0982  0.3990
 5163TIP3    H136980   3.227   2.192  11.310  2.0711 -1.4731  0.6293
 5163TIP3    H236981   3.185   2.071  11.230 -0.4700 -0.0828 -0.2433
 5164TIP3   OH236982   5.779   1.091   1.521  0.0418  0.4883 -0.5067
 5164TIP3    H136983   5.784   1.048   1.607  0.8838  1.4935 -0.0423
 5164TIP3    H236984   5.814   1.026   1.460  0.6846  0.2541  0.0949
 5165TIP3   OH236985   0.441   0.120  11.199  0.3630  0.1358 -0.2929
 5165TIP3    H136986   0.498   0.070  11.141  1.1841 -0.3701  0.8983
 5165TIP3    H236987   0.352   0.088  11.180  0.8803 -2.0624  0.6467
 5166TIP3   OH236988   6.188   4.383   4.769  0.1049 -0.1664 -0.3707
 5166TIP3    H136989   6.269   4.382   4.820 -1.1028  0.8861  1.6545
 5166TIP3    H236990   6.136   4.454   4.806 -0.9116  0.6331 -3.0353
 5167TIP3   OH236991   2.999   6.072   5.720  0.1106  0.2244  0.2944
 5167TIP3    H136992   2.988   6.032   5.806  1.1410  0.3201  0.4865
 5167TIP3    H236993   3.038   6.003   5.666  0.9254  0.6324  0.3435
 5168TIP3   OH236994   5.922   5.379  14.927 -0.2449 -0.0056 -0.0560
 5168TIP3    H136995   5.848   5.405  14.873 -1.0925 -3.4100 -0.7814
 5168TIP3    H236996   5.982   5.335  14.866 -0.1749 -1.9503  1.3157
 5169TIP3   OH236997   5.588   0.162  14.186  0.4411 -0.3060 -0.4187
 5169TIP3    H136998   5.522   0.099  14.216 -0.2102  1.1193  1.3117
 5169TIP3    H236999   5.664   0.145  14.241  0.6442 -0.3087 -0.6995
 5170TIP3   OH237000   5.094   1.115   3.523 -0.0467 -0.2830  0.2790
 5170TIP3    H137001   5.093   1.205   3.489 -2.2411  0.1427  1.3189
 5170TIP3    H237002   5.037   1.067   3.464  0.9267 -0.9714 -0.1243
 5171TIP3   OH237003   2.156   5.389  15.323 -0.7797  0.4086 -0.5551
 5171TIP3    H137004   2.106   5.316  15.287  0.3691 -0.6507 -0.0776
 5171TIP3    H237005   2.240   5.387  15.277  0.5894 -0.7611  1.7512
 5172TIP3   OH237006   2.811   6.720  14.121 -0.8538 -0.8591  0.0250
 5172TIP3    H137007   2.785   6.632  14.149  1.5414 -1.4239  0.6964
 5172TIP3    H237008   2.892   6.706  14.072 -1.3178  0.8360 -1.3116
 5173TIP3   OH237009   4.193   5.872  16.209  0.7848 -0.1675  0.1144
 5173TIP3    H137010   4.230   5.915  16.285 -0.2331 -0.3556  0.7324
 5173TIP3    H237011   4.124   5.816  16.244 -1.3921  1.5853 -1.1315
 5174TIP3   OH237012   0.354   5.326   6.354  0.0972 -0.2684 -0.0860
 5174TIP3    H137013   0.413   5.314   6.428  1.1134  1.3250 -0.5990
 5174TIP3    H237014   0.267   5.305   6.389  0.6100  0.0003  1.4210
 5175TIP3   OH237015   6.181   3.981   4.776 -0.5455  0.6015  0.1576
 5175TIP3    H137016   6.095   4.009   4.744  0.1397  1.2071 -1.2134
 5175TIP3    H237017   6.220   3.934   4.703  0.1194 -0.0798  0.9318
 5176TIP3   OH237018   5.936   1.866   3.602  0.3014 -0.0239  0.0572
 5176TIP3    H137019   5.884   1.804   3.654  0.6756 -2.1358 -1.8943
 5176TIP3    H237020   6.023   1.863   3.641 -0.5048  2.2649  2.3050
 5177TIP3   OH237021   4.808   1.021   2.168 -0.2964 -0.0092  0.0990
 5177TIP3    H137022   4.816   0.928   2.144 -1.2721 -0.0909  0.0533
 5177TIP3    H237023   4.714   1.034   2.181 -0.1846  1.0201 -0.0792
 5178TIP3   OH237024   3.120   1.595   4.123 -0.1178 -0.3209  0.1952
 5178TIP3    H137025   3.154   1.620   4.037 -0.7310 -0.4144 -0.0800
 5178TIP3    H237026   3.164   1.512   4.143 -0.7026 -0.8107 -0.4823
 5179TIP3   OH237027   2.544   2.509  16.779  0.0100  0.4324  0.1405
 5179TIP3    H137028   2.486   2.433  16.790 -0.1153  0.3877 -0.7628
 5179TIP3    H237029   2.543   2.527  16.685 -0.0476  1.6258  0.3528
 5180TIP3   OH237030   4.384   4.195   1.007 -0.7032 -0.0676 -0.1760
 5180TIP3    H137031   4.382   4.212   0.912  0.8790 -0.0041 -0.2129
 5180TIP3    H237032   4.345   4.108   1.015 -2.3211  0.5634 -0.6964
 5181TIP3   OH237033   2.629   0.556   0.554  0.4320  0.3944  0.7211
 5181TIP3    H137034   2.650   0.628   0.613  2.7412  0.8269 -0.5407
 5181TIP3    H237035   2.632   0.595   0.467  0.3928 -0.9527  0.0979
 5182TIP3   OH237036   3.404   1.325  14.165  0.4128  0.4641 -0.0271
 5182TIP3    H137037   3.420   1.411  14.125  2.2536  0.0902 -0.1902
 5182TIP3    H237038   3.310   1.322  14.178  0.2141  2.1857 -0.7632
 5183TIP3   OH237039   4.067   4.307   1.441  0.3790 -0.4793  0.3168
 5183TIP3    H137040   4.147   4.307   1.388  0.2697 -2.9969  0.0327
 5183TIP3    H237041   4.098   4.303   1.531  0.5651  0.1414  0.2826
 5184TIP3   OH237042   5.495   6.462   3.146 -0.2447  0.1313  0.1687
 5184TIP3    H137043   5.436   6.422   3.082 -0.6647 -1.3432  1.4209
 5184TIP3    H237044   5.437   6.507   3.208  0.0070 -0.3374  0.7538
 5185TIP3   OH237045   6.400   0.394  17.240 -0.4305  0.5125 -0.3453
 5185TIP3    H137046   6.321   0.340  17.237 -0.9009  1.1296  0.3747
 5185TIP3    H237047   6.467   0.338  17.278 -0.9373  0.4540  0.4861
 5186TIP3   OH237048   6.010   5.975  16.649 -0.9173 -0.6032 -0.0662
 5186TIP3    H137049   6.025   5.906  16.713  0.4918 -0.2671 -0.0150
 5186TIP3    H237050   5.940   5.940  16.593 -1.3553 -1.3782  0.9284
 5187TIP3   OH237051   2.154   2.232   2.111 -0.1261 -0.2191  0.1313
 5187TIP3    H137052   2.097   2.277   2.049  0.7330 -1.2710 -1.4971
 5187TIP3    H237053   2.130   2.268   2.196 -0.7103  1.9560 -0.8898
 5188TIP3   OH237054   5.936   3.313   3.189  0.1828  0.1821  0.7576
 5188TIP3    H137055   6.026   3.281   3.200 -0.2321 -1.2689  0.2508
 5188TIP3    H237056   5.921   3.369   3.265  1.7230  0.9663  0.5174
 5189TIP3   OH237057   6.021   0.813  16.635 -0.0183 -0.4153 -0.4940
 5189TIP3    H137058   5.944   0.796  16.581 -0.5901  0.0870  0.1577
 5189TIP3    H237059   6.084   0.745  16.609 -1.5823 -2.4474  0.7467
 5190TIP3   OH237060   6.723   4.018  14.953 -0.0538 -0.5353 -0.1173
 5190TIP3    H137061   6.710   3.951  15.020  1.3557 -0.6140  0.1089
 5190TIP3    H237062   6.663   3.993  14.883 -1.2848 -0.6555  0.9450
 5191TIP3   OH237063   5.170   6.725  12.853  0.3703 -0.0070  0.0113
 5191TIP3    H137064   5.082   6.691  12.868  0.9672 -0.9888  1.5498
 5191TIP3    H237065   5.224   6.646  12.844  1.1641  0.5765 -0.3869
 5192TIP3   OH237066   2.518   1.472   4.759 -0.3946 -0.2957 -0.5644
 5192TIP3    H137067   2.561   1.548   4.797 -1.4949 -0.2911  0.7555
 5192TIP3    H237068   2.474   1.505   4.680 -0.1737  0.2456 -0.4590
 5193TIP3   OH237069   5.502   5.686   0.324 -0.0670  0.3538  0.0642
 5193TIP3    H137070   5.582   5.638   0.303 -0.9340 -0.8411 -0.6927
 5193TIP3    H237071   5.457   5.630   0.388  0.0165  1.3428  1.0014
 5194TIP3   OH237072   2.394   2.701  16.272  0.5097  0.5011  0.2140
 5194TIP3    H137073   2.458   2.689  16.202  0.6861  2.0807  0.0598
 5194TIP3    H237074   2.310   2.714  16.227 -0.0468 -1.8748  0.4211
 5195TIP3   OH237075   1.842   3.928   1.607  0.2729 -0.1277 -0.2302
 5195TIP3    H137076   1.776   3.932   1.676 -1.0597 -0.3292 -1.4515
 5195TIP3    H237077   1.792   3.927   1.525  1.7922 -0.2492 -1.2043
 5196TIP3   OH237078   0.448   5.783  14.681  0.1974  0.3901  0.9823
 5196TIP3    H137079   0.377   5.718  14.680  1.1669 -0.7126 -0.2469
 5196TIP3    H237080   0.516   5.743  14.736  0.5723  0.6047  0.6836
 5197TIP3   OH237081   1.357   0.524   1.535  0.1135 -0.3101 -0.0073
 5197TIP3    H137082   1.399   0.553   1.454  0.3760  0.5407  0.4172
 5197TIP3    H237083   1.338   0.605   1.582 -1.2416 -0.7199  0.2001
 5198TIP3   OH237084   0.181   0.984  14.612  0.0531 -0.3188  1.2084
 5198TIP3    H137085   0.133   1.028  14.542  1.1143  0.3122  0.8609
 5198TIP3    H237086   0.114   0.932  14.658 -0.4242 -2.0373 -1.2302
 5199TIP3   OH237087   4.349   5.662  16.826 -0.2302  0.6008 -0.7057
 5199TIP3    H137088   4.267   5.646  16.778  0.4588 -0.3762 -1.5920
 5199TIP3    H237089   4.418   5.628  16.769  0.6859  0.0213  0.6903
 5200TIP3   OH237090   6.424   0.589   4.629  0.1211 -0.2084 -0.0921
 5200TIP3    H137091   6.337   0.606   4.593 -0.1026  2.3644  1.4637
 5200TIP3    H237092   6.408   0.565   4.720  1.0551  2.1202  0.7505
 5201TIP3   OH237093   0.523   0.833  16.334  0.1196  0.2498 -0.4207
 5201TIP3    H137094   0.596   0.842  16.272 -0.0695 -1.2474 -0.9092
 5201TIP3    H237095   0.517   0.739  16.349 -1.1278  0.4385  0.3295
 5202TIP3   OH237096   5.918   1.090   4.886 -0.1230  0.1275 -0.5245
 5202TIP3    H137097   5.909   1.122   4.976 -0.4562 -0.4995 -0.3311
 5202TIP3    H237098   5.914   0.995   4.894  0.7949  0.0281 -1.1001
 5203TIP3   OH237099   0.647   3.421   0.697 -0.0023  0.3754 -0.1083
 5203TIP3    H137100   0.585   3.390   0.763 -0.0993 -0.4165 -0.5645
 5203TIP3    H237101   0.679   3.504   0.732 -0.7283  0.4066  0.5045
 5204TIP3   OH237102   1.587   1.759  14.170  0.2305 -0.8957  0.0275
 5204TIP3    H137103   1.666   1.762  14.225  0.8022 -0.6805 -0.7866
 5204TIP3    H237104   1.532   1.692  14.212  0.7042 -0.8294  0.7852
 5205TIP3   OH237105   1.995   6.653  13.711 -1.0334 -0.1046 -0.2357
 5205TIP3    H137106   2.009   6.639  13.617  1.8702 -1.1397  0.2308
 5205TIP3    H237107   2.029   6.574  13.752  0.4664  1.4883  1.8125
 5206TIP3   OH237108   5.106   6.670   3.124  0.1292  0.0491 -0.1418
 5206TIP3    H137109   5.041   6.634   3.184  0.9554 -0.1104  0.6777
 5206TIP3    H237110   5.068   6.752   3.094 -0.6310 -0.2472 -0.0019
 5207TIP3   OH237111   5.985   1.106   0.974 -0.3997  0.0551 -0.4757
 5207TIP3    H137112   6.051   1.164   0.936  0.2169 -0.7942 -0.7488
 5207TIP3    H237113   6.013   1.018   0.948 -0.5296 -0.4874  1.0706
 5208TIP3   OH237114   0.720   4.209  13.041  0.3329  0.3634  0.4600
 5208TIP3    H137115   0.665   4.152  12.988 -0.8602  0.8255  1.1589
 5208TIP3    H237116   0.747   4.154  13.115  0.7735  0.1502  0.1417
 5209TIP3   OH237117   1.063   2.972   5.980 -0.2799  0.5575  0.2428
 5209TIP3    H137118   1.035   2.920   5.905  0.3764  1.1685 -0.4367
 5209TIP3    H237119   0.996   3.039   5.989 -0.6670  0.1340  0.5765
 5210TIP3   OH237120   4.592   4.492   1.498  0.2845 -0.3340 -0.2435
 5210TIP3    H137121   4.614   4.530   1.583  2.1287 -1.7812 -0.0177
 5210TIP3    H237122   4.498   4.472   1.504  0.2418  0.1714  1.2025
 5211TIP3   OH237123   1.775   0.796   4.507 -0.1640 -0.2498  0.4044
 5211TIP3    H137124   1.717   0.789   4.431  0.1994 -1.1630  0.2021
 5211TIP3    H237125   1.792   0.890   4.516 -0.7729 -0.0778 -0.2145
 5212TIP3   OH237126   2.245   5.949   4.148 -0.5761 -0.3090  0.4755
 5212TIP3    H137127   2.225   6.038   4.179 -1.1457 -0.2123 -0.1454
 5212TIP3    H237128   2.290   5.908   4.222 -1.1910  0.1747  1.1419
 5213TIP3   OH237129   4.248   3.256   4.217 -0.3716  0.0855  0.0325
 5213TIP3    H137130   4.278   3.165   4.216  0.2177  0.2638  0.7253
 5213TIP3    H237131   4.317   3.304   4.263 -1.6352  0.5128  1.5783
 5214TIP3   OH237132   3.418   1.900   1.881 -0.1637  0.2482  0.8074
 5214TIP3    H137133   3.487   1.896   1.814 -1.2949 -0.4572 -0.3599
 5214TIP3    H237134   3.464   1.925   1.961  1.5071 -0.5646  0.1510
 5215TIP3   OH237135   3.608   0.574   5.915  0.0653  0.1969 -0.3937
 5215TIP3    H137136   3.513   0.586   5.916 -0.1801 -1.4267  0.6922
 5215TIP3    H237137   3.622   0.502   5.854  0.2080 -1.6644  1.6729
 5216TIP3   OH237138   4.782   3.132  14.422 -0.0672 -0.2367  0.0517
 5216TIP3    H137139   4.754   3.176  14.503  1.7217  2.6877 -0.7388
 5216TIP3    H237140   4.732   3.175  14.353  1.8091  0.7481 -0.7727
 5217TIP3   OH237141   4.257   0.020  14.479  0.0550 -0.8037  0.3249
 5217TIP3    H137142   4.297   0.106  14.482 -2.0770  0.2201  1.6912
 5217TIP3    H237143   4.326  -0.040  14.507  1.5354  0.4216 -0.5459
 5218TIP3   OH237144   5.740   5.383  16.681 -0.1635 -0.3042 -0.2604
 5218TIP3    H137145   5.834   5.400  16.667 -0.0489 -0.9368 -0.2886
 5218TIP3    H237146   5.696   5.451  16.631  0.2729 -0.8301 -1.3930
 5219TIP3   OH237147   5.987   3.953  14.558 -0.3297  0.0662 -0.2837
 5219TIP3    H137148   5.946   3.963  14.644 -2.2473 -0.6000 -1.0669
 5219TIP3    H237149   5.977   4.038  14.516 -0.5776  0.0059 -0.3442
 5220TIP3   OH237150   4.296   0.123   5.463 -0.2079 -0.2617 -0.2183
 5220TIP3    H137151   4.246   0.044   5.482 -2.1456  0.5210 -1.6818
 5220TIP3    H237152   4.251   0.193   5.512  2.5784 -0.2255  2.5873
 5221TIP3   OH237153   4.434   2.922  15.147 -0.5607 -0.2465 -0.2081
 5221TIP3    H137154   4.453   2.984  15.217  0.4751  0.0852 -0.7511
 5221TIP3    H237155   4.343   2.898  15.159  0.0634 -1.6995  2.4507
 5222TIP3   OH237156   0.142   1.570  17.060  0.1495  0.0969  0.8557
 5222TIP3    H137157   0.120   1.579  17.153  0.6073  0.3506  0.9430
 5222TIP3    H237158   0.214   1.632  17.047  0.0819  0.0638  0.3299
 5223TIP3   OH237159   4.960   6.235   2.556 -0.4364  0.1580 -0.4542
 5223TIP3    H137160   4.890   6.231   2.621 -0.8068 -0.8513 -0.9023
 5223TIP3    H237161   4.943   6.161   2.498  0.8126  0.0968 -0.7608
 5224TIP3   OH237162   3.659   3.442  17.022  0.0299 -0.1428 -0.3184
 5224TIP3    H137163   3.696   3.365  17.066  0.4439  0.9755  1.3419
 5224TIP3    H237164   3.568   3.418  17.003 -0.8986  0.1058  3.2346
 5225TIP3   OH237165   3.827   2.125  10.765  0.4465  0.2911 -0.7748
 5225TIP3    H137166   3.848   2.140  10.673 -0.0089 -0.5683 -1.0374
 5225TIP3    H237167   3.779   2.202  10.792  1.2958  0.9200 -1.0207
 5226TIP3   OH237168   6.157   1.785  14.354 -0.2449  0.1361 -0.1082
 5226TIP3    H137169   6.169   1.691  14.348 -1.3158  0.0401 -1.0095
 5226TIP3    H237170   6.245   1.820  14.368  0.0205 -1.0713  1.5843
 5227TIP3   OH237171   6.029   1.618   1.562  0.2539  0.3466  0.4635
 5227TIP3    H137172   6.116   1.645   1.531 -1.1769  1.7154 -2.7721
 5227TIP3    H237173   6.021   1.527   1.534  0.3502  0.4708  0.0222
 5228TIP3   OH237174   3.323   2.348  13.145 -0.1934 -0.5675 -0.1344
 5228TIP3    H137175   3.366   2.346  13.059 -0.1248 -1.6117 -0.0900
 5228TIP3    H237176   3.392   2.328  13.207 -0.3373 -0.2642  0.1262
 5229TIP3   OH237177   1.153   2.466  15.295  0.0280 -0.2140  0.1479
 5229TIP3    H137178   1.179   2.423  15.213 -1.5634  0.0817 -0.5491
 5229TIP3    H237179   1.082   2.525  15.269 -1.0560 -0.6973  1.8711
 5230TIP3   OH237180   1.971   1.871   3.387  0.0183  0.1546 -0.0084
 5230TIP3    H137181   2.035   1.814   3.344 -0.0545 -0.3450  0.5456
 5230TIP3    H237182   1.955   1.831   3.472 -0.7980  0.4458 -0.0147
 5231TIP3   OH237183   6.289   6.787   4.297 -0.2394  0.7762 -0.0484
 5231TIP3    H137184   6.375   6.747   4.289 -0.5063 -0.3742  2.1102
 5231TIP3    H237185   6.239   6.726   4.351 -2.4921  1.3212 -1.3540
 5232TIP3   OH237186   2.584   5.248  13.760 -0.4916  0.0221 -0.7050
 5232TIP3    H137187   2.564   5.165  13.716 -1.4540  1.0893 -2.4085
 5232TIP3    H237188   2.652   5.288  13.705 -1.2322  1.0782 -0.8949
 5233TIP3   OH237189   2.322   3.177  13.249  0.2225 -0.3474  0.0229
 5233TIP3    H137190   2.321   3.095  13.199 -0.9830 -0.6884  0.5784
 5233TIP3    H237191   2.310   3.150  13.340 -2.1792  0.5381  0.0231
 5234TIP3   OH237192   4.816   3.383  11.533 -0.1518 -0.2873 -0.2062
 5234TIP3    H137193   4.851   3.381  11.622 -0.7779  0.2026  0.0612
 5234TIP3    H237194   4.843   3.468  11.498 -1.3087  0.2244  0.1114
 5235TIP3   OH237195   5.686   5.553   3.735  0.3770  0.2503  0.0067
 5235TIP3    H137196   5.617   5.522   3.794  0.6934 -0.0542  0.2235
 5235TIP3    H237197   5.682   5.494   3.660  1.2821 -0.6427  0.6236
 5236TIP3   OH237198   4.041   3.634  12.915 -0.5966  0.0573  0.8253
 5236TIP3    H137199   4.129   3.670  12.897 -1.0899  1.1558  0.5069
 5236TIP3    H237200   4.022   3.578  12.840 -0.3656  0.2205  0.6402
 5237TIP3   OH237201   3.429   5.343  16.102 -0.0488  0.6943 -0.1460
 5237TIP3    H137202   3.444   5.294  16.021 -0.3275 -2.3432  1.4984
 5237TIP3    H237203   3.339   5.320  16.128  0.3923  0.7301  1.5333
 5238TIP3   OH237204   3.247   0.439   3.876 -0.3449 -0.9446  0.1802
 5238TIP3    H137205   3.261   0.346   3.893  1.2956 -0.7728 -0.0898
 5238TIP3    H237206   3.159   0.456   3.911 -0.0521 -2.2373  1.7048
 5239TIP3   OH237207   3.789   0.355   1.044  0.2495 -1.0682  0.2693
 5239TIP3    H137208   3.792   0.264   1.015  2.4066 -0.4685 -1.6898
 5239TIP3    H237209   3.880   0.384   1.044 -0.3983  1.1911  0.4776
 5240TIP3   OH237210   3.194   0.828   2.122 -0.3763 -0.2715 -0.1927
 5240TIP3    H137211   3.189   0.783   2.038 -0.7947 -0.8229  0.1223
 5240TIP3    H237212   3.138   0.904   2.111 -0.0523 -0.0803 -0.5677
 5241TIP3   OH237213   0.269   5.836   2.068  0.0472 -0.3617  0.2580
 5241TIP3    H137214   0.360   5.824   2.041 -0.1246  1.1482 -1.0971
 5241TIP3    H237215   0.218   5.792   2.000 -0.2848  0.8788 -0.3314
 5242TIP3   OH237216   6.553   1.839   4.143 -0.0123  0.8077 -0.3458
 5242TIP3    H137217   6.475   1.886   4.172  0.0506  0.5585  0.2352
 5242TIP3    H237218   6.623   1.903   4.148 -0.1721  1.0248 -0.8423
 5243TIP3   OH237219   0.019   3.614  16.395 -0.3049 -0.5835  0.2444
 5243TIP3    H137220   0.040   3.541  16.452  0.3198 -0.3526  0.3101
 5243TIP3    H237221  -0.054   3.659  16.439  1.3370  0.6652  1.8044
 5244TIP3   OH237222   3.872   2.519  12.200  0.3360 -0.2476  0.7274
 5244TIP3    H137223   3.800   2.519  12.137  0.2569 -2.8517  0.7165
 5244TIP3    H237224   3.951   2.520  12.147  0.2725 -1.4080  0.5985
 5245TIP3   OH237225   0.281   0.241   2.276 -0.3372  1.0209 -0.0633
 5245TIP3    H137226   0.360   0.291   2.256 -0.2578  2.5171  3.3767
 5245TIP3    H237227   0.211   0.306   2.276 -1.0270  0.2949  0.1491
 5246TIP3   OH237228   0.350   1.639  11.124  0.6770  0.4900  0.5320
 5246TIP3    H137229   0.392   1.718  11.157  1.6491 -0.3039  1.2436
 5246TIP3    H237230   0.413   1.601  11.063  0.8465 -0.4893  1.2824
 5247TIP3   OH237231   5.443   3.916  14.175  0.0519 -0.3068 -0.4005
 5247TIP3    H137232   5.455   4.010  14.185  1.5077 -0.4587 -0.6190
 5247TIP3    H237233   5.498   3.877  14.242 -1.3303 -1.0022  0.3706
 5248TIP3   OH237234   3.804   3.958   1.941  0.2514 -0.6920 -0.7765
 5248TIP3    H137235   3.730   3.992   1.991  1.0084  0.0911 -0.1659
 5248TIP3    H237236   3.827   4.028   1.880  0.7138 -0.7826 -0.7146
 5249TIP3   OH237237   5.790   1.621   0.591 -0.0535  0.0867 -0.0664
 5249TIP3    H137238   5.782   1.550   0.655 -1.9338 -0.3145 -0.6693
 5249TIP3    H237239   5.781   1.577   0.506 -0.0027  0.8989 -0.4972
 5250TIP3   OH237240   5.670   6.454   3.880 -0.4791 -0.3738  0.4168
 5250TIP3    H137241   5.638   6.487   3.965 -0.1189  0.5236  0.2077
 5250TIP3    H237242   5.751   6.408   3.902  1.0855  2.1148  0.2833
 5251TIP3   OH237243   0.856   1.265  15.682 -0.3110 -0.4736 -0.1645
 5251TIP3    H137244   0.905   1.239  15.759  1.1949 -0.5460 -1.1104
 5251TIP3    H237245   0.915   1.322  15.633 -1.1126 -0.6455 -1.3875
 5252TIP3   OH237246   2.557   0.511   0.923 -0.2745  0.2410  0.2671
 5252TIP3    H137247   2.627   0.557   0.969  0.0585  0.6619 -0.6290
 5252TIP3    H237248   2.486   0.575   0.917  0.8641  1.4242 -2.6534
 5253TIP3   OH237249   5.754   3.127  11.727 -0.5886 -0.3840  0.5914
 5253TIP3    H137250   5.661   3.113  11.745 -0.3615 -0.2790  1.9231
 5253TIP3    H237251   5.781   3.193  11.790  0.3586 -0.2800  0.0948
 5254TIP3   OH237252   2.731   1.144   1.335  0.1170  0.7511 -0.4368
 5254TIP3    H137253   2.744   1.051   1.320 -2.2426  0.7526 -3.2785
 5254TIP3    H237254   2.641   1.152   1.367 -0.4633  2.1339 -2.2439
 5255TIP3   OH237255   5.005   5.753  12.327 -0.2571 -0.2204 -0.4414
 5255TIP3    H137256   4.995   5.751  12.232 -1.5235 -0.8879 -0.3103
 5255TIP3    H237257   4.933   5.808  12.358  1.3559  1.7602  0.0283
 5256TIP3   OH237258   6.706   0.827   3.833 -0.1965  0.0166 -0.1508
 5256TIP3    H137259   6.801   0.817   3.828 -0.4064 -2.5082 -0.5725
 5256TIP3    H237260   6.690   0.869   3.918  1.2085 -1.5906  0.9689
 5257TIP3   OH237261   1.881   5.461   3.157  0.0637 -1.0065  0.2064
 5257TIP3    H137262   1.960   5.486   3.111  0.1945 -2.7171 -0.5553
 5257TIP3    H237263   1.873   5.525   3.228  1.1713  0.2057 -0.7249
 5258TIP3   OH237264   1.370   4.269  15.952 -0.1291  0.7195 -0.0378
 5258TIP3    H137265   1.275   4.267  15.969 -0.2771  1.3482 -0.7353
 5258TIP3    H237266   1.393   4.178  15.934 -0.7709  0.6719 -0.6881
 5259TIP3   OH237267   1.481   5.029  12.770 -0.2592  0.1266  0.3705
 5259TIP3    H137268   1.519   5.116  12.781 -0.1071  0.1692 -0.4500
 5259TIP3    H237269   1.523   4.995  12.691  1.3041 -1.5364  1.8031
 5260TIP3   OH237270   3.409   6.229   0.758  0.1065  0.3263  0.6023
 5260TIP3    H137271   3.355   6.162   0.717  0.1396  0.3377  0.5383
 5260TIP3    H237272   3.407   6.209   0.851  0.2698  0.1251  0.5627
 5261TIP3   OH237273   0.676   0.970   5.485 -0.0175 -0.4526  0.1035
 5261TIP3    H137274   0.698   0.982   5.392 -1.4540 -1.3312 -0.3717
 5261TIP3    H237275   0.701   0.880   5.503  0.5695 -0.1830  0.6890
 5262TIP3   OH237276   2.815   3.495  12.838 -0.1155  0.2447 -0.6593
 5262TIP3    H137277   2.830   3.405  12.868 -0.5236  0.2271 -0.5114
 5262TIP3    H237278   2.851   3.496  12.749 -0.3570 -0.1435 -0.7657
 5263TIP3   OH237279   4.737   4.462   4.171 -0.1973 -0.5050  0.0705
 5263TIP3    H137280   4.800   4.528   4.144  0.6570 -0.2813  2.3983
 5263TIP3    H237281   4.711   4.489   4.260 -1.1287 -2.3588  0.4017
 5264TIP3   OH237282   1.969   2.962  11.233  0.2418  0.0029 -0.1677
 5264TIP3    H137283   1.879   2.991  11.225 -1.4741 -4.7958 -2.0341
 5264TIP3    H237284   1.978   2.935  11.324 -0.7814 -0.7995 -0.2866
 5265TIP3   OH237285   3.426   3.309  11.993  0.0139  0.5063 -0.0816
 5265TIP3    H137286   3.503   3.320  12.048 -0.6806 -0.2560  1.0751
 5265TIP3    H237287   3.370   3.383  12.014 -1.0368 -0.6992  1.6203
 5266TIP3   OH237288   4.749   5.915   0.978  0.3257  1.0010 -0.0410
 5266TIP3    H137289   4.717   5.971   1.049  1.3385 -1.1959  2.2936
 5266TIP3    H237290   4.708   5.952   0.899 -2.9412  2.0631  1.9240
 5267TIP3   OH237291   6.364   3.912  11.039  0.2734  0.1636  0.4554
 5267TIP3    H137292   6.269   3.912  11.053  0.0417  0.2361 -0.9551
 5267TIP3    H237293   6.381   3.828  10.997  0.5510  0.8588 -0.8827
 5268TIP3   OH237294   6.322   0.642   2.219 -0.1778 -0.0108 -0.1722
 5268TIP3    H137295   6.306   0.588   2.297 -1.5619  2.2020  1.2006
 5268TIP3    H237296   6.397   0.697   2.243  0.3641 -0.3754 -1.0150
 5269TIP3   OH237297   5.345   0.351   2.341 -0.3133 -0.5655 -0.6009
 5269TIP3    H137298   5.429   0.309   2.323  2.8422  3.7534  2.0927
 5269TIP3    H237299   5.329   0.334   2.434 -1.2235  0.5670 -0.5283
 5270TIP3   OH237300   3.821   3.268   4.307 -0.0644  0.0222  0.1217
 5270TIP3    H137301   3.772   3.318   4.242  1.8873  1.5160 -0.2900
 5270TIP3    H237302   3.890   3.328   4.337  1.6084 -1.9837  0.5334
 5271TIP3   OH237303   5.244   3.987  12.466 -0.4513 -0.0232  0.7273
 5271TIP3    H137304   5.271   3.923  12.400  0.1075  0.7726  0.1645
 5271TIP3    H237305   5.150   3.973  12.476 -0.2340 -1.3235  1.0508
 5272TIP3   OH237306   5.115   3.555  12.235 -0.1605  0.4258  0.1716
 5272TIP3    H137307   5.039   3.611  12.218 -0.9108 -0.6179  0.0038
 5272TIP3    H237308   5.118   3.547  12.330 -1.4053 -1.0219  0.1250
 5273TIP3   OH237309   3.073   3.688  11.546  0.4022 -0.5570 -0.0778
 5273TIP3    H137310   3.148   3.654  11.497  0.1589  1.0274 -1.6714
 5273TIP3    H237311   2.999   3.675  11.487 -0.0740  0.4902  0.2762
 5274TIP3   OH237312   5.549   2.959   1.335  0.1302 -0.0761  0.6176
 5274TIP3    H137313   5.622   2.896   1.331 -0.2581 -0.4829 -0.5829
 5274TIP3    H237314   5.592   3.044   1.338  0.6565 -0.3486  1.1453
 5275TIP3   OH237315   5.989   6.699   0.277 -0.0826 -0.0924 -0.3362
 5275TIP3    H137316   5.901   6.732   0.297 -0.6265  0.4485 -3.1343
 5275TIP3    H237317   5.973   6.623   0.220  1.2679 -0.6247 -0.0417
 5276TIP3   OH237318   1.580   4.558  14.334 -0.0104 -0.0325 -0.9157
 5276TIP3    H137319   1.615   4.549  14.245  0.2843 -0.1764 -0.7876
 5276TIP3    H237320   1.516   4.629  14.328  0.7773  0.6845 -1.0187
 5277TIP3   OH237321   0.007   2.654   3.365  0.1304 -0.4814  0.1039
 5277TIP3    H137322  -0.049   2.674   3.441  0.4262 -1.9153  0.7271
 5277TIP3    H237323  -0.047   2.598   3.309  0.2133 -0.1342 -0.3254
 5278TIP3   OH237324   2.294   2.051  12.430 -1.3275 -0.1689  0.4520
 5278TIP3    H137325   2.339   1.993  12.368 -3.0954 -0.9745 -0.1346
 5278TIP3    H237326   2.339   2.036  12.513  0.3638  0.0940 -0.3710
 5279TIP3   OH237327   0.968   6.445   6.218  0.8361  0.2559  0.2117
 5279TIP3    H137328   1.015   6.372   6.257 -1.2267 -2.0421 -1.3240
 5279TIP3    H237329   1.037   6.500   6.179  2.3946 -1.6455  0.1498
 5280TIP3   OH237330   4.022   2.564   0.137  0.2888  0.1194 -0.2249
 5280TIP3    H137331   4.010   2.522   0.222 -1.2587 -1.8223 -1.3218
 5280TIP3    H237332   4.117   2.567   0.125  0.4850 -1.2547  0.7722
 5281TIP3   OH237333   2.925   1.721  12.034  0.2898  0.1123  0.0259
 5281TIP3    H137334   2.885   1.682  11.957  0.1570 -0.8422  0.5742
 5281TIP3    H237335   3.007   1.759  12.001  0.5669 -0.8811 -0.4635
 5282TIP3   OH237336   2.852   4.470   3.240 -0.1417 -0.1315 -1.1721
 5282TIP3    H137337   2.787   4.539   3.253  0.7249  0.3600  1.0583
 5282TIP3    H237338   2.908   4.504   3.169 -1.7510 -0.1995 -2.5468
 5283TIP3   OH237339   3.188   6.106   3.400 -0.5397  0.4141  0.5131
 5283TIP3    H137340   3.262   6.132   3.346 -2.4884  0.5035 -2.3681
 5283TIP3    H237341   3.201   6.013   3.417 -0.0518  0.2954 -0.4611
 5284TIP3   OH237342   5.149   2.204  11.024  0.0806  0.1026  0.3502
 5284TIP3    H137343   5.094   2.233  10.952  0.6428 -0.4984 -0.3423
 5284TIP3    H237344   5.170   2.113  11.004 -0.9885 -0.5634  2.0601
 5285TIP3   OH237345   1.963   4.209  13.693  0.0347  0.1149  0.1260
 5285TIP3    H137346   2.051   4.214  13.730 -0.3755 -0.0129  1.1790
 5285TIP3    H237347   1.934   4.120  13.711 -0.5290  0.3334  0.3582
 5286TIP3   OH237348   5.317   2.908  15.194  0.1266 -0.6987 -0.2364
 5286TIP3    H137349   5.387   2.875  15.137 -0.0381  0.7980 -1.3786
 5286TIP3    H237350   5.359   2.977  15.245 -0.1516 -0.8414  0.1818
 5287TIP3   OH237351   4.008   5.506  11.840 -0.2486 -0.5289 -0.1748
 5287TIP3    H137352   4.001   5.478  11.931  0.5262 -2.2914 -0.6209
 5287TIP3    H237353   4.076   5.574  11.841  0.2765 -1.0583  0.4595
 5288TIP3   OH237354   2.773   4.802   1.657  0.3174 -0.1950 -0.2047
 5288TIP3    H137355   2.850   4.844   1.695 -0.4773 -0.1124  1.3776
 5288TIP3    H237356   2.712   4.792   1.730 -0.5242 -1.7911 -1.0686
 5289TIP3   OH237357   5.215   1.022  11.396 -0.3278  0.9086 -0.3246
 5289TIP3    H137358   5.159   0.966  11.450  0.2973  0.4995 -0.0862
 5289TIP3    H237359   5.272   0.961  11.350  0.8862  1.3695  0.5201
 5290TIP3   OH237360   3.341   1.591  13.391 -0.1844 -0.3469  0.4374
 5290TIP3    H137361   3.436   1.578  13.393 -0.1255 -1.0865 -2.2477
 5290TIP3    H237362   3.306   1.511  13.431  0.2887  0.2015  2.0140
 5291TIP3   OH237363   6.541   5.385   1.197 -0.0486 -0.9001 -0.5638
 5291TIP3    H137364   6.567   5.295   1.178  0.7369 -0.7805 -0.1276
 5291TIP3    H237365   6.539   5.390   1.293 -0.5760 -0.5832 -0.5844
 5292TIP3   OH237366   6.411   2.289   5.233  0.2721 -0.3418 -0.1145
 5292TIP3    H137367   6.349   2.357   5.257  0.7168  0.0484 -0.0586
 5292TIP3    H237368   6.493   2.316   5.273  0.6731 -0.4359 -0.8486
 5293TIP3   OH237369   3.137   1.341  14.479  0.3822 -0.2145  0.3235
 5293TIP3    H137370   3.064   1.402  14.468  0.4693 -0.1698 -0.0051
 5293TIP3    H237371   3.108   1.282  14.549 -0.5572 -1.0634 -0.7341
 5294TIP3   OH237372   1.225   1.401   4.528 -0.7068 -0.0445 -0.9457
 5294TIP3    H137373   1.274   1.325   4.559  1.7615  1.4173 -1.0687
 5294TIP3    H237374   1.170   1.425   4.603  0.5142 -0.3346  0.0905
 5295TIP3   OH237375   3.645   0.936   1.105 -0.4031 -0.1761  0.5553
 5295TIP3    H137376   3.666   0.988   1.183 -0.0880 -1.0264  1.0496
 5295TIP3    H237377   3.582   0.990   1.057  2.3057  2.1728 -0.6185
 5296TIP3   OH237378   1.087   5.684   4.955 -0.3630 -0.9785  0.4634
 5296TIP3    H137379   1.050   5.604   4.918 -2.2708 -0.0732  0.3057
 5296TIP3    H237380   1.026   5.710   5.024 -0.3760  0.8915 -0.1821
 5297TIP3   OH237381   3.352   5.523  10.950 -0.0553  0.3384 -0.2350
 5297TIP3    H137382   3.331   5.601  10.898 -1.2040  0.0820 -0.1696
 5297TIP3    H237383   3.356   5.452  10.886  1.5814  0.5212 -0.3820
 5298TIP3   OH237384   5.010   4.721  13.856  0.1279 -0.3198  0.3469
 5298TIP3    H137385   4.951   4.768  13.915  2.0109 -0.5868  2.5812
 5298TIP3    H237386   5.073   4.787  13.828  1.4210 -0.9650  1.6435
 5299TIP3   OH237387   6.601   2.880   3.105 -0.1370  0.4000  0.3884
 5299TIP3    H137388   6.693   2.900   3.126 -0.0663  0.4263  0.0654
 5299TIP3    H237389   6.570   2.830   3.180 -0.0983  1.0952  0.8810
 5300TIP3   OH237390   6.599   3.508  17.209  0.1171 -0.2440  0.0292
 5300TIP3    H137391   6.596   3.439  17.143 -0.3356 -0.2247  0.0299
 5300TIP3    H237392   6.677   3.560  17.185 -0.1543 -0.1170 -0.6114
 5301TIP3   OH237393   4.564   5.890   6.127  0.1611  0.4102 -0.2471
 5301TIP3    H137394   4.476   5.912   6.097  0.0440 -0.1248 -0.2944
 5301TIP3    H237395   4.614   5.877   6.047  0.4880  1.4784 -0.2359
 5302TIP3   OH237396   1.331   5.198   6.886 -0.1012 -0.3203 -0.2193
 5302TIP3    H137397   1.290   5.239   6.810 -1.6566 -2.1837 -0.4793
 5302TIP3    H237398   1.334   5.268   6.952 -3.6613  0.0684 -0.2508
 5303TIP3   OH237399   3.049   2.770   2.669  0.3309 -0.2928  0.0799
 5303TIP3    H137400   3.105   2.847   2.679  0.9864 -0.5283 -1.4330
 5303TIP3    H237401   3.110   2.696   2.672 -0.2177 -0.7325  0.8996
 5304TIP3   OH237402   0.344   4.592   5.928  0.5536 -0.4999 -0.1705
 5304TIP3    H137403   0.405   4.632   5.990  0.2173 -0.9780  0.4921
 5304TIP3    H237404   0.264   4.643   5.936  1.0537  0.5733 -1.5585
 5305TIP3   OH237405   0.958   0.017   3.932  1.0357 -0.0240 -0.5638
 5305TIP3    H137406   1.020   0.060   3.991  0.2623 -0.1610  0.3663
 5305TIP3    H237407   0.971  -0.076   3.947  0.6129 -0.0537 -0.3702
 5306TIP3   OH237408   2.434   1.865   1.056 -0.2162  0.1688 -0.4637
 5306TIP3    H137409   2.517   1.836   1.095 -0.8073 -0.0113  0.6944
 5306TIP3    H237410   2.460   1.927   0.989  1.0585 -2.2083 -2.3317
 5307TIP3   OH237411   3.977   1.676  12.920 -0.2998 -0.0527 -0.2937
 5307TIP3    H137412   3.931   1.703  12.841  0.9676  0.0821 -1.0076
 5307TIP3    H237413   3.990   1.757  12.969 -0.2566  0.0025 -0.3965
 5308TIP3   OH237414   4.858   2.880   3.407  0.1011  0.3140 -0.0598
 5308TIP3    H137415   4.924   2.943   3.379  1.8584 -0.7126  1.5287
 5308TIP3    H237416   4.796   2.933   3.458  0.8440  0.9736  0.1912
 5309TIP3   OH237417   4.380   5.626  11.391  0.1523  0.0808 -0.1137
 5309TIP3    H137418   4.333   5.634  11.308 -0.0157 -0.0247 -0.0295
 5309TIP3    H237419   4.419   5.712  11.405 -2.0892  0.9892  1.0441
 5310TIP3   OH237420   5.380   3.057  14.412  0.1252 -0.0386 -0.3383
 5310TIP3    H137421   5.330   3.136  14.395  1.3071  0.5441 -1.2592
 5310TIP3    H237422   5.417   3.032  14.328 -0.7713 -2.0014 -0.2230
 5311TIP3   OH237423   6.624   2.244  12.748  0.2144  0.2862  0.1707
 5311TIP3    H137424   6.638   2.172  12.808  2.1530  0.0181 -0.5359
 5311TIP3    H237425   6.712   2.273  12.723 -0.5166  1.8314 -0.8176
 5312TIP3   OH237426   1.912   3.128  11.973 -0.7883 -0.1153 -0.4204
 5312TIP3    H137427   1.861   3.208  11.974  1.1566  1.1991 -0.0472
 5312TIP3    H237428   1.868   3.071  11.910 -2.2411  1.2184 -0.6534
 5313TIP3   OH237429   2.054   6.625   5.743 -0.4615 -0.2753  0.0823
 5313TIP3    H137430   2.127   6.630   5.683 -1.8054 -2.4675 -1.9396
 5313TIP3    H237431   2.069   6.544   5.792 -1.3490 -0.6129 -0.1726
 5314TIP3   OH237432   4.165   4.568   1.317  0.1380 -0.1858 -0.4946
 5314TIP3    H137433   4.102   4.637   1.339  1.0556  0.7862 -0.8284
 5314TIP3    H237434   4.126   4.523   1.242 -0.6512 -0.2906 -0.0322
 5315TIP3   OH237435   6.193   0.355   4.682  0.3087 -0.0402  0.0856
 5315TIP3    H137436   6.248   0.396   4.748 -0.0705  0.1910  0.2580
 5315TIP3    H237437   6.133   0.299   4.731  1.4993 -1.6292 -0.2079
 5316TIP3   OH237438   4.643   1.973  17.276  0.0364 -0.4487 -0.5601
 5316TIP3    H137439   4.707   2.025  17.227 -0.2660  0.6402  0.1670
 5316TIP3    H237440   4.562   1.980  17.224  0.5261 -2.0708 -1.6391
 5317TIP3   OH237441   0.714   3.721  11.443  0.0959 -0.2648  0.1033
 5317TIP3    H137442   0.638   3.743  11.389  1.4024  3.6900 -0.4584
 5317TIP3    H237443   0.715   3.789  11.511  1.2550 -2.2510  2.2078
 5318TIP3   OH237444   4.316   6.771   2.903  0.3520  0.2314 -0.2233
 5318TIP3    H137445   4.384   6.831   2.935  0.6514  0.2617 -0.8927
 5318TIP3    H237446   4.252   6.828   2.860  0.7061  0.0693 -0.9811
 5319TIP3   OH237447   1.947   5.905  10.911 -0.5021  0.2914 -0.0594
 5319TIP3    H137448   1.889   5.891  10.835 -0.4294 -1.0121  0.1001
 5319TIP3    H237449   2.010   5.971  10.881 -0.0830 -0.6613 -1.3756
 5320TIP3   OH237450   1.868   2.225  15.054 -0.3498  0.3170 -0.3678
 5320TIP3    H137451   1.860   2.136  15.088 -0.8912  0.5894  0.2305
 5320TIP3    H237452   1.880   2.214  14.960  1.5384 -0.4755 -0.0805
 5321TIP3   OH237453   1.136   5.123   3.924 -0.1871  0.3803 -0.1103
 5321TIP3    H137454   1.205   5.089   3.867  0.5691 -1.0319  1.5548
 5321TIP3    H237455   1.060   5.069   3.904 -0.4484  1.0794 -1.0322
 5322TIP3   OH237456   1.421   0.163   3.974  1.0654  0.1923 -0.3884
 5322TIP3    H137457   1.471   0.218   4.035  2.0356 -0.4526 -0.5823
 5322TIP3    H237458   1.482   0.094   3.949  0.0328 -0.6763 -0.5623
 5323TIP3   OH237459   3.922   4.574   5.648 -0.2551 -0.1163 -0.1282
 5323TIP3    H137460   3.853   4.629   5.686  1.6409  1.1147  1.7586
 5323TIP3    H237461   3.968   4.631   5.586  1.1839  0.2477  1.2044
 5324TIP3   OH237462   4.072   2.787  13.468  0.0188  0.0479  0.5536
 5324TIP3    H137463   4.089   2.808  13.376  3.7004 -1.2935  0.7469
 5324TIP3    H237464   4.000   2.724  13.465 -1.3617  1.6127 -1.1686
 5325TIP3   OH237465   4.645   4.148  16.114 -0.3309  0.2990 -0.3666
 5325TIP3    H137466   4.604   4.084  16.057  1.3442  0.5227 -1.9222
 5325TIP3    H237467   4.728   4.108  16.140  0.0113  1.1788 -0.0559
 5326TIP3   OH237468   5.030   3.666   0.075  0.4497  0.5713  0.6263
 5326TIP3    H137469   5.049   3.607   0.148 -2.1765 -0.4409  0.5933
 5326TIP3    H237470   5.089   3.637   0.005 -0.9070 -2.2954  0.5105
 5327TIP3   OH237471   0.560   5.163  14.999  0.4473 -0.3399 -0.3451
 5327TIP3    H137472   0.533   5.076  14.973 -0.7744  0.3669 -1.5766
 5327TIP3    H237473   0.638   5.149  15.054  1.1822 -2.0981 -1.7274
 5328TIP3   OH237474   5.523   1.222  11.062  0.5286 -0.2223  0.4986
 5328TIP3    H137475   5.446   1.175  11.093 -0.5170 -0.1102 -1.7136
 5328TIP3    H237476   5.490   1.309  11.039  1.5168  0.1379  0.3956
 5329TIP3   OH237477   4.743   5.444  13.188  0.0474  0.3385 -0.5610
 5329TIP3    H137478   4.839   5.447  13.186  0.0963 -0.9070 -1.3087
 5329TIP3    H237479   4.716   5.467  13.100 -0.3095  0.0482 -0.5313
 5330TIP3   OH237480   4.519   3.445   5.122  0.2858  0.1632  0.4774
 5330TIP3    H137481   4.477   3.478   5.042 -0.5314 -0.5213  0.6035
 5330TIP3    H237482   4.472   3.487   5.193  0.2773 -0.0809  0.6155
 5331TIP3   OH237483   4.011   5.217   4.969 -0.3609  0.0460 -0.1448
 5331TIP3    H137484   3.983   5.249   5.054 -0.0920  0.8438 -0.3397
 5331TIP3    H237485   4.082   5.276   4.944  2.0576 -2.3127  0.6754
 5332TIP3   OH237486   0.675   4.562  12.882 -0.3662  0.2777  0.0533
 5332TIP3    H137487   0.645   4.538  12.794  0.6598 -0.9219 -0.0080
 5332TIP3    H237488   0.614   4.630  12.911 -0.9759  0.3950 -1.4124
 5333TIP3   OH237489   3.691   1.127  11.654  0.2581 -0.3569 -0.1584
 5333TIP3    H137490   3.670   1.077  11.732  0.2483  1.2784  0.9487
 5333TIP3    H237491   3.606   1.153  11.618  0.2576  0.5939  0.4808
 5334TIP3   OH237492   4.454   2.299   1.801  0.6634  0.6467 -0.6232
 5334TIP3    H137493   4.472   2.278   1.710  0.3360  0.1526 -0.5790
 5334TIP3    H237494   4.530   2.266   1.849  0.1750 -0.4341 -0.5596
 5335TIP3   OH237495   0.449   4.461   5.215  0.0687  0.3911 -0.5085
 5335TIP3    H137496   0.540   4.441   5.194  1.0224  1.3548  2.2115
 5335TIP3    H237497   0.403   4.378   5.207  1.5693 -0.4967 -0.2937
 5336TIP3   OH237498   1.750   2.069  10.575  0.1322 -0.4585  0.2227
 5336TIP3    H137499   1.693   2.052  10.650 -0.8181 -0.5909 -0.5194
 5336TIP3    H237500   1.785   1.983  10.551  1.0224 -0.3239  0.9413
 5337TIP3   OH237501   2.212   2.636  11.619 -0.0163  0.0231 -0.4728
 5337TIP3    H137502   2.286   2.676  11.665 -1.5332  1.6359  0.6514
 5337TIP3    H237503   2.248   2.615  11.532  1.8166  0.5521  0.0960
 5338TIP3   OH237504   0.626   1.465  16.154  0.1776  0.2344 -0.2738
 5338TIP3    H137505   0.614   1.431  16.065  1.5922 -2.1298  0.3699
 5338TIP3    H237506   0.719   1.455  16.171 -0.3469 -1.1791  2.1460
 5339TIP3   OH237507   3.904   1.572  15.028  0.0018  0.5167 -0.0780
 5339TIP3    H137508   3.891   1.601  14.938  2.3341  0.7097 -0.4182
 5339TIP3    H237509   3.972   1.630  15.062  0.9339 -1.1199  0.9760
 5340TIP3   OH237510   2.397   5.762   1.483  0.3839 -0.0396  0.4568
 5340TIP3    H137511   2.315   5.799   1.515  0.8897  0.9509  0.6316
 5340TIP3    H237512   2.453   5.838   1.466  1.6972 -0.7487  1.4902
 5341TIP3   OH237513   4.600   0.541  15.928 -0.0861 -0.4202 -0.5282
 5341TIP3    H137514   4.557   0.487  15.995  0.2924 -1.1046 -0.8242
 5341TIP3    H237515   4.693   0.523  15.940 -0.0634 -1.2872 -1.8490
 5342TIP3   OH237516   5.782   3.953  12.368 -1.5255 -0.1914  0.6743
 5342TIP3    H137517   5.826   3.994  12.443 -1.3826  2.0288 -0.5483
 5342TIP3    H237518   5.840   3.882  12.342  1.1830  2.2212 -0.4734
 5343TIP3   OH237519   2.665   1.491   3.503 -0.3024  0.1500  0.0780
 5343TIP3    H137520   2.646   1.436   3.427 -2.1047  0.8490 -0.0174
 5343TIP3    H237521   2.735   1.549   3.473 -0.6412  0.0842 -0.8840
 5344TIP3   OH237522   0.995   4.181  14.573 -0.5608 -0.2414  0.3801
 5344TIP3    H137523   0.931   4.164  14.643 -0.6499 -0.4590  0.2476
 5344TIP3    H237524   1.002   4.097  14.527  1.9142 -1.1040  2.0983
 5345TIP3   OH237525   1.643   2.783   1.502 -0.4538  0.0245  0.1347
 5345TIP3    H137526   1.668   2.712   1.561 -0.0468  0.1883  0.1637
 5345TIP3    H237527   1.579   2.834   1.551  0.6439  0.7542  0.8392
 5346TIP3   OH237528   3.679   5.068   0.502  0.0966 -0.5610 -0.1445
 5346TIP3    H137529   3.613   5.109   0.447 -0.2371 -0.3795  0.3853
 5346TIP3    H237530   3.759   5.119   0.487  0.1288 -0.7978 -0.8027
 5347TIP3   OH237531   4.417   2.162   0.805  0.2450  0.2438 -0.1165
 5347TIP3    H137532   4.458   2.115   0.733  1.6181 -2.1283  2.0619
 5347TIP3    H237533   4.463   2.247   0.806  0.1208  0.3858 -2.0204
 5348TIP3   OH237534   4.624   1.462   0.972  0.0701  0.1657  0.4598
 5348TIP3    H137535   4.677   1.463   1.051 -0.0431 -0.7885  0.5644
 5348TIP3    H237536   4.687   1.453   0.901  0.1229  0.2460  0.4968
 5349TIP3   OH237537   6.412   0.268  15.204  0.5732 -0.4910 -0.3642
 5349TIP3    H137538   6.486   0.310  15.161 -1.1090  2.4521 -0.6671
 5349TIP3    H237539   6.357   0.237  15.132 -0.6513  1.4886 -0.3407
 5350TIP3   OH237540   2.378   2.147  13.471 -0.1420 -0.7090 -0.3643
 5350TIP3    H137541   2.427   2.126  13.550  2.1271 -2.2108 -2.0555
 5350TIP3    H237542   2.383   2.242  13.463 -1.3272 -0.4096  1.7761
 5351TIP3   OH237543   1.835   5.915  16.722  0.1722 -0.1360  0.1526
 5351TIP3    H137544   1.839   5.999  16.768  2.8418 -0.4919  0.7620
 5351TIP3    H237545   1.807   5.852  16.789  3.0603 -0.4778  1.1939
 5352TIP3   OH237546   4.803   3.259   3.361 -0.0609 -0.3739  0.0883
 5352TIP3    H137547   4.758   3.185   3.402  0.1314 -0.8408 -0.5411
 5352TIP3    H237548   4.765   3.336   3.404  0.1933 -0.8548  1.1989
 5353TIP3   OH237549   3.079   6.324   0.207 -0.2245 -0.3536  0.6364
 5353TIP3    H137550   3.048   6.413   0.225  2.0813  0.6109  0.2145
 5353TIP3    H237551   3.069   6.279   0.291 -2.6334 -0.1663  0.5400
 5354TIP3   OH237552   2.668   6.481  13.761  0.3975  0.2246  0.2582
 5354TIP3    H137553   2.709   6.410  13.809  2.7926  1.8049  0.6858
 5354TIP3    H237554   2.732   6.507  13.695 -0.5603  1.7288 -0.1525
 5355TIP3   OH237555   5.118   0.232  13.495 -0.0235  0.3087  0.3834
 5355TIP3    H137556   5.035   0.193  13.466  0.7949 -1.3442  0.1459
 5355TIP3    H237557   5.135   0.191  13.580  1.7120 -1.2579 -0.6447
 5356TIP3   OH237558   5.824   5.490   1.350  0.3317 -0.0383 -0.1666
 5356TIP3    H137559   5.884   5.481   1.424 -0.5567 -0.0550  0.5638
 5356TIP3    H237560   5.857   5.427   1.285  2.0657  1.0881 -0.4727
 5357TIP3   OH237561   1.055   2.663  12.721  0.3309  0.3310  0.1572
 5357TIP3    H137562   1.075   2.740  12.773  0.6608  0.0163  0.5002
 5357TIP3    H237563   0.974   2.686  12.675  0.1639  0.6989  0.6260
 5358TIP3   OH237564   2.445   6.319  16.849  0.8163  0.0539  0.4075
 5358TIP3    H137565   2.457   6.230  16.818  1.6433 -0.4983  2.1573
 5358TIP3    H237566   2.460   6.314  16.944  0.3622  1.9555  0.6360
 5359TIP3   OH237567   3.716   1.446  14.576  0.1959 -0.3045 -0.3372
 5359TIP3    H137568   3.645   1.497  14.617 -0.2767 -0.4217 -0.9894
 5359TIP3    H237569   3.765   1.410  14.649  1.9879  2.9618  0.2774
 5360TIP3   OH237570   2.051   5.807   0.710 -0.2706  0.6982 -0.4750
 5360TIP3    H137571   2.038   5.894   0.673  3.9414  1.1956 -1.2458
 5360TIP3    H237572   2.042   5.748   0.634  0.7520  0.9179 -0.7819
 5361TIP3   OH237573   0.665   6.651   1.076 -0.5295  0.2110  0.4045
 5361TIP3    H137574   0.651   6.596   1.152  0.2920 -0.4627  0.0729
 5361TIP3    H237575   0.633   6.738   1.103  0.1793  0.0980  1.6706
 5362TIP3   OH237576   4.789   6.306  13.498 -0.2281 -0.5747  1.0121
 5362TIP3    H137577   4.840   6.363  13.556  0.7711 -1.0438  0.6068
 5362TIP3    H237578   4.760   6.234  13.554  0.8381 -1.0902  0.9215
 5363TIP3   OH237579   3.897   6.370   4.304  0.0338 -0.1891  0.4813
 5363TIP3    H137580   3.977   6.417   4.283 -0.2570 -0.1718 -0.6722
 5363TIP3    H237581   3.916   6.324   4.385  0.7014  1.0109  1.0182
 5364TIP3   OH237582   4.800   1.275  11.430  0.3945 -0.5500  0.3428
 5364TIP3    H137583   4.708   1.256  11.449 -0.0425  0.5131 -0.5541
 5364TIP3    H237584   4.849   1.220  11.491 -0.8250 -1.2865  0.7110
 5365TIP3   OH237585   0.982   4.155  17.243  0.2334  0.8368  0.5591
 5365TIP3    H137586   0.895   4.194  17.236 -0.6287 -1.2485 -1.6694
 5365TIP3    H237587   0.989   4.130  17.335 -1.3788  1.3749  0.8692
 5366TIP3   OH237588   4.522   6.567   2.972 -0.1617  0.3589  0.2999
 5366TIP3    H137589   4.450   6.628   2.991 -0.2055  0.3604  0.1305
 5366TIP3    H237590   4.499   6.487   3.019 -0.1874  0.4178  0.3881
 5367TIP3   OH237591   3.739   1.507  11.973  0.7616  0.9099 -0.0566
 5367TIP3    H137592   3.730   1.504  11.878 -1.9866 -0.5149  0.1316
 5367TIP3    H237593   3.733   1.600  11.995  1.1936  1.2366 -1.2312
 5368TIP3   OH237594   3.510   2.151  14.077  0.2636  0.0525  0.5641
 5368TIP3    H137595   3.492   2.133  13.985 -0.8115 -0.3395  0.8384
 5368TIP3    H237596   3.505   2.065  14.119  1.0012  0.1953  0.9565
 5369TIP3   OH237597   2.940   1.508   5.406 -0.2315  0.2074  0.1303
 5369TIP3    H137598   2.847   1.531   5.400 -1.1445 -2.9403  0.3441
 5369TIP3    H237599   2.975   1.527   5.319 -2.1899 -2.3769 -1.3943
 5370TIP3   OH237600   4.392   5.902   1.480 -0.1422  1.0590  0.5220
 5370TIP3    H137601   4.386   5.935   1.570  0.3783 -1.7590  1.7023
 5370TIP3    H237602   4.314   5.847   1.469 -0.8668  2.3715 -1.2580
 5371TIP3   OH237603   3.043   2.405   6.490 -0.3508 -0.0155  0.4534
 5371TIP3    H137604   3.027   2.360   6.408  1.5048 -0.7143  0.4193
 5371TIP3    H237605   2.986   2.362   6.554 -0.2742 -0.8668 -0.0456
 5372TIP3   OH237606   1.781   5.611   1.971 -0.6359  0.5218  0.1353
 5372TIP3    H137607   1.854   5.553   1.951 -0.7927  0.6728 -0.9689
 5372TIP3    H237608   1.758   5.592   2.062 -1.4701 -2.0285 -0.5193
 5373TIP3   OH237609   1.126   2.805   2.526  0.7592  0.5308 -0.0737
 5373TIP3    H137610   1.087   2.842   2.606  1.4313 -0.9129  0.9709
 5373TIP3    H237611   1.087   2.718   2.519  0.6574  0.6717 -1.3806
 5374TIP3   OH237612   5.283   5.297  14.074 -0.2946  0.2515 -0.2718
 5374TIP3    H137613   5.360   5.302  14.131 -0.0203  0.2737 -0.6353
 5374TIP3    H237614   5.312   5.243  14.000 -0.9904 -0.7128  0.1352
 5375TIP3   OH237615   3.911   3.267   1.866 -0.2892 -0.2987 -0.0744
 5375TIP3    H137616   3.917   3.318   1.947  0.7827 -0.5839  0.0344
 5375TIP3    H237617   3.933   3.329   1.797 -1.4026 -0.0016 -0.1921
 5376TIP3   OH237618   0.418   1.598   1.695  0.0256 -0.0067  0.4471
 5376TIP3    H137619   0.470   1.665   1.739 -0.3196  1.1887 -0.8562
 5376TIP3    H237620   0.327   1.622   1.715 -0.0990 -0.1105  0.0116
 5377TIP3   OH237621   4.864   5.983  12.458 -0.4193  0.5209  1.0393
 5377TIP3    H137622   4.851   6.070  12.496 -1.1968  0.3481  1.2017
 5377TIP3    H237623   4.874   5.999  12.365 -1.5455  0.7210  0.9381
 5378TIP3   OH237624   4.302   2.268   2.060  0.1835  0.1716  0.5808
 5378TIP3    H137625   4.253   2.205   2.115  0.2420 -0.4745 -0.0911
 5378TIP3    H237626   4.245   2.284   1.985  0.7549 -0.1582  0.0639
 5379TIP3   OH237627   5.587   0.752   3.776  0.0255  0.2012 -0.4098
 5379TIP3    H137628   5.525   0.774   3.845 -1.4594  1.6556 -2.1067
 5379TIP3    H237629   5.552   0.671   3.738  0.0954  0.1333 -0.3306
 5380TIP3   OH237630   0.875   3.046  15.494 -0.6708 -1.0597 -0.0176
 5380TIP3    H137631   0.828   3.027  15.576 -0.3772 -1.3624  0.0827
 5380TIP3    H237632   0.936   2.973  15.485  0.3275 -0.2719  0.2594
 5381TIP3   OH237633   1.694   5.880  15.404 -0.1713  0.3772 -0.0550
 5381TIP3    H137634   1.668   5.972  15.397  1.8034  1.0884  1.3562
 5381TIP3    H237635   1.617   5.836  15.441 -1.0711  1.4733 -0.5765
 5382TIP3   OH237636   0.097   3.404  16.552  0.3185 -0.5602 -0.0647
 5382TIP3    H137637   0.190   3.424  16.566  0.4720  0.7840 -2.4738
 5382TIP3    H237638   0.098   3.316  16.513  0.5759 -0.5530 -0.0805
 5383TIP3   OH237639   6.683   6.477  14.807  0.4385 -0.4180  0.7413
 5383TIP3    H137640   6.731   6.539  14.863  0.0106 -0.7761  1.5288
 5383TIP3    H237641   6.647   6.531  14.737  1.9334 -0.1208  0.1509
 5384TIP3   OH237642   0.950   6.322  11.324  0.0077  0.3215  0.7102
 5384TIP3    H137643   0.876   6.298  11.380  1.4293 -1.3902  1.9676
 5384TIP3    H237644   0.919   6.398  11.274 -2.8867 -0.8439  0.5420
 5385TIP3   OH237645   1.125   5.774  12.605 -0.1977 -0.2794 -0.0348
 5385TIP3    H137646   1.191   5.749  12.540  0.3113 -1.3760  0.8746
 5385TIP3    H237647   1.125   5.702  12.668 -2.1768 -0.2491  0.0649
 5386TIP3   OH237648   5.403   0.427  13.882  0.1090  0.1300 -0.1006
 5386TIP3    H137649   5.433   0.431  13.792  0.5332  0.3593  0.0479
 5386TIP3    H237650   5.363   0.340  13.890 -2.1198  0.9633 -1.1683
 5387TIP3   OH237651   5.221   4.860   4.599  0.5837 -0.0999 -0.8871
 5387TIP3    H137652   5.192   4.945   4.566  1.8439  1.1782  1.0688
 5387TIP3    H237653   5.277   4.881   4.675 -0.5971 -2.7238  0.8737
 5388TIP3   OH237654   0.408   2.442   5.399  0.1931  0.6779 -0.3569
 5388TIP3    H137655   0.330   2.455   5.452  1.3307  1.4345  1.1835
 5388TIP3    H237656   0.477   2.421   5.461  0.7741 -2.4998 -1.8450
 5389TIP3   OH237657   2.901   1.997  11.900 -0.4739  0.5161  0.5227
 5389TIP3    H137658   2.855   2.006  11.983 -2.8245  2.4557 -0.8480
 5389TIP3    H237659   2.907   1.903  11.885 -1.3931  0.1659  2.1484
 5390TIP3   OH237660   3.268   2.878   5.533 -0.1680  0.4618 -0.3544
 5390TIP3    H137661   3.339   2.815   5.519  0.3412  1.4195 -2.7236
 5390TIP3    H237662   3.297   2.932   5.606  0.9201 -0.0284 -0.4065
 5391TIP3   OH237663   2.730   4.564  16.181  0.0611  0.4074  0.5853
 5391TIP3    H137664   2.731   4.475  16.214  1.9306 -0.3236 -1.2086
 5391TIP3    H237665   2.745   4.619  16.258  1.5800 -1.0244  1.3783
 5392TIP3   OH237666   6.407   4.801  11.914  0.2140 -0.0632  0.2495
 5392TIP3    H137667   6.337   4.856  11.949  0.6495 -0.2150  1.4172
 5392TIP3    H237668   6.377   4.776  11.827 -0.1764  1.6856 -0.1445
 5393TIP3   OH237669   6.100   3.714   0.528  0.0637 -0.7329  0.4923
 5393TIP3    H137670   6.094   3.700   0.434  0.3173 -1.6361  0.6018
 5393TIP3    H237671   6.020   3.676   0.564 -0.6710  0.7753  0.5413
 5394TIP3   OH237672   1.090   6.177  14.535  0.2881 -1.2415  0.4524
 5394TIP3    H137673   1.022   6.115  14.560  0.6502 -2.2311 -0.9371
 5394TIP3    H237674   1.075   6.194  14.442  0.2340  0.7446  0.7671
 5395TIP3   OH237675   2.679   6.362   0.449 -0.2822  0.0388 -0.5350
 5395TIP3    H137676   2.683   6.284   0.395  1.7012 -0.4505  0.2530
 5395TIP3    H237677   2.650   6.331   0.535  0.1301  0.2171 -0.3261
 5396TIP3   OH237678   5.426   3.104  13.124  0.2993 -0.5295 -0.7438
 5396TIP3    H137679   5.423   3.077  13.032  0.1590  0.4055 -1.0201
 5396TIP3    H237680   5.370   3.181  13.128 -0.9595 -1.4485  0.4409
 5397TIP3   OH237681   6.769   1.572  13.499 -0.6854  0.6854  0.3261
 5397TIP3    H137682   6.678   1.554  13.479 -0.6472  0.0519  0.6927
 5397TIP3    H237683   6.795   1.641  13.438 -1.3485  0.7236  0.0901
 5398TIP3   OH237684   6.417   3.226  17.176  0.5564  0.6653  0.0679
 5398TIP3    H137685   6.394   3.271  17.257  1.6312  0.3507  0.5694
 5398TIP3    H237686   6.359   3.150  17.173 -0.0759  1.1408  0.0966
 5399TIP3   OH237687   1.145   0.337  16.307 -0.5508  0.1635 -0.0684
 5399TIP3    H137688   1.149   0.306  16.397 -0.3593 -1.7483 -0.6961
 5399TIP3    H237689   1.123   0.259  16.255  0.5976  0.9293 -1.8202
 5400TIP3   OH237690   5.158   1.334   2.928 -0.2682 -0.1600 -0.0285
 5400TIP3    H137691   5.104   1.256   2.937  1.3495 -1.1552  1.4884
 5400TIP3    H237692   5.117   1.398   2.987 -2.2759  0.6204 -2.1285
 5401TIP3   OH237693   0.290   1.400   5.648  0.3844 -0.0972  0.2164
 5401TIP3    H137694   0.218   1.463   5.653  1.6122  1.3407  0.5953
 5401TIP3    H237695   0.364   1.445   5.689  1.6544 -1.3051 -0.6609
 5402TIP3   OH237696   4.397   5.007   5.324 -0.5570  0.0047  0.5540
 5402TIP3    H137697   4.335   5.055   5.377 -2.3969  0.2384 -1.6396
 5402TIP3    H237698   4.347   4.932   5.291  1.1949 -1.4243  0.9861
 5403TIP3   OH237699   6.391   2.380   4.436 -0.0753  0.3063 -0.7190
 5403TIP3    H137700   6.378   2.473   4.458  0.7662  0.4640 -0.8564
 5403TIP3    H237701   6.393   2.336   4.521  0.7917  0.5899 -0.5863
 5404TIP3   OH237702   3.762   0.531  12.054 -0.2993  0.3074 -0.2934
 5404TIP3    H137703   3.756   0.436  12.043  1.8782 -0.1281  1.5311
 5404TIP3    H237704   3.685   0.553  12.107 -0.1812 -0.6539  0.2975
 5405TIP3   OH237705   4.077   4.403   5.820  0.5325  0.1195  0.4102
 5405TIP3    H137706   3.998   4.439   5.781 -0.0119 -0.3329  1.0824
 5405TIP3    H237707   4.098   4.462   5.892  0.1551 -0.3849  0.9430
 5406TIP3   OH237708   4.570   5.023   3.989 -0.0677 -0.9021  0.1001
 5406TIP3    H137709   4.619   5.009   4.070 -0.0771 -0.5976  0.1620
 5406TIP3    H237710   4.517   4.945   3.979  0.1810 -1.0860  0.2134
 5407TIP3   OH237711   3.545   0.244  11.183  0.1233 -0.1138 -0.0683
 5407TIP3    H137712   3.564   0.305  11.112 -0.8272 -0.0854 -0.3137
 5407TIP3    H237713   3.472   0.283  11.230  2.0161  0.8794  2.2012
 5408TIP3   OH237714   2.630   2.372   0.143  0.2060 -0.3499  0.1103
 5408TIP3    H137715   2.678   2.415   0.072  0.2653  0.5282  0.6636
 5408TIP3    H237716   2.553   2.334   0.101  1.5311 -2.1030 -0.8585
 5409TIP3   OH237717   6.081   1.528  15.332  0.8543 -0.1126  0.5720
 5409TIP3    H137718   6.053   1.487  15.414  0.5885 -2.2012 -0.5134
 5409TIP3    H237719   6.040   1.615  15.334 -0.0157 -0.5193  2.1609
 5410TIP3   OH237720   2.970   1.671  16.310 -0.6689  0.2899 -0.5916
 5410TIP3    H137721   2.957   1.740  16.375 -0.2990 -0.4287  0.2681
 5410TIP3    H237722   3.038   1.706  16.251 -1.7039  1.3375 -1.1907
 5411TIP3   OH237723   0.619   0.750  10.674 -0.4315  0.2250  0.5049
 5411TIP3    H137724   0.682   0.817  10.702 -1.5130  0.8980  1.4230
 5411TIP3    H237725   0.613   0.690  10.748  0.9977 -1.2943 -0.5494
 5412TIP3   OH237726   5.649   2.148  12.455 -0.0885  0.9506 -0.8105
 5412TIP3    H137727   5.741   2.172  12.460 -0.1992  1.0991  1.7388
 5412TIP3    H237728   5.646   2.055  12.477 -0.4017  0.4072 -2.9383
 5413TIP3   OH237729   4.832   0.773   2.063 -0.2084  0.6109 -0.6738
 5413TIP3    H137730   4.859   0.768   1.971 -0.5257  1.8676 -0.8535
 5413TIP3    H237731   4.762   0.709   2.071 -1.8397  2.1300 -1.9378
 5414TIP3   OH237732   5.526   5.209   3.977 -0.0961 -0.1971 -0.5044
 5414TIP3    H137733   5.514   5.208   4.072  2.2339 -2.0628 -0.1386
 5414TIP3    H237734   5.482   5.130   3.946  0.3455 -0.3505 -0.7611
 5415TIP3   OH237735   2.843   0.651   4.650 -0.7363  0.0563  0.0945
 5415TIP3    H137736   2.813   0.685   4.734 -0.0736 -1.4560  0.9845
 5415TIP3    H237737   2.837   0.556   4.659  1.1098 -0.2013 -0.8879
 5416TIP3   OH237738   3.702   1.311   1.884  0.5130  0.4713 -0.2962
 5416TIP3    H137739   3.708   1.247   1.954 -0.7784  0.8833  0.2130
 5416TIP3    H237740   3.775   1.289   1.825 -0.2415 -1.8457 -0.4714
 5417TIP3   OH237741   4.897   0.313  16.344 -0.5767 -0.0284 -0.8012
 5417TIP3    H137742   4.854   0.393  16.374 -1.0040 -0.4889 -0.1501
 5417TIP3    H237743   4.828   0.263  16.301 -0.4364 -0.2749 -0.7447
 5418TIP3   OH237744   3.735   1.942  14.759  0.3722 -0.2912 -0.1527
 5418TIP3    H137745   3.741   1.864  14.815 -2.7768 -1.2441 -0.9047
 5418TIP3    H237746   3.747   1.908  14.670  0.4661  0.3285 -0.3763
 5419TIP3   OH237747   1.064   0.758  14.909 -0.6085 -0.5348 -0.5839
 5419TIP3    H137748   1.138   0.782  14.965 -0.8610 -0.8132 -0.1275
 5419TIP3    H237749   1.074   0.665  14.894 -1.0424 -0.6386 -0.2530
 5420TIP3   OH237750   4.530   3.811  11.832  0.1806  0.0790 -0.4693
 5420TIP3    H137751   4.553   3.781  11.744 -0.8774 -1.4233 -0.2804
 5420TIP3    H237752   4.534   3.732  11.886  1.0649  1.0172  0.9086
 5421TIP3   OH237753   6.423   3.303  14.632 -0.2662 -0.2127  0.2447
 5421TIP3    H137754   6.458   3.278  14.546 -1.2939  0.2709 -0.3325
 5421TIP3    H237755   6.475   3.379  14.658  1.6327 -1.7341  1.1644
 5422TIP3   OH237756   1.473   5.535  16.197 -0.2993 -0.4968  0.3077
 5422TIP3    H137757   1.387   5.503  16.170  0.3896 -1.2718 -1.1272
 5422TIP3    H237758   1.490   5.490  16.280 -0.9606 -0.9380  0.2135
 5423TIP3   OH237759   2.218   5.674  15.574 -0.0214 -0.0278  1.1682
 5423TIP3    H137760   2.173   5.644  15.496 -0.0203  1.0761  0.7194
 5423TIP3    H237761   2.273   5.601  15.601  0.8384 -0.0371 -0.5157
 5424TIP3   OH237762   2.258   3.895  15.967  0.0011 -0.0968 -0.0711
 5424TIP3    H137763   2.190   3.925  15.907  1.8113  0.2824 -2.0625
 5424TIP3    H237764   2.244   3.800  15.973 -0.5133 -0.0700 -0.6890
 5425TIP3   OH237765   6.751   2.340  12.062  0.5807  0.5887  0.0173
 5425TIP3    H137766   6.688   2.358  11.993  0.7986  0.1312 -0.3072
 5425TIP3    H237767   6.830   2.313  12.016  1.2252  1.7690  0.3929
 5426TIP3   OH237768   0.305   3.692   0.522 -0.1914  0.1633  0.3596
 5426TIP3    H137769   0.366   3.762   0.498 -0.9233  1.0914  1.1225
 5426TIP3    H237770   0.227   3.709   0.468  0.0144 -0.7175 -0.2408
 5427TIP3   OH237771   6.299   1.479   1.944  0.0284 -0.0569  0.5322
 5427TIP3    H137772   6.224   1.424   1.963 -0.6906  1.1395  1.2681
 5427TIP3    H237773   6.289   1.555   2.001  0.6107  1.1854 -0.9444
 5428TIP3   OH237774   3.715   0.973   6.020  0.0846 -0.5048 -0.1350
 5428TIP3    H137775   3.645   1.037   6.031  1.2054  0.9741 -1.2060
 5428TIP3    H237776   3.784   1.003   6.079  0.6675 -0.6620 -0.7352
 5429TIP3   OH237777   2.205   6.399  12.610 -0.0755 -0.2724 -0.3647
 5429TIP3    H137778   2.172   6.337  12.676 -1.6681  3.0646  2.2871
 5429TIP3    H237779   2.283   6.437  12.651 -0.9289  1.6604 -0.4209
 5430TIP3   OH237780   5.369   6.495   2.771  0.4066  0.0230 -0.2996
 5430TIP3    H137781   5.281   6.527   2.753  1.4036  3.4480  0.2984
 5430TIP3    H237782   5.358   6.432   2.842 -1.4732  1.0227  0.3395
 5431TIP3   OH237783   1.502   0.175   5.126  0.3923  0.2174 -0.4985
 5431TIP3    H137784   1.565   0.154   5.057  2.4789  0.6804  1.1718
 5431TIP3    H237785   1.416   0.166   5.084  1.4266 -2.8940 -2.2249
 5432TIP3   OH237786   5.534   4.526  13.764 -0.0042  0.1495 -0.3704
 5432TIP3    H137787   5.549   4.600  13.822 -0.7483  1.2324 -1.5276
 5432TIP3    H237788   5.535   4.450  13.822 -1.5789  1.2650  1.2051
 5433TIP3   OH237789   4.840   5.530   1.300 -0.4133 -1.1770  0.0237
 5433TIP3    H137790   4.781   5.596   1.335 -2.4109 -0.9859 -3.3159
 5433TIP3    H237791   4.925   5.550   1.340 -1.6199  1.3464  1.5705
 5434TIP3   OH237792   2.741   5.325  14.511  0.1109  0.5175  0.5873
 5434TIP3    H137793   2.722   5.368  14.427  0.2665  0.1365  0.3551
 5434TIP3    H237794   2.661   5.334  14.561  0.1772  1.1788  0.5816
 5435TIP3   OH237795   0.079   2.844  16.490 -0.2111 -0.1782  0.7393
 5435TIP3    H137796   0.079   2.748  16.495  0.4012 -0.1407  1.6516
 5435TIP3    H237797   0.172   2.868  16.491 -0.3799  0.4687  1.5223
 5436TIP3   OH237798   6.011   3.656  14.089  0.3568  0.1905  0.4114
 5436TIP3    H137799   5.976   3.632  14.175  2.0341  2.5405  1.8535
 5436TIP3    H237800   6.103   3.631  14.093  0.6146  0.9813 -0.4383
 5437TIP3   OH237801   6.311   3.625  15.101  0.1440  0.0198  0.0823
 5437TIP3    H137802   6.216   3.628  15.110  0.1461 -0.0110  0.1127
 5437TIP3    H237803   6.334   3.534  15.116  0.0443 -0.2520 -1.2818
 5438TIP3   OH237804   2.567   3.880   6.009  0.0488 -0.7832  0.2940
 5438TIP3    H137805   2.506   3.818   6.048  0.5583 -2.0787 -0.8750
 5438TIP3    H237806   2.546   3.880   5.916  0.2042  0.6569  0.2424
 5439TIP3   OH237807   5.734   0.459   4.512  0.1302  0.4798  0.5271
 5439TIP3    H137808   5.664   0.505   4.465 -0.2583  0.1639  0.7863
 5439TIP3    H237809   5.710   0.367   4.506 -0.0747  0.4531  1.5596
 5440TIP3   OH237810   2.705   4.281   3.984 -0.6569 -0.0035  0.2977
 5440TIP3    H137811   2.770   4.265   3.916 -2.6376 -0.8669 -1.5151
 5440TIP3    H237812   2.699   4.198   4.032  0.8359  0.6458  1.7025
 5441TIP3   OH237813   3.089   2.117  12.835 -0.0010 -0.0320  0.4470
 5441TIP3    H137814   3.031   2.076  12.898 -0.7016  0.2292 -0.0053
 5441TIP3    H237815   3.039   2.116  12.753 -0.5385  2.6312  0.6206
 5442TIP3   OH237816   4.090   0.478   3.432  0.0993  0.2344 -0.1116
 5442TIP3    H137817   4.008   0.497   3.386 -0.7334 -1.5904  0.4861
 5442TIP3    H237818   4.061   0.437   3.514  1.6134  0.5011  0.5792
 5443TIP3   OH237819   4.106   2.469  14.836  0.1096  0.5930 -0.0674
 5443TIP3    H137820   4.043   2.507  14.775 -0.8403  0.5000  0.8318
 5443TIP3    H237821   4.068   2.385  14.860 -0.6589  1.5240  2.2982
 5444TIP3   OH237822   6.703   2.557   1.382 -0.1293 -0.1398  0.5259
 5444TIP3    H137823   6.642   2.561   1.455 -1.4659  0.1887 -0.5800
 5444TIP3    H237824   6.651   2.580   1.305  1.2178 -0.5601 -0.5553
 5445TIP3   OH237825   1.310   4.772  15.492 -0.0446  0.3523  0.0244
 5445TIP3    H137826   1.296   4.866  15.503 -2.0751  0.1425 -0.3223
 5445TIP3    H237827   1.314   4.737  15.581 -2.6713  0.3817  0.2183
 5446TIP3   OH237828   4.055   2.240   1.257  0.4275 -0.0234  0.3835
 5446TIP3    H137829   3.968   2.257   1.220 -0.1922 -0.7076  1.4848
 5446TIP3    H237830   4.107   2.212   1.182 -0.5144 -0.3648 -0.1641
 5447TIP3   OH237831   6.087   2.617  14.905 -1.1900  0.3977 -0.2109
 5447TIP3    H137832   6.048   2.540  14.946  1.7629 -1.2463 -0.2892
 5447TIP3    H237833   6.151   2.583  14.844 -0.6518  2.9320 -1.1975
 5448TIP3   OH237834   6.026   3.995   4.525 -0.2450  0.4396 -0.2170
 5448TIP3    H137835   5.947   3.972   4.477  0.0536  1.0208 -1.0175
 5448TIP3    H237836   6.071   3.911   4.540 -1.9431 -0.1551  2.0181
 5449TIP3   OH237837   3.759   3.909   4.132  0.3354  0.3427  0.4259
 5449TIP3    H137838   3.707   3.874   4.205 -1.3189 -0.4020 -1.0491
 5449TIP3    H237839   3.833   3.849   4.125 -0.4817 -0.6928  0.3402
 5450TIP3   OH237840   4.607   0.970   0.552  0.5451  0.2367 -0.4240
 5450TIP3    H137841   4.578   0.880   0.539  0.4087  0.0734  0.8745
 5450TIP3    H237842   4.701   0.963   0.566  0.1988 -0.0216  2.1575
 5451TIP3   OH237843   4.744   4.018  13.325 -0.5868  0.0106 -0.2569
 5451TIP3    H137844   4.662   3.988  13.288  0.3191 -0.8343 -1.6879
 5451TIP3    H237845   4.780   4.077  13.258  0.0858  0.1647  0.2245
 5452TIP3   OH237846   3.888   0.878  15.454 -0.1060 -0.3952 -0.0321
 5452TIP3    H137847   3.921   0.810  15.512  0.1811  0.4177  0.7807
 5452TIP3    H237848   3.942   0.955  15.474  0.9600 -0.4261 -2.3354
 5453TIP3   OH237849   1.408   0.920  16.319  0.4511 -0.2383  0.0988
 5453TIP3    H137850   1.362   0.837  16.310 -0.4716  0.3608 -0.9823
 5453TIP3    H237851   1.433   0.944  16.230 -1.0041  1.5458  0.1062
 5454TIP3   OH237852   6.053   1.181  11.958  0.2695  0.4234  0.3828
 5454TIP3    H137853   6.071   1.174  12.052 -1.5426  0.0894  0.7395
 5454TIP3    H237854   6.133   1.217  11.921  0.4397  2.1849  2.3036
 5455TIP3   OH237855   3.227   4.002  12.481 -0.4622 -0.9065 -0.8227
 5455TIP3    H137856   3.195   4.010  12.391 -0.6043 -1.4666 -0.8261
 5455TIP3    H237857   3.159   3.951  12.526 -1.3248  0.9463  0.0776
 5456TIP3   OH237858   4.571   3.930   0.902 -0.2005 -1.1327  0.3085
 5456TIP3    H137859   4.587   3.838   0.923 -1.0119 -1.0676  1.2707
 5456TIP3    H237860   4.607   3.979   0.976 -2.4760 -0.8640  1.3353
 5457TIP3   OH237861   4.024   6.405  14.508 -0.0104 -0.2348  0.3679
 5457TIP3    H137862   3.998   6.313  14.519 -0.2706 -0.0907  1.0004
 5457TIP3    H237863   4.063   6.408  14.421  2.2042 -1.4417  1.2229
 5458TIP3   OH237864   2.438   4.256  16.392 -0.1657  0.2890  0.7365
 5458TIP3    H137865   2.485   4.174  16.410  1.1466  0.9441  0.4474
 5458TIP3    H237866   2.468   4.282  16.305 -0.7737  0.9458  0.7141
 5459TIP3   OH237867   5.470   6.435   5.301  0.2916  0.3842  0.7480
 5459TIP3    H137868   5.503   6.431   5.211  1.1647  0.5832  1.0512
 5459TIP3    H237869   5.549   6.440   5.355 -0.2022 -0.4243  1.5681
 5460TIP3   OH237870   2.235   5.938  16.835 -0.2562  0.5564  0.4600
 5460TIP3    H137871   2.302   5.918  16.899  0.2538 -1.2903 -0.5718
 5460TIP3    H237872   2.280   5.988  16.767  0.6489 -2.1477 -1.1037
 5461TIP3   OH237873   5.788   4.272  11.816 -0.6621  0.2915 -0.4016
 5461TIP3    H137874   5.814   4.224  11.737  1.2164 -0.8695  0.8427
 5461TIP3    H237875   5.720   4.217  11.855 -0.4426  0.0243 -0.3894
 5462TIP3   OH237876   1.547   5.777   0.558  0.1690 -0.3673 -0.1948
 5462TIP3    H137877   1.590   5.839   0.617 -0.7840  0.7308 -0.6211
 5462TIP3    H237878   1.568   5.691   0.594  2.6556  0.0995 -0.3352
 5463TIP3   OH237879   2.379   1.148  14.533  0.5617 -0.1241  0.3070
 5463TIP3    H137880   2.314   1.108  14.590  0.8552 -0.8268  0.1520
 5463TIP3    H237881   2.383   1.091  14.457  2.2161 -0.7692  0.8295
 5464TIP3   OH237882   2.720   3.674   5.153  0.2187 -0.7397 -0.4937
 5464TIP3    H137883   2.745   3.764   5.174 -2.3387 -0.1237  0.2968
 5464TIP3    H237884   2.733   3.625   5.235 -1.1601 -0.3847 -0.0360
 5465TIP3   OH237885   2.263   0.138  12.300 -0.0129 -0.0491  0.0319
 5465TIP3    H137886   2.224   0.188  12.229  2.5271  0.2179 -1.2982
 5465TIP3    H237887   2.320   0.075  12.256  1.9680  0.3942  1.8014
 5466TIP3   OH237888   2.867   5.292   4.700 -0.2929  0.8011  0.5042
 5466TIP3    H137889   2.961   5.304   4.686 -0.4133  0.0317 -1.2230
 5466TIP3    H237890   2.836   5.377   4.731  1.0963  0.8052  2.0348
 5467TIP3   OH237891   5.199   1.260   0.765 -0.1131  0.2234 -0.5036
 5467TIP3    H137892   5.205   1.308   0.682 -0.8060  0.9519 -0.1434
 5467TIP3    H237893   5.113   1.283   0.800  0.2775  0.1265  0.5501
 5468TIP3   OH237894   1.762   4.179   1.368 -0.3081 -0.4933 -0.8166
 5468TIP3    H137895   1.733   4.094   1.333 -0.0047 -0.3382 -1.4547
 5468TIP3    H237896   1.834   4.157   1.427 -0.5111 -0.7181 -0.6486
 5469TIP3   OH237897   5.032   6.420  10.911 -0.4147 -0.1419 -0.3627
 5469TIP3    H137898   5.063   6.452  10.827 -0.0638  0.1523 -0.1220
 5469TIP3    H237899   5.037   6.325  10.904 -2.0238 -0.1934 -1.3002
 5470TIP3   OH237900   3.209   0.774  13.157  0.2404  0.3285  0.5080
 5470TIP3    H137901   3.196   0.814  13.243 -3.0470 -0.5757  0.5785
 5470TIP3    H237902   3.120   0.761  13.123  1.3911 -0.0877 -2.7077
 5471TIP3   OH237903   4.433   3.301   2.819  0.5128  0.3331  0.6217
 5471TIP3    H137904   4.383   3.231   2.859  0.9243 -0.6014 -0.4572
 5471TIP3    H237905   4.368   3.366   2.793  0.1289  0.3550  1.5790
 5472TIP3   OH237906   3.723   6.560  16.277  0.3914  0.2792  0.0371
 5472TIP3    H137907   3.777   6.493  16.319 -0.7263 -0.7589 -0.1543
 5472TIP3    H237908   3.770   6.580  16.195  1.2324  0.4668  0.5463
 5473TIP3   OH237909   3.809   4.279   3.975 -0.0175 -0.0096  0.2269
 5473TIP3    H137910   3.822   4.367   3.940  0.2942 -0.8820 -1.9916
 5473TIP3    H237911   3.894   4.255   4.012  0.4483 -0.0605 -0.8439
 5474TIP3   OH237912   1.482   6.750   5.277  0.1602 -0.0331 -0.1831
 5474TIP3    H137913   1.551   6.717   5.219  0.6010  1.1327 -0.3500
 5474TIP3    H237914   1.448   6.827   5.233 -2.0136 -1.1529 -0.6104
 5475TIP3   OH237915   4.693   3.596   6.345  0.3348 -0.1837 -0.3058
 5475TIP3    H137916   4.703   3.691   6.346 -0.7025 -0.0498  1.1473
 5475TIP3    H237917   4.728   3.568   6.429  1.0857 -1.1547 -0.9297
 5476TIP3   OH237918   2.946   1.549  15.368 -0.2913  1.0459  0.3390
 5476TIP3    H137919   2.934   1.644  15.374  2.8355  1.7060 -1.4385
 5476TIP3    H237920   3.028   1.538  15.319 -0.6936 -2.6013  0.1693
 5477TIP3   OH237921   5.433   4.156  17.248 -0.0862 -0.4099  0.6205
 5477TIP3    H137922   5.379   4.086  17.212 -2.0007  0.7100  1.1678
 5477TIP3    H237923   5.465   4.121  17.331 -1.1696 -0.6045  0.9729
 5478TIP3   OH237924   5.118   6.415   1.583 -0.8532 -0.6517  0.1462
 5478TIP3    H137925   5.121   6.390   1.675 -0.9792  2.5892  1.1475
 5478TIP3    H237926   5.204   6.387   1.549  1.2000  2.0997  2.5315
 5479TIP3   OH237927   0.669   1.885  14.241  0.5431 -0.0512  0.9022
 5479TIP3    H137928   0.738   1.904  14.177 -0.1472 -1.1687 -0.2512
 5479TIP3    H237929   0.610   1.825  14.194 -0.9798  0.5368  1.9895
 5480TIP3   OH237930   5.110   5.186   1.380 -0.3684 -0.4028 -0.5607
 5480TIP3    H137931   5.030   5.179   1.432 -0.4954  0.4262 -0.6214
 5480TIP3    H237932   5.081   5.230   1.299  0.4470  1.5720  0.1615
 5481TIP3   OH237933   3.442   4.399   4.074  0.7818 -1.0808  0.3594
 5481TIP3    H137934   3.520   4.454   4.060  0.9719 -0.8890  2.0489
 5481TIP3    H237935   3.397   4.400   3.989  1.0793  1.2092  0.1690
 5482TIP3   OH237936   6.357   4.417  12.278 -0.4313 -0.6467 -0.0435
 5482TIP3    H137937   6.270   4.392  12.309  0.2843 -0.0161  2.7501
 5482TIP3    H237938   6.340   4.485  12.213 -2.0266  0.0512  1.0311
 5483TIP3   OH237939   1.444   1.674  14.878  0.9832 -0.2989 -0.2234
 5483TIP3    H137940   1.376   1.663  14.945  1.0325 -1.9209 -0.3904
 5483TIP3    H237941   1.421   1.756  14.834  1.1812  1.0343  1.9855
 5484TIP3   OH237942   3.442   6.009   4.965 -0.4582  0.4521 -0.1408
 5484TIP3    H137943   3.501   5.954   5.017 -0.1711  0.6196 -0.2861
 5484TIP3    H237944   3.407   6.072   5.027 -0.8566  0.0484  0.0442
 5485TIP3   OH237945   1.839   2.957  17.209  0.0356 -0.0872  0.1227
 5485TIP3    H137946   1.807   2.974  17.121  1.6710  0.2579 -0.4435
 5485TIP3    H237947   1.881   3.039  17.236  0.1972 -0.4234  0.9346
 5486TIP3   OH237948   3.635   0.364   5.742  0.0575  0.0780 -0.6540
 5486TIP3    H137949   3.595   0.284   5.707  0.2331 -1.0722  1.6137
 5486TIP3    H237950   3.729   0.350   5.733  0.0793  0.9017 -1.9944
 5487TIP3   OH237951   3.803   3.511   4.495 -1.2746  0.1075  0.3361
 5487TIP3    H137952   3.863   3.477   4.562 -0.4610  0.9990  0.0944
 5487TIP3    H237953   3.857   3.572   4.444 -1.7497 -0.8293 -1.3934
 5488TIP3   OH237954   4.564   4.974  11.937 -0.4171 -0.0294  0.3461
 5488TIP3    H137955   4.640   4.924  11.907  0.1667  1.4100 -0.6764
 5488TIP3    H237956   4.511   4.986  11.858 -1.1411 -0.0240  0.8231
 5489TIP3   OH237957   3.103   6.371  12.697 -0.1231  0.2438 -0.0173
 5489TIP3    H137958   3.087   6.449  12.643  0.2320 -0.1624 -0.7110
 5489TIP3    H237959   3.099   6.298  12.636  1.1179 -0.1555  0.3412
 5490TIP3   OH237960   5.745   4.495  11.486  0.1292 -0.0338 -0.0303
 5490TIP3    H137961   5.838   4.519  11.479  0.8555 -2.4422  0.3861
 5490TIP3    H237962   5.718   4.480  11.395  0.2464  0.3048 -0.1244
 5491TIP3   OH237963   4.292   3.071  13.040 -0.1901  0.2954 -0.0352
 5491TIP3    H137964   4.268   3.094  13.130  1.1926  0.6243  0.2639
 5491TIP3    H237965   4.266   3.147  12.989  0.4327  0.7479  0.3165
 5492TIP3   OH237966   4.908   5.925  15.503  0.0282  0.2651  0.6050
 5492TIP3    H137967   4.877   5.934  15.413  1.1422 -1.0916  0.0397
 5492TIP3    H237968   4.975   5.994  15.511  1.3872 -0.8740 -0.3336
 5493TIP3   OH237969   6.388   2.119  12.713 -0.1755 -0.0499  0.5882
 5493TIP3    H137970   6.470   2.169  12.714 -1.5535  2.4749 -0.7630
 5493TIP3    H237971   6.342   2.146  12.793 -0.9674  1.0463 -0.1949
 5494TIP3   OH237972   2.900   0.070   4.798 -0.4418  0.1695  0.6072
 5494TIP3    H137973   2.990   0.065   4.765 -1.2370 -0.2886 -1.7024
 5494TIP3    H237974   2.894  -0.001   4.862  0.6829 -0.1097  0.4361
 5495TIP3   OH237975   5.880   3.280   0.158 -0.1552  0.5109 -0.1371
 5495TIP3    H137976   5.795   3.246   0.183  0.9436 -1.8782  0.6193
 5495TIP3    H237977   5.861   3.343   0.088 -2.5205  0.2154  0.1558
 5496TIP3   OH237978   4.594   2.227   3.250  0.5828 -0.2955 -0.3560
 5496TIP3    H137979   4.504   2.246   3.277  0.7239 -2.5082  2.0691
 5496TIP3    H237980   4.649   2.277   3.312  0.9571 -1.5920  0.3964
 5497TIP3   OH237981   2.902   0.723   5.548  0.0997  0.1392  0.2431
 5497TIP3    H137982   2.851   0.789   5.501  0.8735  0.5600 -0.0277
 5497TIP3    H237983   2.993   0.753   5.541  0.4450 -0.8489  0.2904
 5498TIP3   OH237984   5.137   1.505   1.688  0.3748  0.3174  0.4442
 5498TIP3    H137985   5.067   1.443   1.708  1.7821 -0.8096  2.1700
 5498TIP3    H237986   5.183   1.467   1.614  0.6329 -0.2295  0.8758
 5499TIP3   OH237987   1.158   2.883  13.947 -0.4521 -0.0344  0.0209
 5499TIP3    H137988   1.203   2.948  14.002  1.4360 -1.2182 -0.0498
 5499TIP3    H237989   1.152   2.926  13.861  1.2693 -0.0996 -0.1731
 5500TIP3   OH237990   2.116   0.601  17.030  0.2334 -0.1076  0.0896
 5500TIP3    H137991   2.201   0.645  17.019  0.2408 -0.1230  0.0871
 5500TIP3    H237992   2.057   0.670  17.061  0.4197 -0.2460  0.7850
 5501TIP3   OH237993   2.999   6.579   3.568  0.3969  0.1084 -0.3361
 5501TIP3    H137994   3.051   6.625   3.634  0.7042 -0.3612 -0.2461
 5501TIP3    H237995   3.015   6.486   3.586  0.9862 -0.0226 -1.4710
 5502TIP3   OH237996   1.516   3.214   0.089  0.1402 -0.5887  0.0755
 5502TIP3    H137997   1.574   3.196   0.163 -0.2034  2.8597  1.3515
 5502TIP3    H237998   1.574   3.244   0.020  0.1797 -0.6268  0.0924
 5503TIP3   OH237999   0.356   1.278   1.797 -0.5606 -0.1475  0.3793
 5503TIP3    H138000   0.329   1.319   1.715 -2.5447 -1.0137  0.5445
 5503TIP3    H238001   0.320   1.189   1.792  1.8877 -1.2408  0.8981
 5504TIP3   OH238002   6.203   0.563  11.114  0.7201  0.2639  0.6955
 5504TIP3    H138003   6.161   0.629  11.059 -0.5795 -0.9466  0.2047
 5504TIP3    H238004   6.269   0.523  11.057  1.0590  0.6599  0.7963
 5505TIP3   OH238005   2.289   1.706   4.776  0.0609  0.0872  0.3491
 5505TIP3    H138006   2.278   1.631   4.718 -0.7727  0.2609  0.2660
 5505TIP3    H238007   2.251   1.678   4.860 -0.4014  0.4592  0.2719
 5506TIP3   OH238008   6.482   2.124  14.961  0.4482  0.0487 -0.1789
 5506TIP3    H138009   6.475   2.034  14.930  0.3161  0.2901 -0.8715
 5506TIP3    H238010   6.394   2.160  14.947  0.6852  0.4885 -0.5802
 5507TIP3   OH238011   0.914   0.159   4.333 -0.3598  0.2262 -0.2549
 5507TIP3    H138012   0.995   0.132   4.376 -0.5045  1.1182  0.6011
 5507TIP3    H238013   0.943   0.213   4.259 -0.0759 -1.9945 -1.8846
 5508TIP3   OH238014   0.410   1.584   0.725 -0.4895 -0.3335  0.0308
 5508TIP3    H138015   0.387   1.574   0.633  0.7364  0.6763 -0.4069
 5508TIP3    H238016   0.410   1.678   0.740 -2.1719 -0.5037  1.4851
 5509TIP3   OH238017   5.068   0.987   2.752 -0.2880  0.7295 -0.5423
 5509TIP3    H138018   5.141   0.976   2.690 -0.5836 -2.2435 -0.4950
 5509TIP3    H238019   5.010   0.914   2.735 -2.0971  1.6890  1.0532
 5510TIP3   OH238020   4.184   1.513  12.500 -0.6481  0.1175 -0.1971
 5510TIP3    H138021   4.221   1.492  12.414  2.8257 -0.1421  1.1996
 5510TIP3    H238022   4.154   1.604  12.492  3.3521  1.5932 -0.7401
 5511TIP3   OH238023   2.342   1.555  12.253  0.4234 -0.1656 -0.9220
 5511TIP3    H138024   2.247   1.552  12.262  0.4980 -1.1939 -0.2755
 5511TIP3    H238025   2.360   1.518  12.166  0.3408 -2.5746  0.0080
 5512TIP3   OH238026   0.202   3.269  14.527  0.4831  0.6777 -0.4847
 5512TIP3    H138027   0.244   3.269  14.441  1.0993 -0.7300 -0.2008
 5512TIP3    H238028   0.273   3.285  14.589  0.5574 -1.1921 -0.0376
 5513TIP3   OH238029   4.253   2.342  16.859 -0.0410 -0.1390 -0.2580
 5513TIP3    H138030   4.225   2.254  16.836 -1.4460  0.2161 -0.0062
 5513TIP3    H238031   4.251   2.344  16.954  0.4166  0.0409 -0.2492
 5514TIP3   OH238032   3.095   2.033  12.105 -0.4716 -0.1680  0.0893
 5514TIP3    H138033   3.038   2.109  12.106  1.9943  1.8431 -0.9178
 5514TIP3    H238034   3.085   1.995  12.018  0.7153  1.0733 -0.6281
 5515TIP3   OH238035   4.925   1.643  13.013 -0.0085  0.0008 -0.1831
 5515TIP3    H138036   4.966   1.642  12.927 -0.1566  2.3473 -0.3429
 5515TIP3    H238037   4.840   1.599  13.000  0.5741 -0.9677 -0.8522
 5516TIP3   OH238038   3.814   1.719  16.281  0.4692  1.1039 -0.4199
 5516TIP3    H138039   3.724   1.699  16.254  0.9844  1.9851 -3.0663
 5516TIP3    H238040   3.868   1.654  16.236  1.1401 -0.9032  2.9280
 5517TIP3   OH238041   4.442   4.420   1.788 -0.4503 -0.6360  0.1579
 5517TIP3    H138042   4.440   4.512   1.764  0.1938 -0.6821 -0.0832
 5517TIP3    H238043   4.372   4.411   1.853 -0.8764 -0.0963 -0.2131
 5518TIP3   OH238044   4.365   5.847  12.690  0.2124  0.0457  0.1729
 5518TIP3    H138045   4.323   5.826  12.774 -0.9379 -0.9593 -0.6219
 5518TIP3    H238046   4.412   5.767  12.667 -1.5050 -0.6264 -1.2906
 5519TIP3   OH238047   1.075   1.500  16.366  0.5864 -0.4128 -0.6585
 5519TIP3    H138048   1.131   1.438  16.411  1.7359 -0.4526 -2.0968
 5519TIP3    H238049   1.082   1.581  16.418 -1.5562 -1.5836  1.6914
 5520TIP3   OH238050   4.561   1.870  15.948  0.1633 -0.0347  0.0730
 5520TIP3    H138051   4.611   1.857  15.867 -0.5996  2.0485 -0.8181
 5520TIP3    H238052   4.489   1.808  15.943  0.2349 -0.0585 -0.7588
 5521TIP3   OH238053   6.102   4.731  14.759 -0.4128  0.0377  0.1707
 5521TIP3    H138054   6.175   4.713  14.819  0.3443 -0.2931 -0.8131
 5521TIP3    H238055   6.044   4.656  14.769  0.6537 -0.9744 -0.8567
 5522TIP3   OH238056   1.955   5.203  15.286  0.8788  0.2734 -0.3152
 5522TIP3    H138057   1.969   5.143  15.213  2.0249  1.0833 -0.7974
 5522TIP3    H238058   1.861   5.197  15.305  1.1440 -2.5693  0.4909
 5523TIP3   OH238059   4.175   6.382   2.399 -0.2575  0.2132 -0.2651
 5523TIP3    H138060   4.229   6.426   2.465 -1.8967  0.8331  0.7414
 5523TIP3    H238061   4.094   6.359   2.446 -0.6302 -1.2476 -1.5373
 5524TIP3   OH238062   1.425   2.082  16.960 -0.4117 -0.4994  0.0923
 5524TIP3    H138063   1.441   2.057  17.051  0.7023 -2.7319 -0.6524
 5524TIP3    H238064   1.332   2.106  16.957 -0.1858  0.8564  2.0292
 5525TIP3   OH238065   4.444   3.145  16.874  0.5580 -0.0780  0.1385
 5525TIP3    H138066   4.456   3.056  16.908 -2.0660 -1.1094 -1.3002
 5525TIP3    H238067   4.400   3.192  16.944  0.0050 -0.5984  0.1544
 5526TIP3   OH238068   5.631   1.296   1.194 -0.0148  0.2651 -0.1017
 5526TIP3    H138069   5.605   1.330   1.279  0.7648  2.1360 -0.5560
 5526TIP3    H238070   5.549   1.272   1.151 -0.4855  0.2255  0.8142
 5527TIP3   OH238071   4.500   3.797  12.400  0.2010 -0.2015  0.2840
 5527TIP3    H138072   4.458   3.874  12.361  0.8605  0.7356  1.3691
 5527TIP3    H238073   4.442   3.724  12.376 -0.9217  0.7465 -0.0117
 5528TIP3   OH238074   0.034   1.903   1.567  0.4595  0.1633  0.4785
 5528TIP3    H138075  -0.055   1.885   1.597  0.2399 -0.2760 -0.3897
 5528TIP3    H238076   0.052   1.992   1.595 -0.1871  0.1888  0.8206
 5529TIP3   OH238077   1.116   6.812  12.394  0.0962  0.0547  0.0393
 5529TIP3    H138078   1.100   6.853  12.478  0.2413  0.0561  0.0655
 5529TIP3    H238079   1.046   6.845  12.337 -0.4776 -0.5658  0.3724
 5530TIP3   OH238080   0.165   3.483   5.763  0.0014 -0.0167 -0.1661
 5530TIP3    H138081   0.254   3.492   5.728  0.2388  1.5920  0.7328
 5530TIP3    H238082   0.178   3.460   5.855 -0.4845  0.8071  0.1175
 5531TIP3   OH238083   5.975   3.824   2.219  0.3239  0.1181  0.1910
 5531TIP3    H138084   5.969   3.746   2.163  0.2203 -0.1712  0.5965
 5531TIP3    H238085   6.011   3.892   2.162  0.0379 -0.1194 -0.2772
 5532TIP3   OH238086   3.363   0.276  16.649  0.6376 -0.2817 -0.1644
 5532TIP3    H138087   3.415   0.203  16.683  1.8373  1.1708  1.2602
 5532TIP3    H238088   3.299   0.234  16.591  2.2327 -2.3137 -0.5963
 5533TIP3   OH238089   0.687   5.865   0.261 -0.8917 -0.0019 -0.3057
 5533TIP3    H138090   0.779   5.840   0.250 -0.8451 -0.4859  0.9821
 5533TIP3    H238091   0.688   5.960   0.263 -0.3595 -0.0151  0.1366
 5534TIP3   OH238092   5.261   4.017  17.046 -0.7261  0.3463  0.4658
 5534TIP3    H138093   5.280   3.979  16.960  1.7881  0.6567  0.8337
 5534TIP3    H238094   5.210   4.096  17.026 -0.5331  0.1909 -0.7010
 5535TIP3   OH238095   2.321   1.441  14.152 -0.0112 -0.2679  0.1328
 5535TIP3    H138096   2.365   1.524  14.136  0.9014 -0.9625 -1.2309
 5535TIP3    H238097   2.340   1.420  14.243  1.0089  0.3120  0.0709
 5536TIP3   OH238098   4.769   6.090  16.997  0.1574  0.3020  0.4512
 5536TIP3    H138099   4.777   6.016  17.058  0.0483  0.2201  0.3665
 5536TIP3    H238100   4.675   6.100  16.985  0.1944 -0.1015 -0.2094
 5537TIP3   OH238101   4.522   6.330   5.316  0.3024  0.3801  0.1678
 5537TIP3    H138102   4.596   6.291   5.268 -0.5365 -0.2258 -0.6571
 5537TIP3    H238103   4.553   6.334   5.407  1.1292 -0.4288 -0.0580
 5538TIP3   OH238104   6.459   5.615  13.028  0.5511  0.0787  0.1516
 5538TIP3    H138105   6.452   5.585  12.937 -1.3873  0.6697  0.0565
 5538TIP3    H238106   6.506   5.699  13.022 -0.2939  0.5285 -0.4296
 5539TIP3   OH238107   5.948   2.052  16.921  0.0918  0.6478  0.1088
 5539TIP3    H138108   5.871   2.046  16.976 -0.3468 -0.6127 -0.6027
 5539TIP3    H238109   5.997   1.972  16.938  0.6351  0.8738 -0.3287
 5540TIP3   OH238110   4.479   0.345   3.169 -0.0991  0.4679 -0.4569
 5540TIP3    H138111   4.432   0.328   3.251 -1.0765  0.2146 -1.0498
 5540TIP3    H238112   4.559   0.390   3.195  0.6775 -1.5345  0.8561
 5541TIP3   OH238113   2.076   1.657   0.033  0.5015 -0.0915  0.3213
 5541TIP3    H138114   1.984   1.646   0.058  0.5105 -0.1358  0.3352
 5541TIP3    H238115   2.124   1.611   0.101  0.5410  0.0718  0.4041
 5542TIP3   OH238116   6.257   6.585  16.656  0.5733  0.2053 -0.0708
 5542TIP3    H138117   6.297   6.508  16.698  0.0420  0.6579  1.3231
 5542TIP3    H238118   6.167   6.560  16.640  0.5554  0.3262 -0.1602
 5543TIP3   OH238119   6.709   0.213   2.002 -0.5739  0.0778  0.2025
 5543TIP3    H138120   6.769   0.189   2.073 -1.2456  0.1643  0.8108
 5543TIP3    H238121   6.760   0.270   1.946  1.0992 -2.6981 -1.3005
 5544TIP3   OH238122   2.882   3.174   3.114 -0.0965  0.2207  0.0365
 5544TIP3    H138123   2.920   3.089   3.136  3.5462  0.5007 -3.9571
 5544TIP3    H238124   2.819   3.154   3.045 -1.3013  0.6059  0.9826
 5545TIP3   OH238125   4.794   0.560   5.624  0.2883  0.1608  0.0793
 5545TIP3    H138126   4.725   0.615   5.587  0.4591 -0.1073 -0.6474
 5545TIP3    H238127   4.821   0.503   5.552  1.3764  0.3729  0.3026
 5546TIP3   OH238128   2.902   0.549  14.688  0.0946 -0.5437 -0.3942
 5546TIP3    H138129   2.952   0.626  14.712 -0.7204  0.7815 -2.6318
 5546TIP3    H238130   2.951   0.476  14.725  1.7388  0.9165  0.4525
 5547TIP3   OH238131   3.260   6.588   0.989 -0.0878  0.5169  0.1274
 5547TIP3    H138132   3.256   6.527   1.063 -0.3260  0.3966  0.0149
 5547TIP3    H238133   3.279   6.673   1.030  2.0011  0.0999  0.1404
 5548TIP3   OH238134   4.211   3.894   1.173  0.8009  0.4229 -0.2467
 5548TIP3    H138135   4.246   3.817   1.127 -0.6261 -0.9676  0.8826
 5548TIP3    H238136   4.288   3.936   1.210  1.4913 -1.7903  1.0485
 5549TIP3   OH238137   0.117   0.635   3.346  0.2753 -0.6658  0.3861
 5549TIP3    H138138   0.158   0.674   3.423 -0.6253  0.2804  0.4112
 5549TIP3    H238139   0.180   0.571   3.315  1.2451 -0.0799  1.1037
 5550TIP3   OH238140   3.556   3.130   4.122  0.6774 -0.0236 -0.1833
 5550TIP3    H138141   3.572   3.201   4.061 -0.3012  0.4596  0.1165
 5550TIP3    H238142   3.480   3.158   4.174  2.2311  0.1771  2.1468
 5551TIP3   OH238143   3.709   1.307   2.262  0.2899 -0.2870 -0.3308
 5551TIP3    H138144   3.654   1.326   2.337  0.1605  0.4668 -0.6063
 5551TIP3    H238145   3.681   1.221   2.232  0.8951 -0.9751  0.9663
 5552TIP3   OH238146   2.050   6.466  11.638  0.0170  0.2027 -0.7409
 5552TIP3    H138147   1.992   6.483  11.712  2.3503  1.2534  0.9743
 5552TIP3    H238148   2.099   6.388  11.663  0.0823 -0.0792 -1.7024
 5553TIP3   OH238149   1.522   6.116   0.892  0.4785 -0.1908  0.0100
 5553TIP3    H138150   1.465   6.082   0.823 -1.1824  0.2154  1.1360
 5553TIP3    H238151   1.546   6.204   0.862  0.8575 -0.5089 -0.6455
 5554TIP3   OH238152   6.221   3.824  16.125  0.2644 -0.3822  0.1173
 5554TIP3    H138153   6.261   3.764  16.188 -0.1695 -1.3369 -0.5040
 5554TIP3    H238154   6.131   3.834  16.156  0.4459  0.2946  0.4545
 5555TIP3   OH238155   5.207   5.762  14.754  0.5500 -0.0155  0.1595
 5555TIP3    H138156   5.135   5.703  14.777 -0.2273  1.1802  0.8962
 5555TIP3    H238157   5.195   5.837  14.812  1.4415  0.9215 -0.8489
 5556TIP3   OH238158   5.807   3.590   4.919  0.6082  0.3426  0.2588
 5556TIP3    H138159   5.815   3.529   4.846 -1.4501  0.2939  0.0245
 5556TIP3    H238160   5.890   3.638   4.919  0.2043  1.3007 -3.0049
 5557TIP3   OH238161   2.352   5.187   3.944 -0.5570  0.2067  0.4849
 5557TIP3    H138162   2.430   5.145   3.981 -0.0729  1.0299  0.4532
 5557TIP3    H238163   2.363   5.179   3.849 -1.7347 -1.7926  0.4904
 5558TIP3   OH238164   0.197   6.471  16.501 -0.0525 -0.1051  0.6277
 5558TIP3    H138165   0.132   6.521  16.549  0.6354  0.6642  0.7726
 5558TIP3    H238166   0.260   6.536  16.468 -1.1745 -0.3962 -2.4768
 5559TIP3   OH238167   3.027   4.872  15.632  0.0577  0.3169 -0.4732
 5559TIP3    H138168   2.991   4.797  15.679  0.8707 -0.2262 -0.6903
 5559TIP3    H238169   2.983   4.948  15.671  0.1655 -0.1712  0.6519
 5560TIP3   OH238170   0.973   4.133   3.611  0.2077  0.2364 -0.0447
 5560TIP3    H138171   0.933   4.219   3.600  0.7899  0.2104 -3.2825
 5560TIP3    H238172   0.971   4.094   3.524  1.7113 -2.2831  0.9274
 5561TIP3   OH238173   2.816   0.026   5.547  0.1536  0.7113 -0.0593
 5561TIP3    H138174   2.886   0.047   5.486  0.5622 -0.6711 -0.0881
 5561TIP3    H238175   2.825  -0.068   5.564 -1.4858  0.5621  0.1851
 5562TIP3   OH238176   0.102   4.202   1.292  0.1937 -0.1157 -0.0197
 5562TIP3    H138177   0.153   4.182   1.213  0.8055 -0.7210  0.5232
 5562TIP3    H238178   0.152   4.270   1.336 -0.7390  1.0630 -0.7196
 5563TIP3   OH238179   3.674   6.360   2.853 -0.2188 -0.2064 -0.2067
 5563TIP3    H138180   3.670   6.453   2.831 -0.2964 -0.0735  0.3399
 5563TIP3    H238181   3.761   6.332   2.827  0.0506  0.1923  0.2492
 5564TIP3   OH238182   2.013   4.859  13.474 -0.2938  0.2373 -0.5861
 5564TIP3    H138183   2.028   4.876  13.381  0.1505  0.0570 -0.5490
 5564TIP3    H238184   1.928   4.898  13.492 -0.9311 -0.7452 -1.3546
 5565TIP3   OH238185   5.202   3.149  16.646 -0.6619  0.5498  0.5447
 5565TIP3    H138186   5.226   3.240  16.661  1.9952  0.1268 -0.5239
 5565TIP3    H238187   5.181   3.144  16.553  2.1690 -0.3786 -0.1507
 5566TIP3   OH238188   1.329   5.867  13.568  0.3229  0.7154 -0.2142
 5566TIP3    H138189   1.365   5.913  13.492  0.7334  1.4018  0.3739
 5566TIP3    H238190   1.310   5.937  13.631 -1.9065  0.3723 -0.4284
 5567TIP3   OH238191   6.548   3.361  15.887 -0.2955  0.1859  0.0587
 5567TIP3    H138192   6.491   3.354  15.811  1.7385 -1.3749 -1.4369
 5567TIP3    H238193   6.624   3.306  15.865 -0.5525 -2.1869  4.0546
 5568TIP3   OH238194   2.157   1.656   4.414  0.1581  0.2060  0.4907
 5568TIP3    H138195   2.166   1.587   4.347  0.7008  0.0093  0.7674
 5568TIP3    H238196   2.073   1.698   4.393 -0.6101 -1.0921  0.8202
 5569TIP3   OH238197   3.897   0.064  11.438 -0.7541 -0.0072 -0.0936
 5569TIP3    H138198   3.970   0.028  11.388  0.1401  0.8333  0.5770
 5569TIP3    H238199   3.830  -0.004  11.434  0.3977 -1.1953  0.0352
 5570TIP3   OH238200   2.064   5.391   1.244 -0.1812 -0.0825  0.3110
 5570TIP3    H138201   2.013   5.465   1.278  1.4509  0.1509  2.4504
 5570TIP3    H238202   2.142   5.431   1.207 -0.1319 -0.6263 -0.1794
 5571TIP3   OH238203   6.677   4.403   5.171 -0.0599  0.2010  0.9244
 5571TIP3    H138204   6.675   4.493   5.138  1.2782 -0.0673 -0.0055
 5571TIP3    H238205   6.695   4.350   5.093  1.6255 -0.6188  1.8287
 5572TIP3   OH238206   1.381   1.663   1.158 -0.1554 -0.6606  0.1320
 5572TIP3    H138207   1.464   1.650   1.113 -0.1546 -1.2147  0.2889
 5572TIP3    H238208   1.317   1.612   1.108  0.2583 -3.2019  2.0013
 5573TIP3   OH238209   2.515   2.676   0.244  0.5789 -0.1625  0.5130
 5573TIP3    H138210   2.560   2.684   0.328  1.3369 -0.4967  0.1483
 5573TIP3    H238211   2.428   2.644   0.267 -0.0318  1.9461  1.3676
 5574TIP3   OH238212   4.205   5.757   0.593  0.3781  0.1214  0.0821
 5574TIP3    H138213   4.149   5.814   0.540  0.6892  0.6222  0.2785
 5574TIP3    H238214   4.268   5.817   0.634 -0.5299 -0.0929  1.8939
 5575TIP3   OH238215   4.297   4.117  11.759  0.2456  0.6387 -0.6011
 5575TIP3    H138216   4.228   4.173  11.724 -1.6255  0.0488  1.8821
 5575TIP3    H238217   4.307   4.048  11.694 -0.6157  1.4136 -1.5924
 5576TIP3   OH238218   3.349   4.878  15.637 -0.2839 -0.7128  0.3650
 5576TIP3    H138219   3.258   4.888  15.665 -0.0312 -0.0106  0.9684
 5576TIP3    H238220   3.365   4.953  15.581  0.1016 -0.5071  0.7491
 5577TIP3   OH238221   1.631   1.160  15.748  0.1228 -0.4131  0.0108
 5577TIP3    H138222   1.637   1.091  15.814  2.9206 -0.2812 -0.0074
 5577TIP3    H238223   1.706   1.145  15.690 -1.0099  0.7905 -1.8677
 5578TIP3   OH238224   1.996   6.708   0.672  0.2566 -0.6479  0.0296
 5578TIP3    H138225   2.005   6.617   0.700  1.0552 -0.5267  0.1931
 5578TIP3    H238226   2.082   6.730   0.635  0.4717  0.4240  1.1118
 5579TIP3   OH238227   0.365   5.348   0.410 -0.1156 -0.3764  0.0930
 5579TIP3    H138228   0.336   5.414   0.348  0.1462 -0.9809 -0.6840
 5579TIP3    H238229   0.458   5.367   0.424 -0.1005 -0.4287  0.0633
 5580TIP3   OH238230   1.378   1.933   0.389  0.0961 -0.0626  0.2256
 5580TIP3    H138231   1.346   1.879   0.461 -0.0189  0.5184  0.6156
 5580TIP3    H238232   1.398   1.871   0.319 -2.9621 -0.4069 -0.4749
 5581TIP3   OH238233   1.830   3.885   6.423 -0.2578  0.6345  0.4344
 5581TIP3    H138234   1.773   3.809   6.428 -0.8557  0.8686 -1.6870
 5581TIP3    H238235   1.770   3.960   6.434  0.1304  0.8318  1.2493
 5582TIP3   OH238236   5.838   0.386   4.775 -0.4515 -0.5532  0.4362
 5582TIP3    H138237   5.851   0.324   4.704  2.3421  0.9567 -0.5239
 5582TIP3    H238238   5.893   0.461   4.752  0.7059 -0.0339  4.2583
 5583TIP3   OH238239   2.656   4.080   0.141  0.0782  0.0819  0.1801
 5583TIP3    H138240   2.622   4.130   0.216 -1.5714  1.4604 -1.3866
 5583TIP3    H238241   2.734   4.128   0.113 -0.4065  0.6961 -0.1422
 5584TIP3   OH238242   3.730   4.917   0.931  0.8551  0.9899 -0.1618
 5584TIP3    H138243   3.636   4.900   0.928  1.2866 -1.6687 -2.0406
 5584TIP3    H238244   3.757   4.891   1.019 -0.1843  2.3237  0.5953
 5585TIP3   OH238245   0.877   4.506   1.762  0.1499  0.1858 -0.4856
 5585TIP3    H138246   0.821   4.580   1.740  0.2909  0.4906  0.1464
 5585TIP3    H238247   0.964   4.531   1.729  0.3288  0.5772  0.2513
 5586TIP3   OH238248   6.137   2.405  11.450 -0.5291 -0.1592  0.4955
 5586TIP3    H138249   6.073   2.386  11.519 -1.3131  1.9639  0.4278
 5586TIP3    H238250   6.222   2.390  11.491 -1.0107  0.0126  1.5971
 5587TIP3   OH238251   6.179   4.364   2.287 -0.0088 -0.1554  0.3860
 5587TIP3    H138252   6.261   4.335   2.245 -0.0389 -1.2550  1.0414
 5587TIP3    H238253   6.150   4.288   2.337 -1.1731  0.3956  0.5789
 5588TIP3   OH238254   4.326   0.934   5.439  0.3423 -0.7104 -0.3147
 5588TIP3    H138255   4.374   0.858   5.405 -0.7450 -1.9443  0.7772
 5588TIP3    H238256   4.257   0.896   5.494 -1.1189  1.0154 -0.8424
 5589TIP3   OH238257   1.841   4.543   3.467 -0.2931 -0.2230  0.7841
 5589TIP3    H138258   1.769   4.523   3.527  0.0099 -2.1412  0.5552
 5589TIP3    H238259   1.914   4.568   3.524 -0.2254 -1.3139  1.1892
 5590TIP3   OH238260   5.856   3.855   4.730  0.3204  0.3972 -0.5341
 5590TIP3    H138261   5.853   3.897   4.816 -1.3721  1.9512 -1.2829
 5590TIP3    H238262   5.772   3.878   4.689  0.1097 -2.2003 -1.7562
 5591TIP3   OH238263   2.576   6.135  16.547  0.4722  0.0923 -0.2938
 5591TIP3    H138264   2.599   6.064  16.608  0.0898  0.7003  0.5879
 5591TIP3    H238265   2.661   6.171  16.519  0.7474  1.6598  2.1410
 5592TIP3   OH238266   4.047   5.008  16.655  0.9001 -0.5139 -0.1415
 5592TIP3    H138267   4.008   5.095  16.647  1.8279 -0.2230 -1.6576
 5592TIP3    H238268   3.976   4.948  16.631  0.6358 -0.1249 -0.3410
 5593TIP3   OH238269   2.407   6.490   4.809  0.1986 -0.0889  0.6078
 5593TIP3    H138270   2.480   6.529   4.761 -0.3034 -1.4695 -1.4189
 5593TIP3    H238271   2.334   6.552   4.795 -0.2820 -1.0455 -1.6051
 5594TIP3   OH238272   3.069   3.666   0.641  0.3067 -0.1073 -0.8370
 5594TIP3    H138273   3.027   3.720   0.574 -2.3329 -0.0102  0.7186
 5594TIP3    H238274   3.119   3.729   0.693 -2.2839  0.9489  0.6171
 5595TIP3   OH238275   2.589   2.231  11.573 -0.3062 -0.0187 -0.1666
 5595TIP3    H138276   2.528   2.221  11.500  0.7595  0.1510 -1.1089
 5595TIP3    H238277   2.570   2.318  11.608  0.8365  0.9765 -1.8686
 5596TIP3   OH238278   0.174   2.628  13.533 -0.7840  0.6071 -0.4416
 5596TIP3    H138279   0.108   2.671  13.479  0.0551  1.3968 -0.8510
 5596TIP3    H238280   0.253   2.625  13.478  0.2883  2.0098  0.9354
 5597TIP3   OH238281   2.931   5.079   4.847  0.2623 -0.3135  0.1825
 5597TIP3    H138282   3.024   5.100   4.835  0.8040 -2.3464  0.4490
 5597TIP3    H238283   2.885   5.148   4.799  1.9871 -0.7822 -2.3891
 5598TIP3   OH238284   4.146   6.722  11.609 -0.0253  0.0034 -0.4234
 5598TIP3    H138285   4.227   6.678  11.634 -0.3001  0.0807  0.6471
 5598TIP3    H238286   4.082   6.652  11.603  0.0507 -0.0234 -1.0142
 5599TIP3   OH238287   0.798   1.254  14.318 -0.2026  0.5670  0.1801
 5599TIP3    H138288   0.837   1.340  14.336  1.0699 -0.0823  0.6508
 5599TIP3    H238289   0.873   1.195  14.309 -0.6687  0.2701 -5.0035
 5600TIP3   OH238290   5.183   0.221  16.618  0.2949 -0.2797  0.2040
 5600TIP3    H138291   5.098   0.256  16.645 -0.0815 -0.8677 -0.1918
 5600TIP3    H238292   5.175   0.127  16.633  0.9497 -0.3115  0.3509
 5601TIP3   OH238293   3.541   5.083   1.984 -0.0316 -0.7234 -0.3804
 5601TIP3    H138294   3.486   5.071   1.907 -0.5841 -1.1147  0.0667
 5601TIP3    H238295   3.498   5.031   2.053 -0.8178  1.3879  0.8246
 5602TIP3   OH238296   0.177   3.921   2.537  0.5217  0.6033  0.1672
 5602TIP3    H138297   0.255   3.954   2.493  0.3010  0.5438 -0.2746
 5602TIP3    H238298   0.107   3.929   2.472  0.5338 -1.0769 -0.0926
 5603TIP3   OH238299   6.055   2.799  12.239  0.2107 -0.0405  0.6891
 5603TIP3    H138300   6.111   2.722  12.243  1.0054  0.4084 -0.9398
 5603TIP3    H238301   6.064   2.839  12.326  0.6089 -1.2001  1.2041
 5604TIP3   OH238302   1.529   4.510  12.115 -0.3819 -0.5635 -0.1869
 5604TIP3    H138303   1.458   4.449  12.096 -0.6578 -0.5461  0.7543
 5604TIP3    H238304   1.608   4.464  12.085 -0.7401 -0.7270 -0.9089
 5605TIP3   OH238305   0.637   3.009   0.053 -0.2139 -0.4561  0.5499
 5605TIP3    H138306   0.611   2.948   0.122 -1.6049  1.0780  1.4571
 5605TIP3    H238307   0.555   3.038   0.014  0.5167 -0.5644 -1.1197
 5606TIP3   OH238308   0.477   5.998  17.140 -0.3881 -0.0551  0.1224
 5606TIP3    H138309   0.429   6.036  17.213 -1.0912  1.6440 -1.1446
 5606TIP3    H238310   0.475   6.066  17.073  1.6116 -0.9230 -0.9041
 5607TIP3   OH238311   2.967   6.164  11.331 -0.7082 -0.5554 -0.1011
 5607TIP3    H138312   3.003   6.179  11.418 -2.2913 -0.4107  0.5660
 5607TIP3    H238313   2.975   6.248  11.287 -0.2011 -0.5382  0.0218
 5608TIP3   OH238314   2.457   3.204  12.940 -0.4298  0.3946 -0.1950
 5608TIP3    H138315   2.417   3.118  12.934  1.0952 -0.4017  0.4295
 5608TIP3    H238316   2.504   3.203  13.024 -0.6415  1.9531 -0.0132
 5609TIP3   OH238317   4.401   0.768  15.494 -1.0039 -0.1025 -0.2348
 5609TIP3    H138318   4.378   0.731  15.579 -0.6887  1.5461  0.6046
 5609TIP3    H238319   4.454   0.845  15.514 -0.4721  0.0260 -1.9455
 5610TIP3   OH238320   3.210   0.737   6.236 -0.2816  0.0064 -0.0136
 5610TIP3    H138321   3.290   0.788   6.219 -2.3654  3.2636 -1.1807
 5610TIP3    H238322   3.187   0.758   6.326 -0.2585 -0.2653  0.0559
 5611TIP3   OH238323   3.756   5.911   2.771 -0.5487 -0.1904 -0.3017
 5611TIP3    H138324   3.673   5.881   2.732 -0.5435  1.4084 -1.7143
 5611TIP3    H238325   3.780   5.987   2.717  0.4227  1.0506  1.7839
 5612TIP3   OH238326   2.359   1.792  12.550  0.2172 -0.3462  0.3225
 5612TIP3    H138327   2.265   1.774  12.547 -0.1774  1.2036  1.7992
 5612TIP3    H238328   2.394   1.749  12.472 -1.7724 -0.5514 -0.5242
 5613TIP3   OH238329   2.156   6.330   5.669  0.8998 -0.2470  0.1360
 5613TIP3    H138330   2.143   6.311   5.761  1.1913 -1.3566 -0.0338
 5613TIP3    H238331   2.068   6.340   5.633  0.7843  0.0922  0.5141
 5614TIP3   OH238332   6.192   2.365  17.185 -0.2711  0.5675 -0.0412
 5614TIP3    H138333   6.202   2.367  17.090 -0.3618 -0.3201 -0.0786
 5614TIP3    H238334   6.197   2.457  17.212  1.7406  0.7034 -0.7051
 5615TIP3   OH238335   3.622   5.392  16.578 -0.3375 -0.3663  0.6559
 5615TIP3    H138336   3.533   5.370  16.605 -0.2782 -0.1030  1.0647
 5615TIP3    H238337   3.665   5.308  16.566 -1.0616 -0.5473 -0.9919
 5616TIP3   OH238338   5.892   3.175  12.914 -0.4985  0.7026  0.3185
 5616TIP3    H138339   5.963   3.239  12.904  0.8053 -0.5829  0.9888
 5616TIP3    H238340   5.852   3.198  12.998 -1.1729  1.6975 -0.2615
 5617TIP3   OH238341   6.718   2.263  16.788  0.0531  0.4871 -0.4653
 5617TIP3    H138342   6.623   2.262  16.794 -0.1690  0.4439 -2.8255
 5617TIP3    H238343   6.749   2.272  16.878 -2.1897  1.5007  0.2563
 5618TIP3   OH238344   0.874   4.011   4.618 -0.3353  0.3062 -0.5018
 5618TIP3    H138345   0.783   4.040   4.608 -0.3824 -0.1892 -1.6982
 5618TIP3    H238346   0.917   4.039   4.537  0.0293 -1.3435 -0.9334
 5619TIP3   OH238347   4.173   4.561  14.129 -0.4063 -0.0032  0.2205
 5619TIP3    H138348   4.239   4.591  14.191 -1.1433 -0.2922  1.1510
 5619TIP3    H238349   4.161   4.635  14.069 -0.2775  0.5755  0.9017
 5620TIP3   OH238350   1.673   6.481  12.763  0.2015 -0.0038  0.1818
 5620TIP3    H138351   1.685   6.495  12.857 -0.1375  2.0776 -0.0166
 5620TIP3    H238352   1.737   6.540  12.722  0.6341 -1.1851 -0.9037
 5621TIP3   OH238353   1.875   4.427   4.374 -0.1596 -0.0049 -0.2206
 5621TIP3    H138354   1.844   4.466   4.292  1.2581  0.6236 -0.4716
 5621TIP3    H238355   1.969   4.442   4.374 -0.1691  0.2714  1.6704
 5622TIP3   OH238356   5.620   4.494  15.914 -0.0061  0.6136  0.3680
 5622TIP3    H138357   5.639   4.553  15.841  0.0781  1.0427  0.7326
 5622TIP3    H238358   5.651   4.408  15.884  0.9939  0.9856  0.3048
 5623TIP3   OH238359   2.622   3.118   4.849 -0.4497 -0.2493  0.6341
 5623TIP3    H138360   2.590   3.037   4.808 -0.2277 -0.2312  0.4278
 5623TIP3    H238361   2.556   3.137   4.917 -0.6194 -0.4818  0.5382
 5624TIP3   OH238362   0.601   4.223   4.122  0.3506  0.1093 -0.3081
 5624TIP3    H138363   0.606   4.245   4.029 -2.4040  0.1264 -0.5245
 5624TIP3    H238364   0.671   4.159   4.135  0.9906  0.3337 -2.3122
 5625TIP3   OH238365   5.628   6.292   3.313 -0.4338  0.3827  0.3719
 5625TIP3    H138366   5.595   6.343   3.239 -0.7048  1.1484  0.9961
 5625TIP3    H238367   5.616   6.350   3.388  3.2559  1.1241  0.5515
 5626TIP3   OH238368   2.015   0.113  16.597  0.3712 -0.0882 -0.2427
 5626TIP3    H138369   2.104   0.110  16.562  1.4653  2.6080  1.9359
 5626TIP3    H238370   1.961   0.144  16.524  1.5205 -0.0889 -1.1239
 5627TIP3   OH238371   0.693   3.024   4.182 -0.0227 -0.1454  0.2818
 5627TIP3    H138372   0.781   3.004   4.149  0.3175  0.6189  0.6901
 5627TIP3    H238373   0.709   3.076   4.262 -0.8424  0.0222  0.3427
 5628TIP3   OH238374   4.838   5.829  11.849 -0.2553  0.1121 -0.2224
 5628TIP3    H138375   4.889   5.843  11.929  0.9569  1.7601 -1.2133
 5628TIP3    H238376   4.813   5.736  11.853  0.2897 -0.0086  1.7444
 5629TIP3   OH238377   1.838   6.424   6.252 -0.3495 -0.3759  0.0024
 5629TIP3    H138378   1.869   6.488   6.315  1.3730 -1.4941  0.3492
 5629TIP3    H238379   1.775   6.371   6.301  0.0306 -0.4435  0.4285
 5630TIP3   OH238380   4.797   2.267  15.201 -0.0685 -0.8919 -0.2240
 5630TIP3    H138381   4.814   2.295  15.111  1.3052 -4.4111 -1.2335
 5630TIP3    H238382   4.882   2.273  15.245 -1.3780  5.0407  2.5181
 5631TIP3   OH238383   5.185   4.306   3.053 -0.3435 -0.5480  0.3963
 5631TIP3    H138384   5.142   4.280   3.135 -2.0147 -1.1574 -0.6211
 5631TIP3    H238385   5.231   4.227   3.025  1.0709 -0.0550  1.2002
 5632TIP3   OH238386   4.282   3.375  12.490  0.0300  0.2723 -0.5413
 5632TIP3    H138387   4.299   3.293  12.443  0.6909  0.6791 -1.0305
 5632TIP3    H238388   4.258   3.348  12.578  1.5800 -0.4042 -0.3096
 5633TIP3   OH238389   6.447   1.505  12.400  0.3211  0.1495  0.0004
 5633TIP3    H138390   6.480   1.594  12.390  3.7975 -1.0229 -0.1740
 5633TIP3    H238391   6.403   1.486  12.317  0.6244  1.2680 -0.4319
 5634TIP3   OH238392   2.239   0.536  16.671  0.1056  0.0618 -0.1816
 5634TIP3    H138393   2.155   0.573  16.644  0.0870  0.1315 -0.0287
 5634TIP3    H238394   2.284   0.608  16.716  0.0079 -0.1413  0.2491
 5635TIP3   OH238395   3.858   5.332   4.273  0.4334 -0.1392  0.0960
 5635TIP3    H138396   3.775   5.338   4.321  0.1299  2.2290 -0.5787
 5635TIP3    H238397   3.889   5.243   4.289 -2.4620 -1.2736 -0.0249
 5636TIP3   OH238398   2.647   3.377   1.170 -0.0785 -0.2976 -0.3398
 5636TIP3    H138399   2.573   3.344   1.222 -0.2120 -1.3605 -1.1666
 5636TIP3    H238400   2.609   3.395   1.084  0.3899  0.3017 -0.4253
 5637TIP3   OH238401   6.532   6.702   2.576  0.8121  0.8986 -0.4046
 5637TIP3    H138402   6.542   6.728   2.668 -0.4307 -0.0021  0.0263
 5637TIP3    H238403   6.522   6.606   2.580  0.4528  0.8809 -1.4475
 5638TIP3   OH238404   0.890   1.462  16.172 -0.6449  0.3746 -0.6960
 5638TIP3    H138405   0.923   1.377  16.144 -2.7256 -1.1817  1.2006
 5638TIP3    H238406   0.950   1.490  16.241 -1.4074 -0.8971  0.5303
 5639TIP3   OH238407   0.155   0.344   1.381  0.7097 -0.1251  0.0210
 5639TIP3    H138408   0.171   0.438   1.371 -0.9126  0.2067  0.3561
 5639TIP3    H238409   0.184   0.324   1.470  0.1602  0.2708  0.2932
 5640TIP3   OH238410   5.504   1.881   1.179  0.1261  0.0102  0.0999
 5640TIP3    H138411   5.448   1.898   1.102 -1.2106 -2.3294  0.4589
 5640TIP3    H238412   5.529   1.968   1.209 -1.7142  1.1105 -1.2792
 5641TIP3   OH238413   0.211   4.907   4.756  0.6880 -0.0044  0.5873
 5641TIP3    H138414   0.151   4.969   4.715 -1.9657 -1.9520  1.2305
 5641TIP3    H238415   0.269   4.878   4.686 -0.5834  0.3403 -0.6502
 5642TIP3   OH238416   4.600   6.005   2.257  0.7263 -0.0641  0.1272
 5642TIP3    H138417   4.561   6.051   2.331 -0.8364 -0.3008 -0.4975
 5642TIP3    H238418   4.636   5.925   2.295 -1.2837 -0.8615  0.4863
 5643TIP3   OH238419   2.619   3.871  14.231 -0.2088  0.6847 -0.6140
 5643TIP3    H138420   2.657   3.926  14.300 -0.2429  0.1111 -0.1285
 5643TIP3    H238421   2.664   3.899  14.151 -0.2898  1.4797 -0.3968
 5644TIP3   OH238422   6.130   1.893   5.312  0.4830  0.3809 -0.0707
 5644TIP3    H138423   6.169   1.946   5.382 -2.8617 -0.1739  2.4386
 5644TIP3    H238424   6.187   1.816   5.306  1.2504  0.7709  1.5756
 5645TIP3   OH238425   3.173   6.085  12.533 -0.1155 -0.2425 -0.2002
 5645TIP3    H138426   3.223   6.012  12.567 -1.5843 -0.9527  0.5311
 5645TIP3    H238427   3.081   6.060  12.546 -0.6806  2.1469  1.0538
 5646TIP3   OH238428   6.618   3.416   3.400 -0.1191 -0.0370 -0.3560
 5646TIP3    H138429   6.635   3.486   3.337 -1.1093  1.1396  0.6084
 5646TIP3    H238430   6.704   3.383   3.424  0.2883 -0.1919 -1.9547
 5647TIP3   OH238431   3.228   2.982   1.904  0.2131 -0.6129 -0.5479
 5647TIP3    H138432   3.210   3.076   1.895  2.0824 -0.0855  0.5261
 5647TIP3    H238433   3.144   2.943   1.925 -0.4065  0.9989  0.1108
 5648TIP3   OH238434   0.122   0.847   6.149  0.9593 -0.2056 -0.1758
 5648TIP3    H138435   0.177   0.894   6.212  2.6762 -3.3624  0.8727
 5648TIP3    H238436   0.074   0.784   6.201  1.9700 -2.5123 -1.8468
 5649TIP3   OH238437   4.327   2.189  16.417  0.1236 -0.2121 -0.5822
 5649TIP3    H138438   4.235   2.190  16.389 -0.1670  1.6443  0.2940
 5649TIP3    H238439   4.326   2.144  16.501  0.4172 -2.3100 -1.6411
 5650TIP3   OH238440   5.035   1.314   3.275 -0.0065  0.2783 -0.5545
 5650TIP3    H138441   4.958   1.281   3.228 -0.6255  1.3328 -0.3276
 5650TIP3    H238442   5.047   1.403   3.242  0.7348  0.3474 -0.1253
 5651TIP3   OH238443   0.928   0.542   1.832  0.4548  0.2309  0.4624
 5651TIP3    H138444   0.858   0.558   1.896  1.7786  0.8379  1.8178
 5651TIP3    H238445   0.959   0.629   1.809 -0.8323  0.1127 -2.0704
 5652TIP3   OH238446   1.898   2.403   0.787 -0.6354  0.0282  0.6386
 5652TIP3    H138447   1.920   2.414   0.880 -0.6213 -0.1798  0.6598
 5652TIP3    H238448   1.812   2.445   0.778 -1.8016 -2.0507  1.2784
 5653TIP3   OH238449   4.273   0.914   2.420  0.1267  0.1906  0.4353
 5653TIP3    H138450   4.297   0.834   2.373  1.4279 -0.0748  1.5023
 5653TIP3    H238451   4.177   0.912   2.423 -0.2801  1.4163 -4.2500
 5654TIP3   OH238452   5.366   0.817   6.395  0.3621  0.0354 -0.2117
 5654TIP3    H138453   5.379   0.740   6.339  0.8073  0.0447 -0.1220
 5654TIP3    H238454   5.303   0.788   6.461 -0.6425  0.2002 -1.0565
 5655TIP3   OH238455   2.120   0.235  12.493 -0.4022  0.1406 -0.7458
 5655TIP3    H138456   2.170   0.204  12.417 -0.7987 -0.9091 -0.5883
 5655TIP3    H238457   2.138   0.171  12.561 -0.6077  0.7012 -0.1591
 5656TIP3   OH238458   4.143   6.747   4.578  0.3102 -0.7515  0.0484
 5656TIP3    H138459   4.062   6.734   4.528  1.2718 -0.4120 -1.6523
 5656TIP3    H238460   4.202   6.680   4.546  0.9736 -0.5065  0.7300
 5657TIP3   OH238461   2.374   6.211   2.477  0.3733  0.0190  0.3412
 5657TIP3    H138462   2.435   6.202   2.404  0.2446 -0.8399  0.3285
 5657TIP3    H238463   2.429   6.211   2.555  0.3118 -2.4757  0.4367
 5658TIP3   OH238464   5.160   6.010   0.771  0.4133 -0.3510 -0.0591
 5658TIP3    H138465   5.191   6.100   0.777  0.0378 -0.2749  0.9867
 5658TIP3    H238466   5.231   5.963   0.728  1.5907  0.0075  1.3841
 5659TIP3   OH238467   0.011   4.668   0.836 -0.4108  0.2128 -0.2015
 5659TIP3    H138468  -0.061   4.634   0.783 -0.7474 -0.3373  0.5846
 5659TIP3    H238469   0.013   4.610   0.912 -0.3669  1.3698  0.6964
 5660TIP3   OH238470   2.447   5.567   2.908 -0.7204  0.0806  0.0868
 5660TIP3    H138471   2.473   5.653   2.877 -1.0039  0.8457  1.8605
 5660TIP3    H238472   2.357   5.578   2.937 -0.3771 -0.4999  1.4269
 5661TIP3   OH238473   0.148   1.045  12.260 -0.0190 -0.4653  0.2826
 5661TIP3    H138474   0.108   1.103  12.325  0.9164  0.5483 -0.0062
 5661TIP3    H238475   0.074   0.999  12.220 -0.6582 -0.6576  1.6274
 5662TIP3   OH238476   5.975   2.246   0.041  0.0948  0.2113  0.2223
 5662TIP3    H138477   6.059   2.273   0.005 -0.0287  0.1524 -0.1135
 5662TIP3    H238478   5.915   2.318   0.019  0.0165  0.1703  0.2977
 5663TIP3   OH238479   4.254   1.272   3.656  0.0525 -0.0755  1.1006
 5663TIP3    H138480   4.231   1.183   3.629 -1.9099  0.8250 -0.4538
 5663TIP3    H238481   4.174   1.322   3.644  1.1480  1.9598  1.8150
 5664TIP3   OH238482   2.947   1.953   1.655  0.4288 -0.0377  0.0302
 5664TIP3    H138483   3.038   1.924   1.649 -0.0412 -1.4762 -0.6048
 5664TIP3    H238484   2.934   1.973   1.748  1.3482  0.0184  0.1511
 5665TIP3   OH238485   4.920   3.095   0.352  0.3154 -0.2812 -0.4572
 5665TIP3    H138486   4.905   3.150   0.275 -0.8702  2.6231  1.6212
 5665TIP3    H238487   5.015   3.084   0.355  0.5599  1.2247 -1.3364
 5666TIP3   OH238488   2.483   6.101   0.147  0.1722  0.4302  0.6413
 5666TIP3    H138489   2.578   6.099   0.151  0.1158 -0.2173  3.2630
 5666TIP3    H238490   2.454   6.030   0.203 -1.8950  0.1503 -0.6425
 5667TIP3   OH238491   0.322   4.422   4.068 -0.1252 -0.3548 -0.2507
 5667TIP3    H138492   0.232   4.446   4.045  0.1385 -0.1856 -1.1374
 5667TIP3    H238493   0.327   4.328   4.050 -0.3361 -0.5150  0.5111
 5668TIP3   OH238494   0.035   5.749  12.277 -0.3815 -0.0681  0.1892
 5668TIP3    H138495   0.005   5.808  12.346  2.0164  0.5363  0.8142
 5668TIP3    H238496   0.037   5.804  12.199  0.3815  0.2938  0.4491
 5669TIP3   OH238497   5.931   4.992  16.020 -0.4350  0.0945 -0.0026
 5669TIP3    H138498   5.865   5.033  15.964 -0.5354  0.0062  0.0510
 5669TIP3    H238499   5.907   4.900  16.023 -0.2836  0.0531 -0.0183
 5670TIP3   OH238500   0.993   6.634   4.535 -0.5690 -0.1299  0.1024
 5670TIP3    H138501   0.963   6.683   4.458 -0.2277 -0.0651  0.0118
 5670TIP3    H238502   1.077   6.597   4.509 -0.9887 -1.0854  0.0362
 5671TIP3   OH238503   1.262   6.388  12.014  0.3018  0.0764 -0.6653
 5671TIP3    H138504   1.234   6.366  11.925  0.2436 -1.5217 -0.2818
 5671TIP3    H238505   1.187   6.433  12.052 -0.4579 -1.0171 -0.8040
 5672TIP3   OH238506   4.067   2.627   4.337  0.9297 -0.3721  0.4672
 5672TIP3    H138507   4.049   2.665   4.424  1.9209 -0.4465  0.7233
 5672TIP3    H238508   3.999   2.663   4.281  0.7972  0.3916  1.0915
 5673TIP3   OH238509   1.740   0.538   2.285  0.0164  0.0822 -0.4328
 5673TIP3    H138510   1.693   0.479   2.345 -1.0861  0.2116 -1.1541
 5673TIP3    H238511   1.736   0.494   2.200  0.5408  0.4735 -0.6644
 5674TIP3   OH238512   2.076   3.295   0.167 -0.6992 -0.0571 -0.5270
 5674TIP3    H138513   2.048   3.369   0.221  1.2414 -1.7623  3.1650
 5674TIP3    H238514   2.154   3.325   0.122 -0.0050  0.2326  0.8418
 5675TIP3   OH238515   1.376   1.861  12.336 -0.5883  0.0086  0.5558
 5675TIP3    H138516   1.334   1.775  12.341  0.6968 -0.6596  0.5080
 5675TIP3    H238517   1.316   1.914  12.284 -0.7180 -1.3094 -0.7079
 5676TIP3   OH238518   4.203   6.134   3.179  0.4042  0.2535  0.3197
 5676TIP3    H138519   4.163   6.216   3.150  2.0808  0.4010 -1.8994
 5676TIP3    H238520   4.131   6.072   3.182 -0.1722  0.4836 -3.5323
 5677TIP3   OH238521   3.812   0.596  16.045  0.0865 -0.2537 -0.2444
 5677TIP3    H138522   3.793   0.603  16.139  2.7542 -3.9904  0.8342
 5677TIP3    H238523   3.746   0.534  16.013  0.0908 -0.1373 -0.4739
 5678TIP3   OH238524   2.914   1.316  15.783  0.4570  0.1600 -0.0190
 5678TIP3    H138525   3.007   1.307  15.804  0.5739  2.8158  1.0458
 5678TIP3    H238526   2.909   1.302  15.689  1.7454 -1.0571  0.0596
 5679TIP3   OH238527   5.653   4.003  15.253  0.0275 -0.2753 -0.1845
 5679TIP3    H138528   5.714   3.946  15.207  0.4035  0.2973 -0.4081
 5679TIP3    H238529   5.652   4.084  15.202 -0.6171 -0.1386  0.0394
 5680TIP3   OH238530   6.794   3.666   5.788 -0.3464 -0.5025  0.3208
 5680TIP3    H138531   6.869   3.608   5.783 -0.8861 -1.2948  1.1249
 5680TIP3    H238532   6.825   3.742   5.837  0.2678 -0.2500 -0.4446
 5681TIP3   OH238533   6.806   2.276   1.890  0.0178  0.0417  0.3554
 5681TIP3    H138534   6.766   2.360   1.914 -1.1461 -0.2219 -0.5641
 5681TIP3    H238535   6.847   2.292   1.805 -0.6419 -0.4432 -0.0606
 5682TIP3   OH238536   2.767   2.009   2.321 -0.6626  0.1016 -0.5404
 5682TIP3    H138537   2.840   1.970   2.273 -0.7496 -0.5384 -0.1525
 5682TIP3    H238538   2.809   2.056   2.393 -0.6648 -0.7681  0.0352
 5683TIP3   OH238539   3.790   1.793  14.548  0.4314 -0.0374  0.4167
 5683TIP3    H138540   3.710   1.742  14.540  0.1287  0.5207 -0.1866
 5683TIP3    H238541   3.783   1.861  14.481  0.6755  0.9975  1.3928
 5684TIP3   OH238542   3.428   0.798  15.890  0.4551 -0.1455  0.5277
 5684TIP3    H138543   3.361   0.836  15.948 -0.2555 -1.8140  0.8513
 5684TIP3    H238544   3.381   0.732  15.840  1.6462 -0.5717 -0.0533
 5685TIP3   OH238545   2.890   3.312  11.635 -0.0211 -0.4326 -0.1435
 5685TIP3    H138546   2.964   3.290  11.579 -0.5304  0.7922 -1.3435
 5685TIP3    H238547   2.813   3.303  11.578 -0.6030  0.3571  0.4900
 5686TIP3   OH238548   5.765   3.284  13.125 -0.1028 -0.2139 -0.1278
 5686TIP3    H138549   5.816   3.250  13.199 -0.2185 -1.3590 -0.5507
 5686TIP3    H238550   5.715   3.357  13.162  1.6100  0.7681  0.3708
 5687TIP3   OH238551   5.968   1.557  11.822  0.4063 -0.3823 -0.1572
 5687TIP3    H138552   5.932   1.496  11.757  0.3141 -0.9744  0.4412
 5687TIP3    H238553   5.934   1.525  11.906  1.8860 -0.6550  0.3671
 5688TIP3   OH238554   3.477   1.443   3.433 -0.4305 -0.1914 -0.4391
 5688TIP3    H138555   3.461   1.533   3.461  1.9031  0.7376 -1.7838
 5688TIP3    H238556   3.420   1.390   3.488 -2.5170  2.1549 -0.1935
 5689TIP3   OH238557   2.890   3.859   1.426  0.1244  0.6396  0.1726
 5689TIP3    H138558   2.799   3.882   1.441 -0.3144 -0.3595 -0.8445
 5689TIP3    H238559   2.912   3.800   1.499 -0.1990  0.4866  0.1486
 5690TIP3   OH238560   1.440   1.369   1.211 -0.3744 -0.0267  0.1080
 5690TIP3    H138561   1.414   1.459   1.231  3.0256  0.5549  2.7246
 5690TIP3    H238562   1.526   1.359   1.251  0.5318 -3.7132 -2.2442
 5691TIP3   OH238563   1.305   3.802   2.757 -0.4522 -0.0038 -0.2717
 5691TIP3    H138564   1.387   3.780   2.714  1.7800  3.8497  1.4176
 5691TIP3    H238565   1.268   3.872   2.704 -1.4561 -0.1313  0.2342
 5692TIP3   OH238566   1.155   4.568  11.754  0.2045  0.1312  0.3312
 5692TIP3    H138567   1.206   4.490  11.775 -0.0587 -0.0670  0.2342
 5692TIP3    H238568   1.220   4.633  11.728  0.2743 -0.7732 -1.9534
 5693TIP3   OH238569   4.312   4.012  10.950 -0.3383  0.6495  0.5532
 5693TIP3    H138570   4.365   3.977  10.878 -1.4234 -0.6931  0.3573
 5693TIP3    H238571   4.309   4.106  10.934  1.1253  0.6279  0.0136
 5694TIP3   OH238572   5.723   3.634   0.869 -0.1676  0.4781  0.7602
 5694TIP3    H138573   5.659   3.582   0.820  0.8764  0.4769 -0.6652
 5694TIP3    H238574   5.676   3.665   0.946 -0.8400 -2.6071  1.7102
 5695TIP3   OH238575   6.686   4.218   6.411 -0.0620 -0.2911  0.4072
 5695TIP3    H138576   6.698   4.151   6.479 -2.6145 -0.8206  0.4288
 5695TIP3    H238577   6.648   4.171   6.337 -0.6026  0.8903 -0.0910
 5696TIP3   OH238578   5.558   2.878  15.070  0.1855  0.1844 -0.1088
 5696TIP3    H138579   5.593   2.860  14.983 -0.6025 -0.8461 -0.2280
 5696TIP3    H238580   5.597   2.811  15.127  0.2111  0.4683  0.2131
 5697TIP3   OH238581   3.951   2.131   2.907  0.1900  0.0955 -0.4742
 5697TIP3    H138582   3.900   2.053   2.927 -1.1065  1.0914  0.2203
 5697TIP3    H238583   4.032   2.119   2.957 -0.5385 -0.2158  0.6832
 5698TIP3   OH238584   1.784   5.430   5.143 -0.2857  0.1598 -0.2563
 5698TIP3    H138585   1.816   5.461   5.227 -1.1412  0.4730 -0.0299
 5698TIP3    H238586   1.855   5.449   5.081 -0.6732  2.4492 -0.0972
 5699TIP3   OH238587   3.188   0.457  11.396 -0.2109 -0.1942 -0.1524
 5699TIP3    H138588   3.147   0.482  11.314 -0.1925 -0.5098 -0.2582
 5699TIP3    H238589   3.141   0.379  11.425  0.4203 -0.6623 -0.3648
 5700TIP3   OH238590   2.020   4.265   3.296 -0.5698 -0.1603 -0.3988
 5700TIP3    H138591   1.977   4.237   3.377  2.1955  0.3597  1.3710
 5700TIP3    H238592   2.052   4.353   3.315  0.0520  0.0328 -2.1356
 5701TIP3   OH238593   1.354   1.131  16.772 -0.2885 -0.7364 -0.3444
 5701TIP3    H138594   1.263   1.121  16.741 -2.3595  0.3010  4.4440
 5701TIP3    H238595   1.377   1.044  16.805  1.0070 -1.2716 -2.4964
 5702TIP3   OH238596   0.746   1.495  17.272  0.1384 -0.0764  0.0108
 5702TIP3    H138597   0.666   1.466  17.229  0.0281  0.8790 -0.4581
 5702TIP3    H238598   0.733   1.471  17.364  0.3443 -2.0552 -0.4239
 5703TIP3   OH238599   5.157   2.008   4.727 -0.0840 -0.2536  0.3265
 5703TIP3    H138600   5.226   1.965   4.676  1.2225  1.7582  0.2843
 5703TIP3    H238601   5.076   1.977   4.687  0.8547 -0.3540 -1.6547
 5704TIP3   OH238602   3.131   1.709  15.569  0.2510 -0.1887  0.1629
 5704TIP3    H138603   3.116   1.761  15.647 -0.0329 -1.4332  0.9655
 5704TIP3    H238604   3.071   1.745  15.503 -2.1964 -1.3820  1.5925
 5705TIP3   OH238605   5.142   6.549  14.073 -0.1304  0.1134 -0.2454
 5705TIP3    H138606   5.198   6.624  14.054 -0.8337  0.7928  0.2916
 5705TIP3    H238607   5.176   6.479  14.017  1.4218  0.4079  0.2702
 5706TIP3   OH238608   2.857   5.853   2.973 -0.1591  0.4633  0.0848
 5706TIP3    H138609   2.919   5.867   2.901 -0.6096  1.7616 -0.0724
 5706TIP3    H238610   2.835   5.941   3.003 -1.1351 -0.0183  0.8286
 5707TIP3   OH238611   4.951   1.762   4.630 -0.5719 -0.1718  0.1533
 5707TIP3    H138612   5.000   1.720   4.559 -0.6202  0.3829 -0.2112
 5707TIP3    H238613   4.960   1.701   4.703  0.8640  0.0151  0.1709
 5708TIP3   OH238614   2.424   3.042  15.999 -0.3899  0.8244  0.0308
 5708TIP3    H138615   2.366   3.114  15.972  0.2615  1.2818 -0.1958
 5708TIP3    H238616   2.498   3.048  15.938 -1.3753 -1.5114 -1.5450
 5709TIP3   OH238617   1.953   3.963  11.809  0.2586  0.2442  0.0615
 5709TIP3    H138618   1.862   3.975  11.781  0.0014 -1.4188  0.0546
 5709TIP3    H238619   1.960   4.014  11.890  0.1200  2.5657 -1.3226
 5710TIP3   OH238620   6.465   0.424  15.928 -0.5158 -0.3488  0.4711
 5710TIP3    H138621   6.556   0.425  15.958 -0.7453 -0.0369  1.1775
 5710TIP3    H238622   6.464   0.359  15.857  0.6602  0.9912 -0.8673
 5711TIP3   OH238623   0.850   6.073   4.290  0.1339  0.1615 -0.0096
 5711TIP3    H138624   0.945   6.065   4.299  0.4603  0.2448 -2.5395
 5711TIP3    H238625   0.815   6.000   4.341  1.2943  1.8926  3.5690
 5712TIP3   OH238626   3.442   4.463  12.731 -0.0742  0.0251  0.1048
 5712TIP3    H138627   3.446   4.376  12.691  0.3463  0.9782 -2.0661
 5712TIP3    H238628   3.511   4.462  12.797  0.3014 -1.1078 -0.2687
 5713TIP3   OH238629   2.931   6.684  12.201  0.1358 -0.2170  0.4481
 5713TIP3    H138630   2.916   6.653  12.290  0.6518  3.5512  2.0439
 5713TIP3    H238631   3.022   6.713  12.200 -0.1719  0.8731 -0.9056
 5714TIP3   OH238632   4.933   4.971  12.371  0.0949  0.4995 -0.3933
 5714TIP3    H138633   4.864   4.912  12.342  0.8979 -0.7927  0.2121
 5714TIP3    H238634   4.914   4.988  12.463  0.2576  0.6152 -0.3803
 5715TIP3   OH238635   2.841   3.910   5.233  0.3740 -0.6074 -0.0147
 5715TIP3    H138636   2.891   3.982   5.195 -1.7464  0.8087 -0.2866
 5715TIP3    H238637   2.855   3.918   5.328  1.5319 -0.9586 -0.1375
 5716TIP3   OH238638   4.676   1.589   6.231  0.1446  0.1145  0.1028
 5716TIP3    H138639   4.716   1.634   6.156  0.7916  0.6219  0.7424
 5716TIP3    H238640   4.741   1.524   6.257 -0.0744 -0.0527  0.2329
 5717TIP3   OH238641   5.248   4.302   1.832 -0.0750  0.2204 -0.7512
 5717TIP3    H138642   5.214   4.226   1.785 -1.5299  1.1693 -1.2995
 5717TIP3    H238643   5.307   4.265   1.898 -0.4662 -1.3464 -1.2351
 5718TIP3   OH238644   0.663   4.576   3.892 -0.1014 -0.1516  0.0694
 5718TIP3    H138645   0.731   4.636   3.924 -0.1889  0.1951 -0.3877
 5718TIP3    H238646   0.625   4.538   3.971 -0.6257  1.0320  0.3988
 5719TIP3   OH238647   4.332   6.637  15.304  0.0542 -0.3482 -0.0088
 5719TIP3    H138648   4.249   6.647  15.350 -0.6204  2.0847 -1.5753
 5719TIP3    H238649   4.389   6.592  15.367 -2.2631 -1.7142  1.2491
 5720TIP3   OH238650   0.089   5.547  14.892 -0.6553  0.4338 -0.1227
 5720TIP3    H138651   0.179   5.515  14.894 -0.2923  1.3746 -0.4418
 5720TIP3    H238652   0.040   5.488  14.949  0.3674  0.4990  0.8607
 5721TIP3   OH238653   6.544   3.880   3.104  0.1045 -0.0846  0.8506
 5721TIP3    H138654   6.631   3.916   3.120 -0.0192 -0.0943  1.5601
 5721TIP3    H238655   6.560   3.801   3.053  0.6421 -0.9406  2.2779
 5722TIP3   OH238656   6.406   3.015  14.278  0.2619 -0.5490  0.6520
 5722TIP3    H138657   6.319   3.028  14.316 -0.4985  0.4535 -1.2899
 5722TIP3    H238658   6.389   2.975  14.193  1.8906 -2.6756  1.2244
 5723TIP3   OH238659   6.540   5.346   5.237  0.2026  0.7083  0.1739
 5723TIP3    H138660   6.458   5.322   5.280  1.4253  0.6174  2.6772
 5723TIP3    H238661   6.543   5.442   5.240 -0.0285  0.7329 -0.3615
 5724TIP3   OH238662   6.330   3.742   0.679  0.7074 -0.1472 -0.1691
 5724TIP3    H138663   6.254   3.718   0.627  2.4246 -0.8657 -2.5165
 5724TIP3    H238664   6.359   3.661   0.720 -0.4748  0.3645  1.7879
 5725TIP3   OH238665   3.820   5.008   3.273  0.9395 -0.0725  0.0079
 5725TIP3    H138666   3.782   4.986   3.358  1.3844  0.2230  0.2860
 5725TIP3    H238667   3.827   4.924   3.228  3.1548 -0.6543  1.2809
 5726TIP3   OH238668   2.119   1.096  15.692  0.4677  0.4120  0.2778
 5726TIP3    H138669   2.024   1.105  15.693  0.5016  0.8590 -0.0133
 5726TIP3    H238670   2.152   1.185  15.678  0.9396  0.3082  0.6758
 5727TIP3   OH238671   1.968   5.897  15.224 -0.1694  0.1209  0.0756
 5727TIP3    H138672   2.013   5.829  15.275  0.1795 -1.8388 -2.6240
 5727TIP3    H238673   1.912   5.849  15.164 -0.0724  2.2141 -1.8218
 5728TIP3   OH238674   2.392   5.529   2.209  0.2169 -0.3878  0.2744
 5728TIP3    H138675   2.362   5.439   2.222  0.3497 -1.1431 -3.4841
 5728TIP3    H238676   2.488   5.523   2.217  0.2754 -0.7463 -0.6061
 5729TIP3   OH238677   0.145   5.564  13.940  0.9721 -0.5907 -0.7171
 5729TIP3    H138678   0.121   5.485  13.893  2.2717 -2.2910  1.3049
 5729TIP3    H238679   0.145   5.633  13.873 -3.8544 -1.3899 -1.9314
 5730TIP3   OH238680   3.777   1.138   2.697 -0.2830  0.6554  0.1983
 5730TIP3    H138681   3.790   1.213   2.755  1.0392  0.6035  0.0060
 5730TIP3    H238682   3.712   1.084   2.742  1.0772  0.3560  1.9265
 5731TIP3   OH238683   0.676   4.123  15.608 -0.6005  0.8418  0.0956
 5731TIP3    H138684   0.655   4.086  15.522  1.2873  0.6916 -0.3512
 5731TIP3    H238685   0.768   4.148  15.601 -0.2589  0.3749  2.2374
 5732TIP3   OH238686   6.448   5.633  12.193  0.6177 -0.0349 -0.4359
 5732TIP3    H138687   6.459   5.713  12.142  0.9582  0.2609  0.0879
 5732TIP3    H238688   6.489   5.565  12.139 -1.6659 -0.3266 -1.9584
 5733TIP3   OH238689   4.495   1.139  13.773  0.5231  0.4472 -0.0501
 5733TIP3    H138690   4.565   1.143  13.707 -0.0330  0.8915 -0.6208
 5733TIP3    H238691   4.433   1.075  13.738  1.9320 -2.1223  1.7684
 5734TIP3   OH238692   0.467   3.534  12.797  0.0573 -0.6417 -0.2792
 5734TIP3    H138693   0.419   3.607  12.837  1.4098 -0.6785  1.5577
 5734TIP3    H238694   0.399   3.469  12.777 -0.9270  0.2651  0.0145
 5735TIP3   OH238695   5.572   4.575  15.256  0.1886  0.0639 -0.1313
 5735TIP3    H138696   5.509   4.522  15.208 -0.1195  1.4779 -1.3727
 5735TIP3    H238697   5.559   4.552  15.348 -1.7787 -0.0661 -0.4048
 5736TIP3   OH238698   3.089   5.472   6.145 -0.0507 -0.0892  0.0114
 5736TIP3    H138699   3.012   5.423   6.116 -0.7362  1.2124 -0.4637
 5736TIP3    H238700   3.163   5.415   6.124 -0.8826 -1.5333  0.8305
 5737TIP3   OH238701   3.236   0.166  15.491  0.0382 -0.4591  0.5668
 5737TIP3    H138702   3.184   0.087  15.506 -0.5884 -0.4464 -1.2082
 5737TIP3    H238703   3.184   0.216  15.428  0.8263  0.9749  1.0207
 5738TIP3   OH238704   2.552   1.304   3.685  0.2217  0.2452 -0.0551
 5738TIP3    H138705   2.611   1.250   3.738  0.1393 -0.5502 -0.7573
 5738TIP3    H238706   2.610   1.347   3.622 -0.0542 -1.8200 -1.8496
 5739TIP3   OH238707   4.928   0.935   0.248 -0.4180 -0.1975  0.3045
 5739TIP3    H138708   4.943   0.851   0.203  0.4380 -0.0322  0.2631
 5739TIP3    H238709   4.842   0.963   0.219 -0.3841 -0.6908 -0.2876
 5740TIP3   OH238710   3.219   6.636  13.054  0.4373 -0.2613  0.1115
 5740TIP3    H138711   3.216   6.678  12.968  1.4289  1.6912  0.9571
 5740TIP3    H238712   3.133   6.594  13.063  0.3788 -0.6567 -1.8743
 5741TIP3   OH238713   3.144   4.667   6.028 -0.9698 -0.2642  0.0858
 5741TIP3    H138714   3.147   4.586   6.079 -1.2370  0.1819  0.8240
 5741TIP3    H238715   3.213   4.722   6.065  0.7013 -0.9501 -1.8356
 5742TIP3   OH238716   5.616   2.744  11.214  0.3236  0.1924  0.3491
 5742TIP3    H138717   5.577   2.716  11.297 -2.4525 -0.8752 -1.1682
 5742TIP3    H238718   5.710   2.732  11.226  0.0674  0.4290  3.4138
 5743TIP3   OH238719   1.458   0.263   3.029 -0.2352 -0.1980  0.5816
 5743TIP3    H138720   1.403   0.337   3.056  1.3579  0.8158  1.1531
 5743TIP3    H238721   1.486   0.223   3.112 -0.6567 -1.1342  0.2836
 5744TIP3   OH238722   2.515   5.814   5.559  0.1685  0.2039  0.6670
 5744TIP3    H138723   2.536   5.864   5.480  2.7057 -0.5017  0.8260
 5744TIP3    H238724   2.537   5.873   5.631  0.6686 -0.1878  0.8403
 5745TIP3   OH238725   4.178   5.556   1.271  0.0043 -0.4880  0.3705
 5745TIP3    H138726   4.160   5.468   1.240  1.6826 -0.8970  0.4520
 5745TIP3    H238727   4.093   5.592   1.295 -0.8872 -1.5288 -1.1021
 5746TIP3   OH238728   1.864   6.729   2.174 -0.1687 -0.2853  0.0083
 5746TIP3    H138729   1.817   6.812   2.184  0.6596  0.1761  0.1554
 5746TIP3    H238730   1.827   6.691   2.094  0.5285  0.9760 -0.9575
 5747TIP3   OH238731   6.728   3.337  14.555 -0.4458  0.2430  0.1319
 5747TIP3    H138732   6.817   3.345  14.519  0.5657 -1.2401  2.0944
 5747TIP3    H238733   6.673   3.322  14.478  1.2632 -0.4503 -1.0371
 5748TIP3   OH238734   4.041   0.614   0.738  0.1116 -0.1096 -0.4445
 5748TIP3    H138735   3.949   0.589   0.738  0.0477  0.0887  0.5891
 5748TIP3    H238736   4.053   0.660   0.655 -0.6712 -0.3008 -0.6740
 5749TIP3   OH238737   5.442   3.266   2.630  0.1864  0.0996  0.4225
 5749TIP3    H138738   5.495   3.338   2.598  2.0018 -1.1559  0.4832
 5749TIP3    H238739   5.386   3.305   2.697  0.5405  1.5982 -0.1360
 5750TIP3   OH238740   5.141   1.583   4.523  0.2828  0.3145  0.2674
 5750TIP3    H138741   5.199   1.654   4.496  1.4356 -0.5664  0.3841
 5750TIP3    H238742   5.199   1.510   4.541 -1.0580 -1.7368 -2.9507
 5751TIP3   OH238743   6.342   6.470  16.010  1.1119 -0.3017  0.0655
 5751TIP3    H138744   6.381   6.479  16.097  0.1910  2.0499  0.3138
 5751TIP3    H238745   6.253   6.502  16.021  1.3804  1.3864 -1.9941
 5752TIP3   OH238746   1.951   0.078   1.634 -0.2625  0.0889 -0.2551
 5752TIP3    H138747   1.914   0.107   1.718 -2.3804 -0.6980 -0.8525
 5752TIP3    H238748   1.956  -0.017   1.642  1.2029  0.1341 -0.4098
 5753TIP3   OH238749   4.282   3.300  10.488 -0.1624  0.6231  0.1825
 5753TIP3    H138750   4.274   3.218  10.538  0.8320  0.9814  0.9821
 5753TIP3    H238751   4.202   3.349  10.508 -1.0806 -0.4199 -0.8394
 5754TIP3   OH238752   2.623   5.135   1.304  0.1003  0.3292 -0.2870
 5754TIP3    H138753   2.586   5.076   1.239  3.5207 -0.9382 -1.3168
 5754TIP3    H238754   2.640   5.216   1.256  0.5226  0.1921 -0.3720
 5755TIP3   OH238755   2.647   1.724  17.078 -0.0262 -0.4486  0.0476
 5755TIP3    H138756   2.579   1.708  17.143  2.0951 -0.1193  2.5104
 5755TIP3    H238757   2.656   1.820  17.075  0.7905 -0.5153  0.2611
 5756TIP3   OH238758   5.807   4.292   4.502  0.3428  0.4211  0.2305
 5756TIP3    H138759   5.895   4.307   4.538  0.5940  0.1330 -0.2505
 5756TIP3    H238760   5.793   4.198   4.513 -0.2100  0.5898  0.9777
 5757TIP3   OH238761   2.596   6.016  16.045 -0.8113 -0.0208 -0.0534
 5757TIP3    H138762   2.514   6.004  16.092 -0.7881 -0.6200 -0.1537
 5757TIP3    H238763   2.575   6.072  15.971 -0.9703  0.4472  0.3447
 5758TIP3   OH238764   6.201   1.284   0.874  0.1713 -0.0940  0.3842
 5758TIP3    H138765   6.230   1.361   0.921 -1.4523  1.4854 -1.0404
 5758TIP3    H238766   6.275   1.259   0.819  0.0080  1.8864 -0.8176
 5759TIP3   OH238767   5.815   3.553   2.331 -0.7058  0.2222 -0.2113
 5759TIP3    H138768   5.796   3.638   2.291  2.1793  0.6348 -0.9038
 5759TIP3    H238769   5.893   3.569   2.385 -1.9173 -1.3191  2.1953
 5760TIP3   OH238770   0.022   3.117  14.336 -0.4154  0.1394  0.2295
 5760TIP3    H138771   0.050   3.179  14.269 -1.1268  0.9795  0.6964
 5760TIP3    H238772   0.060   3.150  14.417  0.8989 -1.1712  0.1957
 5761TIP3   OH238773   1.273   4.005  15.496 -0.4044  0.0438  0.2796
 5761TIP3    H138774   1.257   3.917  15.530  1.4119 -0.3636  0.1810
 5761TIP3    H238775   1.237   4.003  15.407 -0.4318 -0.5830  0.2966
 5762TIP3   OH238776   5.233   0.335   1.857  0.0365  0.4105  0.2078
 5762TIP3    H138777   5.161   0.317   1.798  0.1402  2.4062 -0.6067
 5762TIP3    H238778   5.209   0.291   1.939 -1.8135  0.5513 -0.2279
 5763TIP3   OH238779   5.263   2.922  15.666  0.4726 -0.2947  0.1573
 5763TIP3    H138780   5.202   2.849  15.671  0.1363 -0.1127 -0.9349
 5763TIP3    H238781   5.345   2.882  15.635  0.3851 -0.2715 -0.1105
 5764TIP3   OH238782   2.098   0.076   6.315  0.1837  0.4224  0.2584
 5764TIP3    H138783   2.029   0.070   6.382 -0.4253  1.2091 -0.2720
 5764TIP3    H238784   2.067   0.144   6.256  0.7200 -0.2465 -0.8167
 5765TIP3   OH238785   6.672   5.777   1.569 -0.7100 -0.5378 -0.4607
 5765TIP3    H138786   6.700   5.695   1.610 -1.9979 -1.7785 -1.9570
 5765TIP3    H238787   6.753   5.814   1.534  0.2137 -0.1270  1.8794
 5766TIP3   OH238788   1.594   4.016   2.929 -0.0044  0.0850 -0.0764
 5766TIP3    H138789   1.571   4.000   2.838  0.0384  0.8704 -0.2336
 5766TIP3    H238790   1.620   4.108   2.932  2.1974 -0.4771  0.2721
 5767TIP3   OH238791   5.315   4.330  12.201 -0.1191 -0.0766  0.5733
 5767TIP3    H138792   5.351   4.373  12.279 -0.2474  0.4438  0.3528
 5767TIP3    H238793   5.358   4.373  12.128 -1.3420  0.7348  0.2900
 5768TIP3   OH238794   4.009   1.061   0.805 -0.3717  0.2608  0.2726
 5768TIP3    H138795   4.025   1.144   0.850 -2.8292  0.7463  0.3944
 5768TIP3    H238796   3.962   1.008   0.870 -0.0729 -0.7067 -0.2824
 5769TIP3   OH238797   5.318   1.525  13.061 -0.1818  0.0854  0.6069
 5769TIP3    H138798   5.315   1.537  12.966 -3.3627  0.4303  0.6494
 5769TIP3    H238799   5.332   1.613  13.096  2.3285 -0.2056  0.5267
 5770TIP3   OH238800   6.113   5.839  16.360 -0.1852 -0.0107  0.2084
 5770TIP3    H138801   6.182   5.807  16.418 -1.3372 -2.7280  0.2362
 5770TIP3    H238802   6.154   5.910  16.311  2.0620 -0.3462  1.4563
 5771TIP3   OH238803   2.751   0.235  15.749  0.2115 -0.1881 -0.5334
 5771TIP3    H138804   2.674   0.290  15.736  0.9585  1.2120  0.7016
 5771TIP3    H238805   2.799   0.239  15.666 -1.7444 -2.3298 -1.8827
 5772TIP3   OH238806   1.262   3.349   6.136  0.4881 -0.0463 -0.3495
 5772TIP3    H138807   1.172   3.340   6.107  0.9579 -2.4653 -1.3125
 5772TIP3    H238808   1.282   3.265   6.178  2.1400  0.6138  0.2736
 5773TIP3   OH238809   5.759   2.571  14.978  0.5643  0.2881 -0.0217
 5773TIP3    H138810   5.831   2.510  14.993 -0.1911 -0.4968  0.4824
 5773TIP3    H238811   5.788   2.626  14.905  0.6840 -1.5594 -1.4254
 5774TIP3   OH238812   4.791   2.074   2.151  0.0516  0.4225  0.0445
 5774TIP3    H138813   4.809   2.138   2.082  2.3143 -1.8509 -1.6896
 5774TIP3    H238814   4.696   2.077   2.164 -0.0890  2.9237 -1.0817
 5775TIP3   OH238815   4.933   6.816   4.715 -0.0037  0.6452  0.4971
 5775TIP3    H138816   4.895   6.823   4.628  0.0472  0.9905  0.4992
 5775TIP3    H238817   5.024   6.792   4.700 -0.5523 -1.7224  0.5371
 5776TIP3   OH238818   2.700   4.144  13.030 -0.0963 -0.9272 -0.7172
 5776TIP3    H138819   2.683   4.116  12.940 -1.8830 -1.8142 -0.1584
 5776TIP3    H238820   2.613   4.157  13.068  0.6307  0.0550  0.7086
 5777TIP3   OH238821   0.505   4.462  15.047 -0.4651  0.5457  0.3776
 5777TIP3    H138822   0.542   4.411  14.975  0.1136  0.5573  0.6603
 5777TIP3    H238823   0.417   4.485  15.018 -0.2753  0.4567 -0.2765
 5778TIP3   OH238824   2.052   1.588  11.696 -0.1967  0.3845  0.5171
 5778TIP3    H138825   2.147   1.594  11.686 -0.2104 -1.5300 -1.6400
 5778TIP3    H238826   2.017   1.661  11.646  0.1132  0.1156 -0.0932
 5779TIP3   OH238827   5.762   0.084  11.650 -0.5484  0.1112 -0.1507
 5779TIP3    H138828   5.699   0.155  11.639 -0.5172  0.0676 -0.6384
 5779TIP3    H238829   5.743   0.024  11.578  0.2690  0.2725 -0.5122
 5780TIP3   OH238830   5.804   5.015  14.644  0.6334  0.1658 -0.0435
 5780TIP3    H138831   5.862   5.087  14.618 -0.5371  0.7303 -1.2423
 5780TIP3    H238832   5.839   4.939  14.599  1.9605 -0.0758  1.3377
 5781TIP3   OH238833   1.475   4.216  14.172 -0.6325  0.2847  0.3238
 5781TIP3    H138834   1.476   4.185  14.081  0.7003 -0.9194  0.6978
 5781TIP3    H238835   1.483   4.311  14.165  2.4004  0.0647 -0.8540
 5782TIP3   OH238836   0.215   3.547   4.239  0.2481  0.1268 -0.0885
 5782TIP3    H138837   0.123   3.572   4.227  0.3604 -0.5374 -2.9698
 5782TIP3    H238838   0.259   3.629   4.263 -0.7510  0.9173 -0.8716
 5783TIP3   OH238839   4.790   3.391  15.570 -0.5464  0.1026  0.2224
 5783TIP3    H138840   4.808   3.304  15.534 -0.4490 -0.0680  0.6808
 5783TIP3    H238841   4.871   3.440  15.555 -0.2950 -0.1500  0.7488
 5784TIP3   OH238842   0.679   1.163   3.145  0.2006  0.0637  0.0849
 5784TIP3    H138843   0.671   1.067   3.141 -1.3614  0.1032  1.1163
 5784TIP3    H238844   0.622   1.188   3.218  1.6046  1.6822  0.6905
 5785TIP3   OH238845   3.635   4.797  15.293  0.0714  0.6574  0.3870
 5785TIP3    H138846   3.561   4.847  15.258 -1.2016  0.0039  1.9994
 5785TIP3    H238847   3.712   4.848  15.268 -0.8671  1.1437 -1.7125
 5786TIP3   OH238848   0.044   3.305   4.010  0.0674  0.0794 -0.0022
 5786TIP3    H138849  -0.006   3.240   4.058 -0.2504 -1.1539 -1.8952
 5786TIP3    H238850   0.114   3.331   4.070  0.8715 -2.8274  0.4673
 5787TIP3   OH238851   2.374   6.081   3.942 -0.5492  0.1429  0.0962
 5787TIP3    H138852   2.329   6.037   4.014 -1.2975 -1.5104 -1.2837
 5787TIP3    H238853   2.458   6.035   3.936 -0.8689 -0.3689 -0.6355
 5788TIP3   OH238854   0.688   6.036  16.840  0.2833  0.2273  0.3127
 5788TIP3    H138855   0.748   6.100  16.803  1.8408 -0.5263  1.4292
 5788TIP3    H238856   0.603   6.058  16.802  1.0623  1.9595 -0.5253
 5789TIP3   OH238857   3.912   3.800   4.416  0.1758  0.9273 -0.0676
 5789TIP3    H138858   3.904   3.758   4.501  0.1904 -0.8937 -0.9177
 5789TIP3    H238859   3.822   3.815   4.388  0.1749  2.1505  0.5329
 5790TIP3   OH238860   3.414   3.679  17.213 -0.0416  0.1637  0.3955
 5790TIP3    H138861   3.337   3.736  17.217 -1.4859 -1.6901  0.4207
 5790TIP3    H238862   3.488   3.739  17.209 -1.4127  2.0377  1.4445
 5791TIP3   OH238863   3.458   3.557   0.305 -0.1757 -0.2656  0.3206
 5791TIP3    H138864   3.385   3.620   0.310  0.3725  0.5941 -1.5396
 5791TIP3    H238865   3.458   3.528   0.214  1.3888 -0.7775  0.4613
 5792TIP3   OH238866   2.791   6.465   5.565  0.0876 -0.0065  0.2938
 5792TIP3    H138867   2.796   6.420   5.649  1.5322  1.8940  1.2955
 5792TIP3    H238868   2.878   6.456   5.526 -0.5298 -0.7702 -0.9789
 5793TIP3   OH238869   4.389   3.774   2.693 -0.1651 -0.3073  0.3132
 5793TIP3    H138870   4.347   3.781   2.606 -1.2732  0.7613  0.8919
 5793TIP3    H238871   4.401   3.680   2.706  0.6904 -0.4636 -1.2911
 5794TIP3   OH238872   6.389   5.417   2.627 -0.0374 -0.1621 -0.4326
 5794TIP3    H138873   6.311   5.409   2.681  0.1494  0.9973  0.0416
 5794TIP3    H238874   6.361   5.392   2.539 -0.9228  0.1845 -0.2503
 5795TIP3   OH238875   6.566   1.183  16.597 -0.5148 -0.5547 -0.2460
 5795TIP3    H138876   6.575   1.157  16.689  3.9474 -2.0706 -0.8874
 5795TIP3    H238877   6.495   1.127  16.564  0.3499 -2.7905  1.4425
 5796TIP3   OH238878   2.529   0.869   3.001 -0.2956  0.0105 -0.7189
 5796TIP3    H138879   2.554   0.841   3.089 -0.6413 -0.5190 -0.7843
 5796TIP3    H238880   2.570   0.804   2.943  0.1693  0.5173 -0.9699
 5797TIP3   OH238881   0.293   1.904  15.810  0.1848  0.3560 -0.3388
 5797TIP3    H138882   0.240   1.961  15.866  0.2087  0.5233 -0.4849
 5797TIP3    H238883   0.371   1.886  15.861 -0.1168 -0.0856 -0.0243
 5798TIP3   OH238884   2.072   6.284   1.575  0.3132  0.3507 -0.3470
 5798TIP3    H138885   2.078   6.378   1.560  3.9964  0.5583  1.4649
 5798TIP3    H238886   2.000   6.274   1.638 -0.0757  1.9495 -0.5067
 5799TIP3   OH238887   5.452   2.647  16.362 -0.6497 -0.2196  0.0537
 5799TIP3    H138888   5.524   2.623  16.303 -0.7981  0.9330 -0.6259
 5799TIP3    H238889   5.495   2.696  16.433 -0.2470 -2.8588  1.8060
 5800TIP3   OH238890   2.981   6.612  13.904 -0.5684 -0.2590 -0.7584
 5800TIP3    H138891   3.072   6.589  13.884 -0.3366 -0.0691  0.0712
 5800TIP3    H238892   2.941   6.530  13.932 -0.8403 -0.4827 -1.7412
 5801TIP3   OH238893   1.917   3.586  15.457 -1.0683 -0.2352  0.5776
 5801TIP3    H138894   1.941   3.654  15.393 -0.8151 -0.2581  0.6480
 5801TIP3    H238895   1.997   3.535  15.468 -0.9092  0.2009  1.4526
 5802TIP3   OH238896   6.771   3.374  16.243  0.5466  0.0856  0.8000
 5802TIP3    H138897   6.794   3.464  16.265 -0.3757  0.5922 -0.2559
 5802TIP3    H238898   6.796   3.364  16.151  0.2878 -0.6192  0.7957
 5803TIP3   OH238899   1.357   0.537  16.354 -0.3651 -0.4287  0.0558
 5803TIP3    H138900   1.274   0.529  16.307 -0.5073 -2.0632  0.5363
 5803TIP3    H238901   1.369   0.453  16.398  1.0336  0.1462  0.8639
 5804TIP3   OH238902   3.555   2.162   1.195 -0.1799  0.0317 -0.4088
 5804TIP3    H138903   3.552   2.124   1.107 -0.7129 -1.0975  0.0803
 5804TIP3    H238904   3.643   2.199   1.201  0.6314 -1.7287 -0.6806
 5805TIP3   OH238905   6.086   1.478   5.946  0.0718  0.1337 -0.6620
 5805TIP3    H138906   6.023   1.419   5.987 -0.0169  1.0385  0.5885
 5805TIP3    H238907   6.064   1.564   5.981  1.1940  0.6656 -1.1946
 5806TIP3   OH238908   2.772   2.362   0.390 -0.1148  0.3222 -0.7395
 5806TIP3    H138909   2.733   2.401   0.468  0.9449 -0.9241  0.4661
 5806TIP3    H238910   2.709   2.380   0.320 -1.0477  1.5540  0.3646
 5807TIP3   OH238911   6.558   0.047  11.775 -0.0852  0.4339  0.2118
 5807TIP3    H138912   6.492   0.117  11.780 -0.2262  0.3732 -0.5984
 5807TIP3    H238913   6.572   0.035  11.681  0.5578 -0.0516  0.3664
 5808TIP3   OH238914   4.745   4.417  11.480 -0.1772 -0.2883  0.2026
 5808TIP3    H138915   4.803   4.341  11.469 -0.5023 -0.5377  0.1754
 5808TIP3    H238916   4.660   4.378  11.502 -0.0922  0.1070  1.2926
 5809TIP3   OH238917   5.716   0.291   0.716  0.4732  0.4225  0.4920
 5809TIP3    H138918   5.654   0.236   0.670  0.0361  0.2058  1.3174
 5809TIP3    H238919   5.702   0.379   0.681  2.0771 -0.1414 -1.7946
 5810TIP3   OH238920   4.947   4.007   2.139 -0.7800  1.0153  0.2909
 5810TIP3    H138921   4.959   4.083   2.195 -2.1726  0.9418  0.7405
 5810TIP3    H238922   4.861   4.021   2.098  0.1560  1.0140 -1.7705
 5811TIP3   OH238923   3.185   3.986   5.077 -0.0997 -0.0595  0.4923
 5811TIP3    H138924   3.134   3.960   5.001 -0.3885 -2.3096  1.3818
 5811TIP3    H238925   3.263   3.930   5.074  0.2193  0.3134  1.4578
 5812TIP3   OH238926   0.809   6.707   4.277 -0.8935  0.2417  0.3150
 5812TIP3    H138927   0.890   6.658   4.259 -0.8294  0.4060  0.1574
 5812TIP3    H238928   0.839   6.796   4.295 -1.1075  0.5231 -0.6514
 5813TIP3   OH238929   6.345   5.215  15.404 -0.0361  0.4500 -0.2549
 5813TIP3    H138930   6.287   5.191  15.331  1.0802 -0.4696 -0.8637
 5813TIP3    H238931   6.300   5.180  15.482 -0.6576  0.3992 -0.6255
 5814TIP3   OH238932   4.974   5.662  13.054 -0.1123 -0.0272  0.3454
 5814TIP3    H138933   5.041   5.723  13.023 -0.0548  0.7296  1.8420
 5814TIP3    H238934   4.902   5.672  12.991  1.1078 -0.7933 -1.2293
 5815TIP3   OH238935   1.507   0.043   6.111  0.3858  0.0511  0.3403
 5815TIP3    H138936   1.528   0.080   6.197 -0.9626  2.1100 -0.1395
 5815TIP3    H238937   1.574   0.079   6.052  2.5513 -2.9621  0.7654
 5816TIP3   OH238938   3.945   3.770  10.455  0.2210  0.3147  0.1457
 5816TIP3    H138939   4.026   3.729  10.425 -0.3710 -0.9148  0.1763
 5816TIP3    H238940   3.876   3.727  10.405 -0.5146  0.4820  0.9912
 5817TIP3   OH238941   0.867   0.409   1.241 -0.2606 -0.4652 -0.1046
 5817TIP3    H138942   0.931   0.339   1.248 -0.6156 -0.7113  0.8196
 5817TIP3    H238943   0.812   0.399   1.319  1.8116  2.9558  2.0620
 5818TIP3   OH238944   5.087   4.549   4.274 -0.4150 -0.1368  0.2149
 5818TIP3    H138945   5.073   4.477   4.212  0.7623  0.5015 -0.8305
 5818TIP3    H238946   5.085   4.507   4.360  0.0873 -1.3987 -0.3631
 5819TIP3   OH238947   0.977   0.685   3.024 -0.7497  0.7728  0.3896
 5819TIP3    H138948   0.882   0.683   3.017 -0.8943 -0.6104  1.9960
 5819TIP3    H238949   0.995   0.649   3.111  1.3924 -3.3914 -1.4899
 5820TIP3   OH238950   0.558   4.090  14.555 -0.3576 -0.2228 -0.7370
 5820TIP3    H138951   0.479   4.128  14.593  1.1889 -0.3499  3.0370
 5820TIP3    H238952   0.602   4.164  14.511 -0.8058  0.7310  0.3720
 5821TIP3   OH238953   4.625   2.290  11.721 -0.1194  0.0502 -0.8090
 5821TIP3    H138954   4.683   2.226  11.763  2.4885  1.7139 -1.5983
 5821TIP3    H238955   4.562   2.314  11.788  1.4121 -0.3292  0.8338
 5822TIP3   OH238956   3.417   5.468  15.625 -0.4566 -0.1865 -0.5413
 5822TIP3    H138957   3.507   5.484  15.654 -0.9675  1.6660  0.1905
 5822TIP3    H238958   3.404   5.528  15.553 -0.4502 -2.0444 -2.1752
 5823TIP3   OH238959   6.300   4.160  15.612  0.2683  0.0436 -0.2653
 5823TIP3    H138960   6.302   4.254  15.596  2.9896 -0.0371 -0.8941
 5823TIP3    H238961   6.274   4.152  15.704  1.8569  1.5648  0.3851
 5824TIP3   OH238962   6.087   5.415  15.138  0.2279 -0.2466  0.2210
 5824TIP3    H138963   6.023   5.404  15.068  0.4959  0.1669 -0.0908
 5824TIP3    H238964   6.104   5.509  15.140 -0.6212 -0.0952  1.5983
 5825TIP3   OH238965   2.781   2.616   2.314 -0.1990 -0.4748  0.0270
 5825TIP3    H138966   2.858   2.575   2.275 -0.2656  0.1704 -0.8350
 5825TIP3    H238967   2.738   2.546   2.362 -0.5773 -1.5616 -1.7906
 5826TIP3   OH238968   3.758   3.972  17.109 -0.1676 -0.1575 -0.8316
 5826TIP3    H138969   3.827   3.948  17.171  0.3415  0.7700 -1.0217
 5826TIP3    H238970   3.687   3.910  17.127  1.1200 -1.8637 -1.3893
 5827TIP3   OH238971   4.024   3.235  13.472 -0.0654  0.2634  0.6807
 5827TIP3    H138972   4.034   3.325  13.504  0.1053  0.3001  0.5299
 5827TIP3    H238973   3.957   3.241  13.403 -0.1126  0.2609  0.7264
 5828TIP3   OH238974   4.504   6.601  16.321  0.6572  0.3400 -0.1303
 5828TIP3    H138975   4.504   6.672  16.257  0.6904 -0.2805 -0.8186
 5828TIP3    H238976   4.596   6.585  16.341  0.6261  1.0591  0.6800
 5829TIP3   OH238977   3.194   3.018  12.982 -0.5636 -0.0643 -0.1580
 5829TIP3    H138978   3.252   2.945  13.003 -1.4183 -1.0593 -1.1891
 5829TIP3    H238979   3.211   3.036  12.890 -2.4616 -0.9315 -0.7233
 5830TIP3   OH238980   6.475   0.804   4.978 -0.5307 -0.6573  0.1168
 5830TIP3    H138981   6.507   0.715   4.965  1.0564 -0.1189  0.0127
 5830TIP3    H238982   6.551   0.859   4.956 -1.0020  0.6481  1.6051
 5831TIP3   OH238983   6.433   3.958  12.087  0.6649 -0.3184 -0.4354
 5831TIP3    H138984   6.520   3.989  12.111 -0.5166  1.7453  1.5548
 5831TIP3    H238985   6.379   4.037  12.081 -0.7596 -1.3485 -3.4219
 5832TIP3   OH238986   4.254   6.278   2.074  0.1399 -0.0713 -0.3870
 5832TIP3    H138987   4.325   6.289   2.010  1.0219  0.3783  0.6416
 5832TIP3    H238988   4.264   6.188   2.105 -1.4035 -0.9043 -2.1460
 5833TIP3   OH238989   1.853   1.103   0.552 -0.3125  0.3431 -0.3000
 5833TIP3    H138990   1.884   1.058   0.473  0.2797  1.0199 -0.4678
 5833TIP3    H238991   1.774   1.056   0.578  0.3618 -0.8831 -0.3908
 5834TIP3   OH238992   0.101   1.266   0.818  0.2346 -0.1777  0.2484
 5834TIP3    H138993   0.067   1.352   0.842 -1.9667 -0.6657 -0.8185
 5834TIP3    H238994   0.161   1.283   0.745 -0.3873  0.4439 -0.1254
 5835TIP3   OH238995   2.801   1.081  16.466 -0.2438 -0.2645  0.8924
 5835TIP3    H138996   2.792   1.064  16.560 -0.6806 -1.8504  0.5877
 5835TIP3    H238997   2.894   1.069  16.448 -0.6552 -3.6126  0.5093
 5836TIP3   OH238998   2.632   5.890  15.167  0.1083 -0.3296  0.4610
 5836TIP3    H138999   2.682   5.815  15.135 -0.8262  0.5472 -3.7263
 5836TIP3    H239000   2.552   5.852  15.205  0.9511 -1.4872  1.1172
 5837TIP3   OH239001   6.800   4.890   5.625  0.3338 -0.5590 -0.0331
 5837TIP3    H139002   6.739   4.894   5.699  1.7026  1.5581  1.0894
 5837TIP3    H239003   6.800   4.799   5.598  0.6407 -1.6955  3.3692
 5838TIP3   OH239004   0.287   5.216   2.154  0.0967 -0.6549  0.1046
 5838TIP3    H139005   0.216   5.201   2.216  0.7580  1.9706  1.6471
 5838TIP3    H239006   0.243   5.224   2.069 -1.1279 -1.6123  0.6142
 5839TIP3   OH239007   5.157   6.044  15.495 -0.6021 -0.1011  0.7328
 5839TIP3    H139008   5.192   5.983  15.430  2.0509  1.1313  0.8707
 5839TIP3    H239009   5.179   6.005  15.580  0.1551  0.4996  0.8252
 5840TIP3   OH239010   0.743   4.075  12.385  0.0843  0.5272 -0.0934
 5840TIP3    H139011   0.702   3.993  12.413  0.5636 -0.0419 -1.0200
 5840TIP3    H239012   0.827   4.077  12.430  0.3189  0.2259 -0.5163
 5841TIP3   OH239013   1.726   1.047  14.585 -1.0154  0.1140  0.2743
 5841TIP3    H139014   1.705   1.093  14.666  1.0768  0.4424  0.6769
 5841TIP3    H239015   1.748   1.116  14.522  2.0570 -0.2203  0.8572
 5842TIP3   OH239016   3.383   5.224  10.867 -0.6742 -0.5660 -0.4604
 5842TIP3    H139017   3.382   5.146  10.922 -3.3802  1.1252  2.2836
 5842TIP3    H239018   3.472   5.230  10.834  0.4439 -3.1392  1.7446
 5843TIP3   OH239019   3.717   6.791  13.479 -0.6133  0.3880 -0.2573
 5843TIP3    H139020   3.695   6.881  13.457 -0.3820  1.0378  1.9121
 5843TIP3    H239021   3.786   6.798  13.545  1.4691 -1.4669 -2.0580
 5844TIP3   OH239022   0.920   4.708   4.756  0.3497 -0.2088 -0.2063
 5844TIP3    H139023   0.951   4.789   4.795 -1.4740 -0.1911  1.3424
 5844TIP3    H239024   0.835   4.730   4.718  0.2221 -1.2027 -0.5434
 5845TIP3   OH239025   0.558   2.543   5.983  0.1782  0.1828 -0.0733
 5845TIP3    H139026   0.630   2.551   6.046  0.3965 -0.8539 -0.1822
 5845TIP3    H239027   0.536   2.450   5.984 -0.8669  0.4197 -0.3743
 5846TIP3   OH239028   6.693   1.736   2.313  0.2049  0.3044 -0.6070
 5846TIP3    H139029   6.641   1.777   2.244 -0.1478 -0.6238 -0.9112
 5846TIP3    H239030   6.628   1.707   2.378  0.4904  0.6816 -0.1459
 5847TIP3   OH239031   3.935   2.653   0.442 -0.0182 -0.0097 -0.0687
 5847TIP3    H139032   3.880   2.575   0.440 -1.1057  0.7413 -1.1634
 5847TIP3    H239033   4.002   2.634   0.508 -0.0305 -1.9924 -0.5652
 5848TIP3   OH239034   5.690   4.881   1.959  0.2072  0.2015 -0.4659
 5848TIP3    H139035   5.698   4.788   1.978  1.4260 -0.0522 -2.0429
 5848TIP3    H239036   5.598   4.892   1.934 -0.1710 -0.3725  0.5844
 5849TIP3   OH239037   3.267   2.844   4.641 -0.8672  0.7823 -0.3049
 5849TIP3    H139038   3.208   2.770   4.627  0.4110 -0.2846 -0.2686
 5849TIP3    H239039   3.274   2.887   4.556 -2.5576  1.6309 -0.0570
 5850TIP3   OH239040   3.371   1.950  14.645  0.3022 -0.4082  0.1196
 5850TIP3    H139041   3.414   1.865  14.643  1.8059  0.3338 -1.7401
 5850TIP3    H239042   3.345   1.961  14.737  2.5226 -1.6877  0.9831
 5851TIP3   OH239043   1.292   4.919  16.013  0.1407  0.6713 -0.0795
 5851TIP3    H139044   1.371   4.866  16.008  0.9162  1.8210 -0.6038
 5851TIP3    H239045   1.269   4.921  16.106  0.7192  0.3145  0.0743
 5852TIP3   OH239046   6.034   6.468   2.889 -0.1257  0.0202  0.7520
 5852TIP3    H139047   6.056   6.375   2.884  1.4926  0.3420  1.1419
 5852TIP3    H239048   6.076   6.506   2.812 -0.9814  0.3965  0.4669
 5853TIP3   OH239049   5.924   0.510   3.258  0.0605  0.3937  0.0429
 5853TIP3    H139050   5.903   0.537   3.168 -1.0583 -0.5589 -0.0134
 5853TIP3    H239051   5.951   0.419   3.250  0.6954  0.5302  0.5920
 5854TIP3   OH239052   5.931   5.648  10.666  0.0584 -0.3197  0.1328
 5854TIP3    H139053   5.956   5.638  10.574  0.4015  0.6911  0.0945
 5854TIP3    H239054   5.863   5.716  10.665 -2.3575 -2.6042  0.3057
 5855TIP3   OH239055   1.453   0.974  13.895 -0.2380  0.0124  0.0466
 5855TIP3    H139056   1.497   1.029  13.830  1.3073 -2.6834 -1.3786
 5855TIP3    H239057   1.511   0.978  13.972  1.8015 -2.1642 -1.2343
 5856TIP3   OH239058   4.257   1.168  16.867 -0.2495 -0.0005  0.2359
 5856TIP3    H139059   4.227   1.089  16.912 -3.7202  1.0705  0.1330
 5856TIP3    H239060   4.176   1.215  16.845  1.5594  2.4824 -1.7435
 5857TIP3   OH239061   1.711   5.237  12.383  0.1100 -0.0709  0.2168
 5857TIP3    H139062   1.740   5.175  12.449 -0.0475  0.7746  1.1018
 5857TIP3    H239063   1.736   5.197  12.300 -0.6700 -1.6564  0.7216
 5858TIP3   OH239064   2.627   1.841   6.295  0.1884  0.0066  0.6555
 5858TIP3    H139065   2.575   1.908   6.340 -0.6370  0.6845 -1.2032
 5858TIP3    H239066   2.565   1.798   6.236  1.1174 -1.1928  0.5170
 5859TIP3   OH239067   5.882   5.896   2.013 -0.7791 -0.3455 -0.0717
 5859TIP3    H139068   5.812   5.928   1.956 -2.3682 -0.4722  1.7345
 5859TIP3    H239069   5.963   5.921   1.967 -1.9784  0.5826 -1.7885
 5860TIP3   OH239070   5.627   6.397  12.895  0.6451  0.4125  0.1580
 5860TIP3    H139071   5.578   6.463  12.847  0.7266 -0.3664 -1.0526
 5860TIP3    H239072   5.583   6.314  12.872  1.1697 -0.0545  0.8183
 5861TIP3   OH239073   0.606   5.642  16.646 -0.2761  0.0514 -0.6375
 5861TIP3    H139074   0.676   5.694  16.686 -0.3008 -1.4781  1.6206
 5861TIP3    H239075   0.631   5.551  16.664 -3.4853 -0.5343  1.6111
 5862TIP3   OH239076   0.396   3.374  16.575 -0.0423 -0.1004 -0.5843
 5862TIP3    H139077   0.474   3.348  16.625  1.7794 -0.9703 -3.6392
 5862TIP3    H239078   0.422   3.455  16.532 -0.9857 -0.2030 -1.3586
 5863TIP3   OH239079   5.932   1.768  12.169 -0.1403 -0.2266 -0.2461
 5863TIP3    H139080   5.956   1.681  12.199 -2.2646 -0.7774  0.0728
 5863TIP3    H239081   5.947   1.825  12.244  0.5193 -0.4639 -0.1972
 5864TIP3   OH239082   5.643   0.067  16.607  0.2951 -0.4854  0.1327
 5864TIP3    H139083   5.586   0.126  16.657 -1.1226  0.0425 -1.9841
 5864TIP3    H239084   5.586  -0.005  16.581  1.1601 -1.0744 -0.1544
 5865TIP3   OH239085   1.677   4.850  16.047  0.1833 -0.1032 -0.2617
 5865TIP3    H139086   1.595   4.800  16.045  0.3412 -0.4995  1.5233
 5865TIP3    H239087   1.729   4.807  16.114  1.5199  0.6854 -0.7635
 5866TIP3   OH239088   2.637   5.148  12.534  0.1946  0.2967 -0.3233
 5866TIP3    H139089   2.722   5.192  12.540 -0.0554  0.9842 -1.4532
 5866TIP3    H239090   2.654   5.059  12.565  1.2049  0.5767 -0.0247
 5867TIP3   OH239091   4.882   4.858  14.069 -0.1674 -0.1343  0.1017
 5867TIP3    H139092   4.911   4.948  14.083  0.5762 -0.2201 -0.7419
 5867TIP3    H239093   4.801   4.850  14.118  1.2870  0.0937  2.7351
 5868TIP3   OH239094   3.956   3.984  16.482  0.3728 -0.1841 -0.4489
 5868TIP3    H139095   3.890   3.931  16.527 -1.0445 -0.8661 -3.1266
 5868TIP3    H239096   3.906   4.054  16.440  1.6646  0.6037 -0.7278
 5869TIP3   OH239097   2.750   0.493   3.275  0.2025  0.2349 -0.0331
 5869TIP3    H139098   2.700   0.550   3.217 -1.3365 -0.1601  0.8481
 5869TIP3    H239099   2.822   0.548   3.307  1.0719  0.4733 -2.2233
 5870TIP3   OH239100   1.238   2.587  14.264 -0.1516 -0.4190 -0.5373
 5870TIP3    H139101   1.275   2.620  14.183  0.9509 -1.7947 -0.6376
 5870TIP3    H239102   1.163   2.644  14.282 -0.3447 -0.0194 -2.4460
 5871TIP3   OH239103   3.797   1.425  16.672 -0.6231  0.0446  0.1210
 5871TIP3    H139104   3.729   1.400  16.610 -0.0142 -1.0324 -0.1354
 5871TIP3    H239105   3.749   1.460  16.747 -1.4595 -0.5903 -0.1059
 5872TIP3   OH239106   4.395   3.392   1.534  0.1583 -0.0153  0.0524
 5872TIP3    H139107   4.353   3.308   1.550  1.3574 -0.8755 -1.1345
 5872TIP3    H239108   4.323   3.456   1.542 -1.3275 -1.3807 -1.4028
 5873TIP3   OH239109   1.768   2.950  12.227  0.1704 -0.0494 -0.0460
 5873TIP3    H139110   1.767   2.854  12.233  2.5519 -0.1186  0.0993
 5873TIP3    H239111   1.769   2.969  12.133 -0.1674 -0.1508 -0.0730
 5874TIP3   OH239112   2.594   2.822  13.559  0.0930 -0.3775 -0.0371
 5874TIP3    H139113   2.578   2.791  13.470 -0.4098 -1.9471  0.5710
 5874TIP3    H239114   2.689   2.825  13.567  0.1512  0.9580 -0.9995
 5875TIP3   OH239115   2.882   2.826   1.596 -0.2840 -0.1893 -0.3345
 5875TIP3    H139116   2.789   2.803   1.594 -0.7698  1.6108 -0.7343
 5875TIP3    H239117   2.925   2.751   1.636 -2.0685 -0.5608  1.0128
 5876TIP3   OH239118   6.434   3.053  15.754  0.2706  0.1461 -0.4886
 5876TIP3    H139119   6.447   3.025  15.663  0.0826  1.3037 -0.8871
 5876TIP3    H239120   6.351   3.014  15.779  0.1642  0.0802 -0.9245
 5877TIP3   OH239121   0.206   2.087  16.994  0.6568 -0.3254  0.6894
 5877TIP3    H139122   0.229   2.007  17.040  1.2193  0.0951  1.1606
 5877TIP3    H239123   0.179   2.059  16.907  0.5942 -1.0423  0.9372
 5878TIP3   OH239124   1.187   5.268   6.657  0.9113  0.4584  0.3382
 5878TIP3    H139125   1.171   5.174   6.656  0.5261  0.5078  1.0857
 5878TIP3    H239126   1.104   5.307   6.630  1.3280  0.5655 -0.8340
 5879TIP3   OH239127   5.054   5.469  13.418 -0.8193 -0.0808  0.4574
 5879TIP3    H139128   5.123   5.447  13.357  0.2732  1.9004  0.8916
 5879TIP3    H239129   5.055   5.399  13.483  0.7164 -0.1306  0.4005
 5880TIP3   OH239130   4.625   3.095  11.592 -0.5190 -0.3817  0.8188
 5880TIP3    H139131   4.589   3.183  11.578  1.1862  0.5264  1.7955
 5880TIP3    H239132   4.661   3.070  11.507 -0.0952  0.3408  0.7739
 5881TIP3   OH239133   2.597   0.072  12.355  0.5196  0.5238  0.6316
 5881TIP3    H139134   2.595   0.107  12.266  1.4347 -0.1579  0.3245
 5881TIP3    H239135   2.659   0.129  12.401  0.4538  0.5531  0.6829
 5882TIP3   OH239136   1.489   2.668   4.306 -1.1310 -0.1421  0.4445
 5882TIP3    H139137   1.454   2.625   4.384  0.6999  0.1361  1.4793
 5882TIP3    H239138   1.444   2.752   4.303 -1.6113 -0.3749  0.8836
 5883TIP3   OH239139   1.336   4.402   1.500  0.4338 -0.0235  0.5573
 5883TIP3    H139140   1.284   4.482   1.492  2.6351  1.3523 -1.4207
 5883TIP3    H239141   1.385   4.413   1.582  1.7398  1.4286 -0.3381
 5884TIP3   OH239142   4.017   1.350  15.557 -0.2082 -0.8454 -0.3679
 5884TIP3    H139143   4.011   1.256  15.539 -1.1343 -0.9842  0.6120
 5884TIP3    H239144   4.009   1.357  15.652  0.0261  0.2233 -0.4146
 5885TIP3   OH239145   2.262   1.445   4.254 -0.1705 -0.0764 -0.1475
 5885TIP3    H139146   2.349   1.478   4.234 -0.7142  1.1136 -0.6911
 5885TIP3    H239147   2.228   1.414   4.170 -0.3344 -0.3599  0.0233
 5886TIP3   OH239148   6.708   1.858   2.808  0.0905  0.4199 -0.3662
 5886TIP3    H139149   6.703   1.871   2.903  0.5251  0.1019 -0.2967
 5886TIP3    H239150   6.734   1.766   2.797 -0.6985  0.2447 -0.8102
 5887TIP3   OH239151   6.714   3.125   3.844 -0.9009 -0.1145  1.1031
 5887TIP3    H139152   6.777   3.180   3.891 -0.9691  1.7756 -0.8505
 5887TIP3    H239153   6.767   3.076   3.782 -1.2496  1.1924 -0.2795
 5888TIP3   OH239154   6.246   3.115  16.517 -0.7391  0.1095  0.0579
 5888TIP3    H139155   6.186   3.184  16.546 -1.2685  0.4149 -1.6711
 5888TIP3    H239156   6.225   3.040  16.573  0.1342  1.3947  2.2733
 5889TIP3   OH239157   4.920   5.986  12.778 -0.2985  0.0887 -0.4176
 5889TIP3    H139158   4.915   6.068  12.731 -1.0870 -0.4903 -1.3743
 5889TIP3    H239159   5.008   5.953  12.760 -0.3308  0.2409 -0.8511
 5890TIP3   OH239160   2.067   1.919  14.256  0.3516 -0.6063  0.8404
 5890TIP3    H139161   2.159   1.936  14.277  0.4751  1.2458 -0.8258
 5890TIP3    H239162   2.018   1.979  14.312  0.5627  2.5255 -1.9535
 5891TIP3   OH239163   4.066   5.158  10.870  0.1248  0.5291 -0.9600
 5891TIP3    H139164   4.083   5.251  10.884  0.3251  0.1634  1.8473
 5891TIP3    H239165   4.148   5.114  10.892 -1.1305 -0.5213  2.1651
 5892TIP3   OH239166   3.496   5.780   4.724 -0.0626  0.0487 -0.0551
 5892TIP3    H139167   3.547   5.820   4.795  0.3698  0.5816 -0.6452
 5892TIP3    H239168   3.525   5.689   4.722  1.6705  0.5548 -1.0159
 5893TIP3   OH239169   6.763   5.891  11.030  0.4883  0.1895  1.0122
 5893TIP3    H139170   6.852   5.927  11.023  0.3537  0.7727  2.1347
 5893TIP3    H239171   6.706   5.968  11.026 -0.0944 -0.2743 -1.2372
 5894TIP3   OH239172   5.903   4.828  16.618  0.2821  0.4993  0.1970
 5894TIP3    H139173   5.976   4.767  16.603  0.3219  0.3239  1.0592
 5894TIP3    H239174   5.826   4.781  16.587  0.4130  0.3017  0.1684
 5895TIP3   OH239175   2.306   0.770   6.333  0.1772  0.6941 -0.4776
 5895TIP3    H139176   2.330   0.677   6.328  0.8130  0.8604 -0.6080
 5895TIP3    H239177   2.232   0.772   6.394  0.5779  0.1711  0.0426
 5896TIP3   OH239178   4.655   5.954  13.888  0.0674 -0.7121 -0.0152
 5896TIP3    H139179   4.735   5.905  13.868  0.0463 -1.6107  1.8941
 5896TIP3    H239180   4.658   6.029  13.828  1.3444 -1.7237 -1.3199
 5897TIP3   OH239181   5.657   4.831   4.048  0.5088 -0.0669  0.5613
 5897TIP3    H139182   5.666   4.910   4.102 -0.1726  0.1942  0.2998
 5897TIP3    H239183   5.626   4.864   3.963 -1.6701 -0.7716  1.0168
 5898TIP3   OH239184   3.105   3.167   3.493  0.9212  0.2052 -0.4825
 5898TIP3    H139185   3.025   3.166   3.441  0.2257 -1.3650  0.5245
 5898TIP3    H239186   3.103   3.251   3.539 -0.0165  0.2991 -0.6804
 5899TIP3   OH239187   4.986   2.014  12.081 -1.0618  0.4405 -0.3465
 5899TIP3    H139188   5.022   2.102  12.070 -2.1574  1.0036  0.2859
 5899TIP3    H239189   4.995   1.996  12.175 -0.9581 -0.0765 -0.4517
 5900TIP3   OH239190   2.745   5.485   2.636 -0.6591  0.5983 -0.4859
 5900TIP3    H139191   2.800   5.499   2.713 -1.3835  0.6550  0.0364
 5900TIP3    H239192   2.721   5.573   2.607  0.9526  0.6528 -1.8001
 5901TIP3   OH239193   5.488   6.635  12.722  0.0686 -0.1083  0.5583
 5901TIP3    H139194   5.578   6.636  12.689  0.2752 -1.8482  0.9868
 5901TIP3    H239195   5.491   6.691  12.799  1.2685 -1.5749  1.6437
 5902TIP3   OH239196   2.573   1.187  13.590  0.1064  0.2471 -0.3219
 5902TIP3    H139197   2.660   1.208  13.623  0.4042  1.0665 -1.5689
 5902TIP3    H239198   2.540   1.270  13.554 -0.5584 -0.3932 -1.2411
 5903TIP3   OH239199   4.711   4.904  17.138  0.0735  0.0079  0.0750
 5903TIP3    H139200   4.689   4.811  17.134 -0.7266  0.2066 -0.3305
 5903TIP3    H239201   4.759   4.913  17.221  3.1855 -1.3440 -1.4002
 5904TIP3   OH239202   0.886   2.536  13.275  0.0267 -0.4821  0.4218
 5904TIP3    H139203   0.795   2.509  13.263 -0.1173  0.8084 -2.2253
 5904TIP3    H239204   0.937   2.470  13.228  0.3966 -0.7040  1.1246
 5905TIP3   OH239205   1.397   4.346  11.125  0.7447  0.3128 -0.5682
 5905TIP3    H139206   1.463   4.385  11.068  1.3510 -0.9494 -0.7789
 5905TIP3    H239207   1.395   4.254  11.098 -0.3965  0.1266  0.1118
 5906TIP3   OH239208   4.236   5.912   5.664  0.5625  0.7296 -0.0621
 5906TIP3    H139209   4.310   5.931   5.722  0.3506  0.2565  0.3615
 5906TIP3    H239210   4.161   5.903   5.722  0.6210 -1.2670 -0.2370
 5907TIP3   OH239211   3.964   2.349  16.080  0.0030 -0.0523 -0.2431
 5907TIP3    H139212   3.963   2.443  16.093 -1.5416 -0.2390  1.3033
 5907TIP3    H239213   3.883   2.330  16.033  0.1302 -0.6473 -0.2407
 5908TIP3   OH239214   2.834   4.618   5.605 -0.1903 -0.1344  0.3145
 5908TIP3    H139215   2.862   4.599   5.694 -0.1771  0.9653  0.5572
 5908TIP3    H239216   2.744   4.649   5.614  0.3130  1.4571  0.1308
 5909TIP3   OH239217   5.822   5.831   0.483  0.3422  0.4101  0.5341
 5909TIP3    H139218   5.849   5.748   0.522  0.5204 -0.4726 -1.3387
 5909TIP3    H239219   5.785   5.881   0.555  0.6536 -1.1121  1.7994
 5910TIP3   OH239220   1.430   4.214   2.106 -0.0870  0.2059  0.4955
 5910TIP3    H139221   1.486   4.215   2.184  0.1581 -0.9382  0.3563
 5910TIP3    H239222   1.488   4.188   2.035 -0.0170  2.4564 -0.3552
 5911TIP3   OH239223   5.204   2.285  14.471  0.2791 -0.4049 -0.2707
 5911TIP3    H139224   5.124   2.332  14.447  0.4767  0.4491  0.6919
 5911TIP3    H239225   5.178   2.229  14.545  0.4196 -0.6314 -0.3894
 5912TIP3   OH239226   6.201   2.129   4.000  0.2849 -0.0710 -0.1035
 5912TIP3    H139227   6.210   2.169   4.086  0.2077  0.2200 -0.2303
 5912TIP3    H239228   6.218   2.036   4.015 -0.8308 -0.2087  0.4268
 5913TIP3   OH239229   3.518   2.138  16.466  0.0123  0.2876 -0.7225
 5913TIP3    H139230   3.489   2.169  16.552  0.3674 -0.3257 -0.3764
 5913TIP3    H239231   3.544   2.218  16.420 -0.2087  0.6241 -0.2764
 5914TIP3   OH239232   3.522   0.097   1.402 -0.3218 -0.2948 -0.5077
 5914TIP3    H139233   3.451   0.156   1.426 -0.5169 -0.2068 -1.2740
 5914TIP3    H239234   3.480   0.011   1.395  0.1156 -0.6983  1.4159
 5915TIP3   OH239235   0.375   6.661  13.563 -0.2448 -0.4706  0.7107
 5915TIP3    H139236   0.412   6.745  13.537  0.2982 -0.4890  1.3923
 5915TIP3    H239237   0.441   6.596  13.538 -1.2735 -0.8800 -1.1541
 5916TIP3   OH239238   0.677   2.028   6.719 -0.0932 -0.0056  0.4213
 5916TIP3    H139239   0.649   1.975   6.643 -1.0059 -1.5484  1.7729
 5916TIP3    H239240   0.613   2.008   6.787  2.1007 -0.6711  2.4349
 5917TIP3   OH239241   6.620   1.132   6.077 -0.4200 -0.2026 -0.2132
 5917TIP3    H139242   6.661   1.063   6.025  0.6531  0.1696  0.1202
 5917TIP3    H239243   6.546   1.089   6.120  1.4948 -1.7675  1.7526
 5918TIP3   OH239244   3.057   5.594   5.826  0.5285 -0.2775 -0.1146
 5918TIP3    H139245   3.060   5.603   5.921  0.2598 -0.9806 -0.0341
 5918TIP3    H239246   3.046   5.500   5.811 -2.4906  0.0670 -0.7645
 5919TIP3   OH239247   1.880   5.109  13.764  0.3875  0.5732 -0.8579
 5919TIP3    H139248   1.887   5.150  13.678  1.8813  2.8351  0.2493
 5919TIP3    H239249   1.818   5.164  13.812  0.3509 -0.0594 -0.1598
 5920TIP3   OH239250   0.380   6.552  15.407  0.6000  0.3191  0.0281
 5920TIP3    H139251   0.409   6.556  15.498  2.3874  0.7202 -0.5217
 5920TIP3    H239252   0.392   6.460  15.382 -0.2893  0.1197  0.3040
 5921TIP3   OH239253   0.149   2.496   1.420  0.2554 -0.3758  0.2500
 5921TIP3    H139254   0.065   2.543   1.426 -0.0776 -0.9919  0.5249
 5921TIP3    H239255   0.157   2.473   1.328  0.1888 -0.2001  0.1988
 5922TIP3   OH239256   1.823   6.772  12.516 -0.2071 -0.2954  0.0768
 5922TIP3    H139257   1.848   6.748  12.605  1.4469 -1.2850 -0.6169
 5922TIP3    H239258   1.729   6.754  12.511 -0.3295 -0.1813  1.6082
 5923TIP3   OH239259   0.490   0.932   1.521  0.4578  0.1742  0.2012
 5923TIP3    H139260   0.462   0.853   1.568 -0.4663  0.3184 -0.0851
 5923TIP3    H239261   0.503   0.902   1.431  0.3815  0.2865  0.1527
 5924TIP3   OH239262   0.298   0.345  15.790  0.5163 -0.1527 -0.0852
 5924TIP3    H139263   0.203   0.338  15.804  0.6400 -1.2739  0.3791
 5924TIP3    H239264   0.322   0.429  15.829 -0.2344 -0.0295  0.1348
 5925TIP3   OH239265   5.136   4.137   0.717 -0.0823  0.0400 -0.8041
 5925TIP3    H139266   5.206   4.121   0.780  0.7828 -1.6140 -2.0999
 5925TIP3    H239267   5.137   4.232   0.704  0.0188  0.3728  1.2731
 5926TIP3   OH239268   0.339   6.625  12.613  0.2880 -0.4442 -0.1076
 5926TIP3    H139269   0.382   6.697  12.565 -1.5225  0.3972 -0.5492
 5926TIP3    H239270   0.401   6.603  12.682  0.6961  1.9367  0.3881
 5927TIP3   OH239271   1.155   1.218  14.637  0.1767  0.1110  0.4259
 5927TIP3    H139272   1.092   1.211  14.708  1.2758 -0.2633  1.4006
 5927TIP3    H239273   1.193   1.305  14.646  1.3226 -0.4411  1.2054
 5928TIP3   OH239274   6.687   6.423  11.083  0.2241  0.1508  0.0357
 5928TIP3    H139275   6.641   6.426  10.999  1.4716 -1.4518 -0.7596
 5928TIP3    H239276   6.743   6.345  11.077  0.6850  0.2596  2.1827
 5929TIP3   OH239277   0.518   4.187  13.554  0.2399 -0.5098  0.3318
 5929TIP3    H139278   0.463   4.120  13.594  0.0305 -0.6624 -0.2068
 5929TIP3    H239279   0.607   4.166  13.583  0.3631 -1.8458 -0.9571
 5930TIP3   OH239280   5.372   6.345  11.927 -0.3022  0.2232 -0.6121
 5930TIP3    H139281   5.411   6.300  11.852  2.6503 -0.1592  0.9788
 5930TIP3    H239282   5.406   6.434  11.922  1.6111 -0.3301  1.2594
 5931TIP3   OH239283   1.413   6.123  12.958 -0.5432 -0.7342 -0.4192
 5931TIP3    H139284   1.401   6.196  13.018  0.4836  0.0990 -1.1966
 5931TIP3    H239285   1.352   6.140  12.886 -0.0834 -0.4577 -0.7513
 5932TIP3   OH239286   6.196   4.760   0.492 -0.0289 -0.4129 -0.1293
 5932TIP3    H139287   6.265   4.714   0.541  0.5628 -0.1901 -0.7409
 5932TIP3    H239288   6.117   4.708   0.508  0.4886 -1.2773 -0.2708
 5933TIP3   OH239289   5.668   1.139  12.100  0.0007 -0.5131  0.2224
 5933TIP3    H139290   5.728   1.161  12.170  0.3965  0.5419 -0.4204
 5933TIP3    H239291   5.717   1.078  12.044  0.1181 -0.4220  0.2256
 5934TIP3   OH239292   2.759   6.609  17.225  0.2095  0.4656  0.3298
 5934TIP3    H139293   2.785   6.517  17.224 -0.5037  0.2615 -0.8301
 5934TIP3    H239294   2.815   6.651  17.160 -0.1687  0.6392  0.1108
 5935TIP3   OH239295   6.360   6.148   0.966  0.0450 -0.3174 -0.4257
 5935TIP3    H139296   6.422   6.221   0.972 -0.4412  0.1820 -1.2883
 5935TIP3    H239297   6.350   6.118   1.056  0.8061  0.2152 -0.1513
 5936TIP3   OH239298   5.391   5.798  12.682 -0.6415 -0.2100  0.1459
 5936TIP3    H139299   5.369   5.706  12.695 -1.7950  0.3808  3.3483
 5936TIP3    H239300   5.325   5.830  12.621 -0.4201 -1.3932 -0.7537
 5937TIP3   OH239301   4.563   6.134   0.794  0.2836  0.3699  1.1088
 5937TIP3    H139302   4.631   6.179   0.744  0.6994  0.3619  1.6567
 5937TIP3    H239303   4.533   6.199   0.858 -0.4235  0.4630  0.6793
 5938TIP3   OH239304   0.357   5.733  13.467  0.3779 -0.0635 -0.2901
 5938TIP3    H139305   0.431   5.687  13.427  0.4559 -0.0655 -0.1470
 5938TIP3    H239306   0.386   5.824  13.473  0.7353 -0.2260  0.6041
 5939TIP3   OH239307   1.204   5.091  16.725  0.0633  0.0961  0.2130
 5939TIP3    H139308   1.179   5.025  16.790  2.3319  0.0501  1.1443
 5939TIP3    H239309   1.276   5.139  16.766  1.5512  0.1334 -2.2200
 5940TIP3   OH239310   5.688   3.291  13.555 -0.0529 -0.1295  0.6099
 5940TIP3    H139311   5.618   3.230  13.530  0.0127  0.1806 -0.3784
 5940TIP3    H239312   5.658   3.329  13.637 -0.9027 -0.2300  0.3587
 5941TIP3   OH239313   3.019   4.904  12.357 -0.9400  0.3329 -0.0455
 5941TIP3    H139314   2.972   4.938  12.281  1.3819  1.5987 -1.0041
 5941TIP3    H239315   2.952   4.856  12.407 -2.8245  0.5870 -2.1670
 5942TIP3   OH239316   6.204   2.048   1.427 -0.3972  0.3798 -0.2454
 5942TIP3    H139317   6.196   1.957   1.400 -1.9181  1.0355 -2.2680
 5942TIP3    H239318   6.250   2.044   1.511 -0.5494 -2.2283 -0.1938
 5943TIP3   OH239319   4.459   0.555  13.471 -0.3498 -0.0720  0.1256
 5943TIP3    H139320   4.485   0.591  13.387 -0.6359  3.0793  1.2283
 5943TIP3    H239321   4.367   0.530  13.459 -0.0038 -0.9582 -0.8217
 5944TIP3   OH239322   3.026   1.136   3.376  0.6602  0.5186  0.1619
 5944TIP3    H139323   3.083   1.201   3.335  1.5940 -0.2366  0.2429
 5944TIP3    H239324   3.075   1.105   3.451 -1.0396  1.9146  1.9526
 5945TIP3   OH239325   4.118   4.567   4.776  0.2912  0.1955 -0.0919
 5945TIP3    H139326   4.083   4.479   4.789  0.8229 -0.1886 -1.1736
 5945TIP3    H239327   4.092   4.615   4.855 -2.7100 -0.0283 -0.8005
 5946TIP3   OH239328   0.121   0.544   3.724  0.5863  0.5488 -0.1556
 5946TIP3    H139329   0.169   0.463   3.704 -0.0522  0.3629 -1.0144
 5946TIP3    H239330   0.051   0.546   3.659 -0.1676  1.1528  0.6634
 5947TIP3   OH239331   3.044   4.731   2.875 -0.2812 -0.1088  0.0112
 5947TIP3    H139332   2.960   4.739   2.830 -0.3620  0.2693  0.2268
 5947TIP3    H239333   3.109   4.740   2.805 -0.4167 -0.8487 -0.2267
 5948TIP3   OH239334   2.784   6.803   5.892 -0.3978 -0.2437 -0.2756
 5948TIP3    H139335   2.697   6.833   5.865 -0.1850  0.2106 -0.4484
 5948TIP3    H239336   2.807   6.735   5.827 -0.6552 -0.4225 -0.1814
 5949TIP3   OH239337   1.388   1.194   1.750 -0.1896  0.2726  0.0610
 5949TIP3    H139338   1.412   1.281   1.782 -0.0608  0.8932 -1.6316
 5949TIP3    H239339   1.468   1.142   1.763 -0.5020  0.1410  1.7977
 5950TIP3   OH239340   2.531   5.972   4.695 -0.7301 -0.2552 -0.4902
 5950TIP3    H139341   2.526   6.063   4.665 -0.1718  0.2625  0.9272
 5950TIP3    H239342   2.440   5.942   4.693 -0.9268  0.3452 -0.9178
 5951TIP3   OH239343   2.090   3.770  16.252  0.5433  0.0939 -0.3377
 5951TIP3    H139344   2.151   3.732  16.189  1.8995 -0.7833  1.4137
 5951TIP3    H239345   2.091   3.864  16.233  3.1958  0.2431  0.1899
 5952TIP3   OH239346   1.013   1.617   0.703  0.0595 -0.4560  0.3850
 5952TIP3    H139347   1.070   1.544   0.731 -0.0012 -0.7487 -0.2397
 5952TIP3    H239348   1.058   1.695   0.734 -0.0706 -0.7757  1.4135
 5953TIP3   OH239349   4.994   1.104   5.963  0.2227  0.4296 -0.4259
 5953TIP3    H139350   4.949   1.118   6.046  0.8834 -3.0953  0.7081
 5953TIP3    H239351   4.932   1.054   5.910  0.4853  1.0778 -1.3771
 5954TIP3   OH239352   2.283   4.527   3.108  0.0411  0.0404  0.1220
 5954TIP3    H139353   2.374   4.559   3.108 -0.3936  1.3590  0.0517
 5954TIP3    H239354   2.281   4.459   3.041  0.8891  0.2614 -0.1442
 5955TIP3   OH239355   0.715   1.645  12.879  0.3098  0.3418 -0.3695
 5955TIP3    H139356   0.657   1.660  12.805 -0.6055  0.1902  0.2968
 5955TIP3    H239357   0.728   1.732  12.918 -2.2180  0.0327  1.4498
 5956TIP3   OH239358   4.721   2.440   1.711 -0.4413  0.3102  0.1031
 5956TIP3    H139359   4.642   2.401   1.674 -1.6742  0.6913  2.1759
 5956TIP3    H239360   4.763   2.485   1.637 -1.9603 -0.2159 -1.1272
 5957TIP3   OH239361   4.924   1.832  11.149  0.5051 -0.1731 -0.1562
 5957TIP3    H139362   4.895   1.849  11.059  0.5629 -0.6696 -0.2697
 5957TIP3    H239363   5.002   1.778  11.140  0.9697  0.4352  0.1760
 5958TIP3   OH239364   6.572   0.505   0.665  0.3443 -0.3157 -0.1208
 5958TIP3    H139365   6.482   0.476   0.676  0.3714  0.0138  1.2098
 5958TIP3    H239366   6.621   0.424   0.650 -0.1343 -0.5172 -0.6226
 5959TIP3   OH239367   3.604   5.225  13.644 -0.3768 -0.3319 -0.1141
 5959TIP3    H139368   3.670   5.284  13.681 -0.1212 -1.1427  0.7583
 5959TIP3    H239369   3.630   5.213  13.553  1.2151 -1.3427  0.4362
 5960TIP3   OH239370   4.386   3.704   1.422  0.1499  0.1113  0.2516
 5960TIP3    H139371   4.454   3.688   1.487  0.0195  0.2459  0.4239
 5960TIP3    H239372   4.310   3.733   1.474  0.1983  0.7019 -0.0035
 5961TIP3   OH239373   0.835   5.043   5.404 -0.1509  0.8565  0.7852
 5961TIP3    H139374   0.901   5.112   5.408  1.3769 -0.5219  0.4464
 5961TIP3    H239375   0.841   4.999   5.489  0.4303 -0.1829  0.2314
 5962TIP3   OH239376   1.375   2.373  16.755  0.4567  0.1901 -0.4807
 5962TIP3    H139377   1.437   2.306  16.725  0.0517 -1.2561  1.7371
 5962TIP3    H239378   1.403   2.394  16.843 -0.8338  1.2364 -0.2961
 5963TIP3   OH239379   5.646   1.851   4.065  0.2094  0.1130  0.5530
 5963TIP3    H139380   5.624   1.842   4.158 -0.5547  0.5125  0.4234
 5963TIP3    H239381   5.658   1.762   4.034  1.1242 -0.0008  1.1761
 5964TIP3   OH239382   4.603   4.906  13.307  0.3617  0.8998  0.5748
 5964TIP3    H139383   4.520   4.944  13.280  0.3603  1.1379  0.9106
 5964TIP3    H239384   4.586   4.867  13.392  0.7128  1.3972  0.8836
 5965TIP3   OH239385   0.835   1.832  16.682  0.1431 -0.4023 -0.2531
 5965TIP3    H139386   0.826   1.852  16.775 -1.3898  0.7688 -0.6030
 5965TIP3    H239387   0.790   1.904  16.637  2.9695  0.4368 -2.0438
 5966TIP3   OH239388   3.947   3.561   1.374 -0.0547  0.3352 -0.0491
 5966TIP3    H139389   3.930   3.653   1.352  1.8797  0.5135 -1.0469
 5966TIP3    H239390   3.970   3.520   1.290 -0.8136 -1.0650  0.3856
 5967TIP3   OH239391   0.984   0.960   4.016 -0.3194 -0.3378  0.0299
 5967TIP3    H139392   0.931   0.889   3.981 -0.5970 -1.4225  2.4418
 5967TIP3    H239393   1.074   0.927   4.011 -0.4751 -1.0402  1.4272
 5968TIP3   OH239394   4.750   1.991   1.150 -0.4245  0.2150  0.3154
 5968TIP3    H139395   4.736   1.998   1.245 -1.4303  1.7775  0.0790
 5968TIP3    H239396   4.759   2.081   1.120  3.1926 -0.3094 -0.6622
 5969TIP3   OH239397   5.685   3.241  14.721  0.6228 -0.0492  0.0025
 5969TIP3    H139398   5.669   3.196  14.804 -0.1969  0.4182  0.1106
 5969TIP3    H239399   5.711   3.329  14.747 -0.3792  0.3260 -0.2414
 5970TIP3   OH239400   2.584   1.433   2.724  0.1909  0.0372 -0.5970
 5970TIP3    H139401   2.588   1.516   2.677 -0.0530  1.0293  1.0398
 5970TIP3    H239402   2.521   1.380   2.675 -1.8746  1.9171 -0.1230
 5971TIP3   OH239403   1.746   6.572   1.238  0.0976  0.9244  0.1543
 5971TIP3    H139404   1.695   6.591   1.159 -0.8991 -0.4993  0.4181
 5971TIP3    H239405   1.834   6.553   1.206 -0.2881  0.3887 -0.6270
 5972TIP3   OH239406   3.319   3.586  14.834 -0.5219  0.6269 -0.2396
 5972TIP3    H139407   3.339   3.673  14.799  0.6069 -0.1648 -1.7114
 5972TIP3    H239408   3.346   3.590  14.926  1.8512  1.1508 -0.8945
 5973TIP3   OH239409   2.796   3.222  12.581 -0.5337 -0.0321 -0.4219
 5973TIP3    H139410   2.715   3.195  12.624  0.9710 -0.4652  2.3758
 5973TIP3    H239411   2.849   3.142  12.576  1.1820  0.9051  1.3770
 5974TIP3   OH239412   0.136   4.102   1.758 -0.0870  0.0722 -0.0104
 5974TIP3    H139413   0.096   4.032   1.706 -1.0653 -1.5980  2.7870
 5974TIP3    H239414   0.091   4.182   1.728  0.1288 -0.5972 -2.3634
 5975TIP3   OH239415   4.916   6.186   0.064  0.6927 -0.7512  0.1119
 5975TIP3    H139416   5.008   6.192   0.040  0.9484 -0.3536  1.1669
 5975TIP3    H239417   4.916   6.174   0.159 -0.3192 -1.6856  0.0169
 5976TIP3   OH239418   4.958   1.400  16.897 -0.8292 -0.3810  0.1896
 5976TIP3    H139419   4.983   1.484  16.937 -2.2667 -0.2471  0.8773
 5976TIP3    H239420   4.962   1.337  16.970  0.4657 -0.9779 -0.3704
 5977TIP3   OH239421   3.738   0.231  16.567 -0.5476  0.0936  0.0031
 5977TIP3    H139422   3.827   0.231  16.602  0.0798 -3.0995 -1.2006
 5977TIP3    H239423   3.684   0.194  16.637 -1.0304  2.1507  0.7809
 5978TIP3   OH239424   2.122   6.087  10.822  0.5688 -0.2238 -0.7095
 5978TIP3    H139425   2.158   6.134  10.747  0.7840  0.1186 -0.3969
 5978TIP3    H239426   2.136   6.146  10.896  0.1747 -0.4708 -0.4332
 5979TIP3   OH239427   3.646   1.229  11.967 -0.1913 -0.2786  0.1768
 5979TIP3    H139428   3.621   1.192  12.051  0.3971 -1.9282 -0.3259
 5979TIP3    H239429   3.679   1.316  11.987  0.7026 -0.9530  1.7715
 5980TIP3   OH239430   1.635   0.863   5.896  0.1230 -0.5434 -0.5410
 5980TIP3    H139431   1.592   0.825   5.972 -1.2585  0.3297 -0.8447
 5980TIP3    H239432   1.567   0.917   5.854  1.2877  0.2402 -1.5077
 5981TIP3   OH239433   2.375   0.252   1.293 -0.7181  0.4792  0.3102
 5981TIP3    H139434   2.300   0.312   1.285 -0.0315  1.2329 -0.6633
 5981TIP3    H239435   2.425   0.266   1.213 -1.1212 -2.2658 -0.4988
 5982TIP3   OH239436   5.658   4.825   2.251 -0.0762 -0.3238  0.4289
 5982TIP3    H139437   5.567   4.844   2.230  0.4510 -0.2321 -1.9808
 5982TIP3    H239438   5.681   4.889   2.318 -1.8562 -0.6006  1.3568
 5983TIP3   OH239439   4.190   3.590   1.655  0.5878  0.1071 -0.2038
 5983TIP3    H139440   4.155   3.649   1.721  0.6367  1.6973 -1.5405
 5983TIP3    H239441   4.113   3.557   1.609  0.5979 -0.3906  0.1263
 5984TIP3   OH239442   6.014   0.036  12.864 -0.3355  0.6636 -0.1801
 5984TIP3    H139443   6.085  -0.029  12.860 -0.0184  0.7638  2.4022
 5984TIP3    H239444   5.939  -0.012  12.899 -0.6849  1.2446 -0.1178
 5985TIP3   OH239445   4.953   1.823  16.106  0.3207  0.7251 -0.2131
 5985TIP3    H139446   4.992   1.809  16.192 -3.2761  0.1265  1.5050
 5985TIP3    H239447   4.888   1.753  16.097 -0.6801  1.8324 -2.6178
 5986TIP3   OH239448   4.528   6.802  14.649 -0.5446  0.6123 -0.4618
 5986TIP3    H139449   4.464   6.777  14.715  0.9041 -0.6568  0.5363
 5986TIP3    H239450   4.538   6.897  14.660 -0.1705  0.4061  1.3324
 5987TIP3   OH239451   6.094   4.106   3.534 -0.3482 -0.2360 -0.7877
 5987TIP3    H139452   6.174   4.155   3.548 -0.7620  0.3702 -0.5205
 5987TIP3    H239453   6.110   4.022   3.578  1.5280 -1.6080 -3.7826
 5988TIP3   OH239454   5.185   6.764  16.634  0.1030 -0.0438  0.3304
 5988TIP3    H139455   5.263   6.714  16.613  0.1934  0.4567 -0.5638
 5988TIP3    H239456   5.132   6.705  16.688  1.3946 -0.1576  1.5504
 5989TIP3   OH239457   5.490   3.678  12.524 -0.1632 -0.0759  0.3545
 5989TIP3    H139458   5.502   3.588  12.555  1.4866 -0.2892 -0.7371
 5989TIP3    H239459   5.540   3.681  12.442 -0.1013  1.8699  0.4260
 5990TIP3   OH239460   2.306   6.083   2.116 -0.0750  0.1840  0.0856
 5990TIP3    H139461   2.253   6.079   2.036  1.2230  0.8815 -0.8420
 5990TIP3    H239462   2.386   6.035   2.093  1.0313  1.8321  0.3691
 5991TIP3   OH239463   3.403   4.990  10.998 -0.3208  0.2569  0.1918
 5991TIP3    H139464   3.399   4.920  11.063  0.9145 -1.0354 -1.0470
 5991TIP3    H239465   3.496   5.009  10.988 -0.5861  1.4914 -0.1282
 5992TIP3   OH239466   0.733   4.010   4.230  0.3372  0.0923  0.2122
 5992TIP3    H139467   0.744   3.916   4.224  0.2831  0.0672  0.4773
 5992TIP3    H239468   0.819   4.043   4.257  0.9402  0.3327 -1.8635
 5993TIP3   OH239469   5.023   2.426   4.305 -0.0597 -0.3254 -0.0016
 5993TIP3    H139470   5.002   2.436   4.398 -0.1639  0.8111 -0.1327
 5993TIP3    H239471   5.011   2.333   4.288  2.9073 -1.1653  1.8252
 5994TIP3   OH239472   6.356   4.213   5.639  0.3782  0.2398  0.2096
 5994TIP3    H139473   6.450   4.195   5.634  0.3778 -0.2739  1.5677
 5994TIP3    H239474   6.340   4.276   5.569  1.7767  0.4881  0.0804
 5995TIP3   OH239475   0.196   3.897  14.647  0.3805  0.3929 -0.1068
 5995TIP3    H139476   0.288   3.882  14.626  0.7112  1.1647  0.7399
 5995TIP3    H239477   0.198   3.951  14.726 -0.7997 -1.5528  1.3584
 5996TIP3   OH239478   5.975   4.571   4.856 -0.0953  0.2307 -0.2142
 5996TIP3    H139479   5.968   4.664   4.874 -0.2871 -0.0519  1.2372
 5996TIP3    H239480   5.886   4.543   4.837 -0.2454  0.0806  0.7033
 5997TIP3   OH239481   2.294   5.348   0.896  0.1082 -0.2420  0.7033
 5997TIP3    H139482   2.369   5.315   0.847  0.4736  0.0549  1.0571
 5997TIP3    H239483   2.238   5.272   0.909 -1.3456  0.1224 -2.5151
 5998TIP3   OH239484   6.230   6.200   1.881  0.0749  0.7749 -0.2173
 5998TIP3    H139485   6.214   6.286   1.919 -0.7797 -0.6430  2.8992
 5998TIP3    H239486   6.147   6.153   1.890  1.2421 -1.2701  0.8207
 5999TIP3   OH239487   2.478   6.691  15.808 -0.3992  0.7183 -0.4878
 5999TIP3    H139488   2.554   6.718  15.859  0.8294 -1.5953 -0.9532
 5999TIP3    H239489   2.484   6.742  15.728  2.3653 -1.2902 -1.7382
 6000TIP3   OH239490   4.984   5.708   2.094  0.2132 -0.2698  0.4610
 6000TIP3    H139491   4.938   5.625   2.113 -1.5088  0.1342 -1.5581
 6000TIP3    H239492   5.076   5.683   2.086 -0.3781 -2.2359 -1.1613
 6001TIP3   OH239493   4.055   1.292   0.957  0.2250 -0.0775  0.0030
 6001TIP3    H139494   4.040   1.243   1.039 -1.1306 -0.3062 -0.3578
 6001TIP3    H239495   4.144   1.326   0.966  0.3607 -0.6863  1.2712
 6002TIP3   OH239496   0.066   2.939   4.478 -0.1338  0.4756  0.1320
 6002TIP3    H139497   0.042   2.846   4.477 -0.8132  0.6377 -1.3782
 6002TIP3    H239498  -0.017   2.985   4.468  0.3177  1.2105 -0.2658
 6003TIP3   OH239499   2.919   1.004   4.724 -0.1639  0.2801 -0.0226
 6003TIP3    H139500   2.940   0.943   4.653 -0.5976  1.4944 -1.2321
 6003TIP3    H239501   2.930   1.091   4.686 -0.6635  0.9690  1.3256
 6004TIP3   OH239502   3.669   1.413   3.895 -0.0653  0.2785  0.1997
 6004TIP3    H139503   3.755   1.378   3.870  0.7716  2.0553  0.4090
 6004TIP3    H239504   3.615   1.400   3.817  0.6016 -0.2309 -0.1908
 6005TIP3   OH239505   0.690   2.548  16.800 -0.2165  0.2985  0.4164
 6005TIP3    H139506   0.657   2.636  16.819 -1.1715  0.1986 -0.6538
 6005TIP3    H239507   0.785   2.558  16.795 -0.1638  0.9216  1.9518
 6006TIP3   OH239508   3.408   5.269   6.387 -0.1218 -0.2338  0.0407
 6006TIP3    H139509   3.398   5.361   6.408 -0.3547 -0.6536  1.9777
 6006TIP3    H239510   3.321   5.231   6.399  0.1680 -0.8719  0.2017
 6007TIP3   OH239511   5.116   0.675   2.396 -0.4417  0.0878 -0.0368
 6007TIP3    H139512   5.116   0.673   2.492 -0.0481 -1.4844 -0.0336
 6007TIP3    H239513   5.162   0.755   2.373  1.5784 -0.6759  1.1265
 6008TIP3   OH239514   2.161   5.553  13.624 -0.5890 -0.1502 -0.9131
 6008TIP3    H139515   2.128   5.531  13.711 -0.4902  2.0344 -0.2758
 6008TIP3    H239516   2.109   5.499  13.565 -1.3410 -0.9484  0.4243
 6009TIP3   OH239517   1.205   2.313  14.766  0.6146 -0.0941 -0.1599
 6009TIP3    H139518   1.142   2.241  14.765  0.7777 -0.2291 -1.1578
 6009TIP3    H239519   1.286   2.275  14.733  1.3448  0.0019  1.4134
 6010TIP3   OH239520   4.701   0.165   3.820  0.0005 -0.2411 -0.3293
 6010TIP3    H139521   4.787   0.158   3.861  0.0311  0.4681 -0.2493
 6010TIP3    H239522   4.649   0.216   3.882 -0.3771 -0.3736 -0.5317
 6011TIP3   OH239523   4.229   4.709   2.660  0.0584  0.3522  0.3001
 6011TIP3    H139524   4.230   4.679   2.751  2.0885 -0.8298 -0.0456
 6011TIP3    H239525   4.289   4.784   2.660 -0.3395  0.6730  0.0212
 6012TIP3   OH239526   5.408   2.224  12.343 -0.0750  0.0724 -0.6557
 6012TIP3    H139527   5.496   2.216  12.381 -1.1093 -0.1915  1.8715
 6012TIP3    H239528   5.406   2.158  12.274  2.3806  1.5377 -2.2809
 6013TIP3   OH239529   3.283   5.706  13.898 -0.2333  0.2071 -0.1182
 6013TIP3    H139530   3.350   5.754  13.947 -0.6450 -0.5159  1.2103
 6013TIP3    H239531   3.333   5.653  13.835  0.2946  1.3146 -0.6536
 6014TIP3   OH239532   0.264   3.048  14.888  0.0328  0.7385  0.2245
 6014TIP3    H139533   0.218   3.107  14.948  0.9918  1.2946  0.4346
 6014TIP3    H239534   0.351   3.086  14.879  0.4679 -0.3078 -0.1446
 6015TIP3   OH239535   3.081   4.847   6.275  0.3101  0.3911  0.0316
 6015TIP3    H139536   3.024   4.771   6.275  0.5581  0.0991 -2.8449
 6015TIP3    H239537   3.168   4.812   6.256  0.5769  1.2739 -0.4655
 6016TIP3   OH239538   1.047   2.778   3.625  0.3043  0.2988  0.0646
 6016TIP3    H139539   1.081   2.706   3.571 -0.8059 -0.3772  0.2240
 6016TIP3    H239540   1.063   2.750   3.715 -0.7663 -0.1166  0.1494
 6017TIP3   OH239541   5.548   4.974  16.857  0.8742  0.5431 -0.1035
 6017TIP3    H139542   5.527   5.044  16.796  1.8077 -0.4400 -1.6237
 6017TIP3    H239543   5.642   4.981  16.871  0.8187  0.1926  0.4924
 6018TIP3   OH239544   4.286   0.395  14.235 -0.2703 -0.2805 -0.4739
 6018TIP3    H139545   4.235   0.418  14.312 -0.2747  1.6119 -0.9883
 6018TIP3    H239546   4.377   0.404  14.263 -0.2585 -0.4832 -0.4445
 6019TIP3   OH239547   5.409   3.554   0.192  0.2144 -0.3461  0.8619
 6019TIP3    H139548   5.434   3.548   0.100  1.5054 -0.5134  1.2036
 6019TIP3    H239549   5.463   3.624   0.228 -0.5106 -0.0550  1.4294
 6020TIP3   OH239550   0.832   0.807   2.701 -0.0867 -0.5975  0.4939
 6020TIP3    H139551   0.890   0.838   2.631 -0.2488 -0.3904  0.4479
 6020TIP3    H239552   0.848   0.713   2.706 -0.8124 -0.7948 -0.5342
 6021TIP3   OH239553   6.522   5.799   0.181 -0.1011 -0.4811  0.1271
 6021TIP3    H139554   6.564   5.851   0.112  1.0258 -0.5979  0.7072
 6021TIP3    H239555   6.487   5.864   0.242 -1.7640 -0.3511 -0.8796
 6022TIP3   OH239556   5.450   3.129  12.256  0.3445 -0.2462  0.0607
 6022TIP3    H139557   5.480   3.096  12.340  0.7384 -1.3801 -0.5056
 6022TIP3    H239558   5.504   3.207  12.240  1.9557 -1.3694 -0.2172
 6023TIP3   OH239559   3.056   4.173   1.028  0.7221 -0.1884  0.2643
 6023TIP3    H139560   3.140   4.168   0.983  0.4066 -0.2502 -0.3216
 6023TIP3    H239561   3.077   4.209   1.114  0.9532  3.2075 -1.0534
 6024TIP3   OH239562   5.769   2.107   2.366  0.4529  0.3224  0.0532
 6024TIP3    H139563   5.782   2.198   2.393 -2.3552  0.4280  1.4216
 6024TIP3    H239564   5.803   2.104   2.276 -0.9333  3.2130 -0.6849
 6025TIP3   OH239565   4.382   2.910   1.030 -0.2551  0.4625 -0.0808
 6025TIP3    H139566   4.471   2.944   1.016 -0.5321  0.7441 -1.2588
 6025TIP3    H239567   4.350   2.890   0.942 -0.9758 -0.6497  0.4086
 6026TIP3   OH239568   4.503   4.356   5.512  0.1237  0.2423 -0.0243
 6026TIP3    H139569   4.479   4.278   5.461 -0.3337 -0.5181  1.3162
 6026TIP3    H239570   4.424   4.379   5.560  0.0585  1.9465 -0.8665
 6027TIP3   OH239571   2.262   0.645  12.297 -0.1510  0.3060  0.1220
 6027TIP3    H139572   2.182   0.599  12.271  0.8212 -0.1428 -2.3305
 6027TIP3    H239573   2.272   0.715  12.232  1.2902  0.5294  0.5490
 6028TIP3   OH239574   6.091   3.738   0.041 -0.1992  0.4488  0.3206
 6028TIP3    H139575   6.114   3.649   0.067 -1.1873  0.4147  1.1405
 6028TIP3    H239576   6.158   3.762  -0.023  0.6064 -0.5449  0.7562
 6029TIP3   OH239577   0.334   2.137   2.871 -0.0774 -0.2118 -0.4168
 6029TIP3    H139578   0.301   2.205   2.930 -0.8518 -1.2798  0.4411
 6029TIP3    H239579   0.286   2.151   2.790 -2.2543 -1.2719  0.5753
 6030TIP3   OH239580   3.225   0.713   1.882 -0.2555 -0.4611 -0.2464
 6030TIP3    H139581   3.307   0.736   1.837  0.8397 -1.9525  0.8584
 6030TIP3    H239582   3.235   0.619   1.901 -1.1182 -0.1239  2.1316
 6031TIP3   OH239583   5.821   2.581   5.705  0.0686  0.4188 -0.0732
 6031TIP3    H139584   5.884   2.570   5.776 -0.4323 -2.0264  0.0816
 6031TIP3    H239585   5.832   2.503   5.651 -1.9559  0.5389 -0.7405
 6032TIP3   OH239586   5.939   0.489  15.779  0.0265  0.2133 -0.3155
 6032TIP3    H139587   5.905   0.429  15.713  0.1346 -0.5119  0.2706
 6032TIP3    H239588   6.032   0.466  15.785  0.0869  0.5059 -0.1564
 6033TIP3   OH239589   2.433   3.413   5.246 -0.1659 -0.4238  0.3292
 6033TIP3    H139590   2.481   3.345   5.293  1.1634  0.4835  0.3406
 6033TIP3    H239591   2.361   3.436   5.305  0.8294 -0.0796  1.4667
 6034TIP3   OH239592   3.878   3.082   3.357 -0.5786  0.0063 -0.1811
 6034TIP3    H139593   3.906   3.049   3.443 -0.9190 -0.6744 -0.3196
 6034TIP3    H239594   3.959   3.105   3.312 -0.4505  1.3241  0.6886
 6035TIP3   OH239595   4.729   5.672  16.543 -0.4076 -0.6669  0.2265
 6035TIP3    H139596   4.794   5.636  16.481  0.5813  1.7639 -0.2735
 6035TIP3    H239597   4.782   5.721  16.607 -1.6853  2.2054 -0.7485
 6036TIP3   OH239598   6.221   4.978  11.024 -0.1286  0.0015  0.1610
 6036TIP3    H139599   6.260   5.055  10.984 -1.6656  0.4826 -0.4957
 6036TIP3    H239600   6.275   4.905  10.993 -0.1499  0.5608 -1.2792
 6037TIP3   OH239601   3.008   3.353   1.617 -0.1431 -0.1203  0.0112
 6037TIP3    H139602   3.007   3.346   1.521  1.9053 -2.1344  0.0382
 6037TIP3    H239603   2.961   3.275   1.647 -1.3710  0.8524  0.6777
 6038TIP3   OH239604   2.362   6.294  13.613 -0.1111 -0.2141  0.3805
 6038TIP3    H139605   2.274   6.313  13.579 -0.9782 -1.7061  1.6470
 6038TIP3    H239606   2.419   6.356  13.568 -2.0454  2.0383  0.8004
 6039TIP3   OH239607   3.766   0.491   2.113  0.5250  0.2670  0.8397
 6039TIP3    H139608   3.717   0.574   2.103  1.1379  0.4363 -0.9903
 6039TIP3    H239609   3.730   0.453   2.193 -1.3219  1.2708  0.5599
 6040TIP3   OH239610   5.016   6.222  11.698  0.4208 -0.1505 -0.3802
 6040TIP3    H139611   5.061   6.268  11.628 -1.9379 -1.2456 -2.7968
 6040TIP3    H239612   5.025   6.129  11.675 -0.9564 -0.5000  0.3757
 6041TIP3   OH239613   6.652   2.051   0.160  0.0654  0.2052  0.0853
 6041TIP3    H139614   6.687   2.114   0.096 -0.1949  0.3467  0.0803
 6041TIP3    H239615   6.604   1.988   0.107  0.7076 -0.2557  0.0493
 6042TIP3   OH239616   0.336   5.627   3.728  0.0915 -0.0995 -0.1918
 6042TIP3    H139617   0.377   5.642   3.643 -1.0970  0.6083 -0.6622
 6042TIP3    H239618   0.277   5.701   3.740 -3.0311 -2.2532 -0.7889
 6043TIP3   OH239619   4.207   5.201  12.500  0.2975 -0.1659 -0.3460
 6043TIP3    H139620   4.113   5.206  12.486  0.3367 -2.0768 -1.7913
 6043TIP3    H239621   4.245   5.217  12.414  1.3321  0.8100  0.2669
 6044TIP3   OH239622   4.183   2.664  11.265 -0.4472  0.1137  0.5266
 6044TIP3    H139623   4.258   2.653  11.323 -0.0225 -0.5039 -0.1152
 6044TIP3    H239624   4.222   2.678  11.178 -1.0658  1.2254  0.4093
 6045TIP3   OH239625   5.674   2.352  15.344 -0.5559 -0.4377 -0.1338
 6045TIP3    H139626   5.728   2.418  15.387 -0.8943 -0.2833  0.0625
 6045TIP3    H239627   5.599   2.341  15.403 -0.5711 -0.8895 -0.2397
 6046TIP3   OH239628   3.398   1.032   1.599 -0.1911  0.0075 -0.0967
 6046TIP3    H139629   3.326   1.067   1.651 -0.2729 -0.1396 -0.1109
 6046TIP3    H239630   3.455   1.108   1.582  0.1483 -0.0565  0.7144
 6047TIP3   OH239631   2.208   5.385  15.944  0.1888  0.1730 -0.0189
 6047TIP3    H139632   2.169   5.299  15.928  1.6592 -0.2325 -1.8747
 6047TIP3    H239633   2.285   5.367  15.998 -1.0505  0.7334  2.0318
 6048TIP3   OH239634   3.713   3.453  11.615 -0.0484 -0.3731 -0.3550
 6048TIP3    H139635   3.728   3.516  11.545 -0.8510  0.9686  0.6450
 6048TIP3    H239636   3.799   3.418  11.636  0.1200 -1.4726 -2.5884
 6049TIP3   OH239637   5.382   2.153  11.264 -0.0728 -0.2936  0.3015
 6049TIP3    H139638   5.307   2.129  11.210 -0.3202  0.2570  0.3947
 6049TIP3    H239639   5.437   2.075  11.266  0.7668  0.1597 -2.0980
 6050TIP3   OH239640   1.288   5.461  13.560 -0.1898 -0.0706  0.0814
 6050TIP3    H139641   1.209   5.511  13.582 -0.7652 -0.7362 -0.4142
 6050TIP3    H239642   1.359   5.510  13.601 -1.0264 -0.3324  1.9828
 6051TIP3   OH239643   3.729   3.215  11.306  0.1625  0.0845 -0.1098
 6051TIP3    H139644   3.697   3.204  11.396 -1.4556 -2.8052 -0.9194
 6051TIP3    H239645   3.670   3.279  11.268 -0.7031 -0.4838  0.2319
 6052TIP3   OH239646   5.723   4.754  12.917  0.6026 -0.0314 -0.5444
 6052TIP3    H139647   5.788   4.727  12.852 -0.2934 -1.9244 -0.7176
 6052TIP3    H239648   5.699   4.674  12.962 -1.8965  0.5177 -0.7521
 6053TIP3   OH239649   6.262   0.933  11.819 -0.1977  0.9796  0.2682
 6053TIP3    H139650   6.168   0.947  11.830 -0.0257  0.5237  3.2997
 6053TIP3    H239651   6.283   0.971  11.734 -3.1185  0.9760 -0.5575
 6054TIP3   OH239652   4.437   6.534   2.442 -0.1303 -0.0687  0.1012
 6054TIP3    H139653   4.366   6.582   2.484 -0.0949  0.7433 -0.7403
 6054TIP3    H239654   4.438   6.566   2.352  1.9082  0.6563  0.3303
 6055TIP3   OH239655   5.117   5.783  15.959 -0.1169  0.4952 -0.7256
 6055TIP3    H139656   5.116   5.841  16.035  1.8179  0.8034 -0.8729
 6055TIP3    H239657   5.124   5.695  15.996  2.1173  0.7104 -0.4680
 6056TIP3   OH239658   3.779   2.332   4.468 -0.3071  0.2269 -0.0822
 6056TIP3    H139659   3.759   2.270   4.398  1.9100 -0.2393 -0.3789
 6056TIP3    H239660   3.737   2.294   4.546  1.5610 -2.1034 -0.1065
 6057TIP3   OH239661   5.667   3.597  16.785 -0.0357  0.0103  0.3683
 6057TIP3    H139662   5.733   3.621  16.719 -0.9363  1.5287 -0.0278
 6057TIP3    H239663   5.676   3.502  16.794  1.8836  0.1118  0.0028
 6058TIP3   OH239664   3.837   2.389   5.239  0.3855  0.1317  0.4063
 6058TIP3    H139665   3.815   2.445   5.165  0.8460  1.9003  1.5497
 6058TIP3    H239666   3.918   2.426   5.275  0.6167 -1.1660  1.3236
 6059TIP3   OH239667   4.438   1.731   0.873 -0.4840  0.6177 -0.4886
 6059TIP3    H139668   4.504   1.800   0.864  0.0676  0.1777  0.0838
 6059TIP3    H239669   4.355   1.778   0.871 -0.2643  1.0363 -2.8197
 6060TIP3   OH239670   1.818   4.757   2.317  0.5339  0.0342  0.0444
 6060TIP3    H139671   1.799   4.699   2.244  4.0340 -2.4299  0.7968
 6060TIP3    H239672   1.738   4.758   2.370 -0.4081 -2.2576 -1.2262
 6061TIP3   OH239673   2.212   3.743   6.220  0.1054  0.0282 -0.5373
 6061TIP3    H139674   2.300   3.719   6.190  0.3980 -1.4363  1.3406
 6061TIP3    H239675   2.182   3.667   6.270 -2.2727  0.4723 -1.1638
 6062TIP3   OH239676   3.764   2.651   3.662 -0.2798 -0.2416  0.2202
 6062TIP3    H139677   3.746   2.636   3.570  1.7675 -1.1355 -0.0918
 6062TIP3    H239678   3.733   2.571   3.706 -2.6973  0.8135  0.5892
 6063TIP3   OH239679   3.739   5.849   6.013  0.5631  0.1187  0.2871
 6063TIP3    H139680   3.753   5.768   6.062  1.2269  0.0321 -0.0450
 6063TIP3    H239681   3.670   5.894   6.062 -1.5079 -1.6812 -0.7758
 6064TIP3   OH239682   4.125   3.440   0.299  0.2219 -0.2372 -0.0330
 6064TIP3    H139683   4.037   3.403   0.291  0.2612 -0.5946  1.0702
 6064TIP3    H239684   4.111   3.527   0.334  0.3201 -0.3864  0.3783
 6065TIP3   OH239685   0.975   2.626  15.160 -0.3179 -0.8578 -0.0196
 6065TIP3    H139686   0.928   2.568  15.101 -0.1584 -1.0461  0.0385
 6065TIP3    H239687   0.906   2.664  15.216 -0.4811 -0.5849 -0.4036
 6066TIP3   OH239688   6.167   5.974  13.366 -0.2963 -0.4080  0.2148
 6066TIP3    H139689   6.141   5.886  13.392 -0.4883 -1.0672 -1.9998
 6066TIP3    H239690   6.146   5.979  13.272  1.4315  1.3384 -0.1539
 6067TIP3   OH239691   2.845   6.022   6.000  0.0977  0.0304  0.2333
 6067TIP3    H139692   2.754   6.024   6.028 -0.8814 -1.7580 -2.3966
 6067TIP3    H239693   2.858   6.107   5.958 -1.3310 -0.6647 -1.7949
 6068TIP3   OH239694   4.289   1.217  10.480 -0.4731 -0.2354 -0.1078
 6068TIP3    H139695   4.359   1.255  10.534  0.5536 -1.9879 -0.1388
 6068TIP3    H239696   4.266   1.286  10.419  0.3960  0.7864  0.6771
 6069TIP3   OH239697   2.862   5.317  12.552 -0.4206  0.2742  0.0278
 6069TIP3    H139698   2.885   5.320  12.645  2.3241  2.2249 -0.6193
 6069TIP3    H239699   2.860   5.408  12.524  0.2682 -0.3166 -2.1379
 6070TIP3   OH239700   2.618   0.185   5.133  0.1469  0.1073  0.2599
 6070TIP3    H139701   2.631   0.133   5.212 -0.8132  1.0544  1.0792
 6070TIP3    H239702   2.583   0.124   5.069  1.3321 -0.7642  0.4194
 6071TIP3   OH239703   3.424   5.927  14.918 -0.0614  0.1164 -0.0609
 6071TIP3    H139704   3.393   5.837  14.911 -0.5675  0.4184 -2.9182
 6071TIP3    H239705   3.384   5.972  14.843  1.6566  2.2741  0.2173
 6072TIP3   OH239706   6.592   0.560  13.973 -0.2044  0.1536  0.0510
 6072TIP3    H139707   6.685   0.545  13.957 -0.0553  1.5108 -0.4210
 6072TIP3    H239708   6.566   0.487  14.030  0.9190 -0.7464 -0.5371
 6073TIP3   OH239709   5.612   1.358  16.646 -0.0228 -0.1394 -0.1550
 6073TIP3    H139710   5.672   1.377  16.574  0.2843 -1.5119 -0.2940
 6073TIP3    H239711   5.631   1.424  16.713  1.3164 -0.2777 -0.3829
 6074TIP3   OH239712   3.586   1.836  12.134 -0.4491 -0.2826  0.3440
 6074TIP3    H139713   3.621   1.838  12.045 -0.9801 -1.1625  0.1061
 6074TIP3    H239714   3.493   1.851  12.124 -0.5238 -0.4562  0.7454
 6075TIP3   OH239715   5.047   6.777   4.203  0.5254  0.3938 -0.0787
 6075TIP3    H139716   5.124   6.720   4.197 -1.1597 -2.2770  1.7657
 6075TIP3    H239717   5.077   6.851   4.256  1.6355 -1.0216  1.3660
 6076TIP3   OH239718   6.770   2.445   5.922  0.1346  0.3453 -0.6549
 6076TIP3    H139719   6.678   2.436   5.945  0.2660  0.0985 -0.2123
 6076TIP3    H239720   6.808   2.494   5.995  0.3986  0.2361 -0.7184
 6077TIP3   OH239721   4.016   6.212   3.538 -0.0329 -0.0088 -0.0917
 6077TIP3    H139722   4.084   6.145   3.546  0.0705  0.2801  1.8036
 6077TIP3    H239723   3.934   6.166   3.553 -0.1500 -0.0650 -0.8377
 6078TIP3   OH239724   1.162   2.054  14.580 -0.0613  0.5618  0.0133
 6078TIP3    H139725   1.112   2.007  14.647  2.3697 -0.0875  1.4646
 6078TIP3    H239726   1.223   2.109  14.629  0.8843  1.0945 -1.6783
 6079TIP3   OH239727   0.765   2.003   0.007 -0.4952 -0.0070 -0.2824
 6079TIP3    H139728   0.687   2.037  -0.036 -1.0577  0.5944  1.1735
 6079TIP3    H239729   0.754   1.908   0.006  0.3723 -0.1838 -3.0261
 6080TIP3   OH239730   3.879   4.238  10.591 -0.0996 -0.1352 -0.1478
 6080TIP3    H139731   3.903   4.328  10.570 -0.4309 -0.0812 -0.3079
 6080TIP3    H239732   3.955   4.202  10.637  0.0327  0.2245 -0.0872
 6081TIP3   OH239733   6.190   6.391   0.446  0.1854  0.1463  0.0521
 6081TIP3    H139734   6.151   6.363   0.363  2.3723  1.0714 -1.3656
 6081TIP3    H239735   6.115   6.414   0.501 -1.3078  1.3548 -2.3353
 6082TIP3   OH239736   6.767   1.950  13.697 -0.4980  0.1891 -0.3457
 6082TIP3    H139737   6.816   1.878  13.736  2.9673  2.6914  0.3925
 6082TIP3    H239738   6.745   1.919  13.609 -1.3222 -2.5713  0.7250
 6083TIP3   OH239739   1.316   3.525  14.849 -0.2614 -0.3886  0.6823
 6083TIP3    H139740   1.357   3.541  14.764  0.0260 -1.7893  0.5280
 6083TIP3    H239741   1.388   3.494  14.904 -0.6899 -0.7087  1.0687
 6084TIP3   OH239742   2.347   2.323  16.671 -0.2715  0.0127  0.0389
 6084TIP3    H139743   2.329   2.394  16.609  1.2035  0.2885 -0.0894
 6084TIP3    H239744   2.436   2.294  16.650 -0.2799 -0.8431  1.1095
 6085TIP3   OH239745   4.401   6.599  11.520 -0.3167 -0.4724  0.4049
 6085TIP3    H139746   4.395   6.600  11.425  0.6468 -1.0254  0.3243
 6085TIP3    H239747   4.408   6.506  11.543  2.4701 -0.2521  0.7602
 6086TIP3   OH239748   0.247   4.166  17.281  0.5807 -0.3200 -0.4562
 6086TIP3    H139749   0.237   4.245  17.227  2.5588  0.3979  0.1568
 6086TIP3    H239750   0.315   4.188  17.344  1.2654 -2.5804 -0.3267
 6087TIP3   OH239751   6.471   2.383  11.877  0.0001  0.2896  1.0406
 6087TIP3    H139752   6.534   2.442  11.836 -1.6262  0.4329 -1.4468
 6087TIP3    H239753   6.406   2.440  11.916 -0.2364  0.1449  0.8603
 6088TIP3   OH239754   6.775   6.796  12.973  0.1876 -0.3398 -0.5023
 6088TIP3    H139755   6.720   6.735  12.923  0.1405  0.5551 -1.5696
 6088TIP3    H239756   6.846   6.819  12.913 -0.2457  1.2870 -0.4341
 6089TIP3   OH239757   0.796   3.495  10.813  0.6438 -0.3990 -0.4045
 6089TIP3    H139758   0.781   3.400  10.815 -0.1637 -0.3406 -2.2391
 6089TIP3    H239759   0.879   3.505  10.766 -0.3265 -0.1393 -2.1391
 6090TIP3   OH239760   4.122   5.806  11.328 -0.7835 -0.6302 -0.4453
 6090TIP3    H139761   4.197   5.771  11.282 -0.1675  0.3187 -0.1937
 6090TIP3    H239762   4.067   5.844  11.260  0.4688  1.4137 -0.4079
 6091TIP3   OH239763   2.275   1.456   2.529  0.1061 -0.1151 -0.4585
 6091TIP3    H139764   2.360   1.456   2.486  1.1996  0.5592  1.5814
 6091TIP3    H239765   2.256   1.364   2.545  1.5474 -0.1834  1.0513
 6092TIP3   OH239766   3.129   5.147   1.248  0.4923 -0.5354  0.0152
 6092TIP3    H139767   3.098   5.171   1.335 -1.1376  0.1929 -0.7244
 6092TIP3    H239768   3.116   5.226   1.195  1.0083 -1.1151 -1.0119
 6093TIP3   OH239769   1.320   0.992  12.135  0.2052  0.1922 -0.0334
 6093TIP3    H139770   1.243   1.032  12.175 -1.6549 -1.8526 -1.3186
 6093TIP3    H239771   1.369   0.955  12.209 -0.8014  0.2966  0.7064
 6094TIP3   OH239772   5.294   2.502  11.249 -0.1795  0.0939 -0.9054
 6094TIP3    H139773   5.223   2.443  11.276  1.3337 -1.3356  0.1394
 6094TIP3    H239774   5.332   2.461  11.171 -1.1971  1.4842 -2.1948
 6095TIP3   OH239775   1.272   6.471  10.431 -0.1820  0.3640  0.1895
 6095TIP3    H139776   1.181   6.498  10.443 -0.6199 -0.0268 -1.8858
 6095TIP3    H239777   1.269   6.376  10.437 -0.4314  0.1358 -2.4962
 6096TIP3   OH239778   5.140   5.957   0.458 -0.2081  0.1554 -0.5375
 6096TIP3    H139779   5.085   5.884   0.429  1.7950 -2.4343  1.6458
 6096TIP3    H239780   5.088   6.000   0.525 -0.5720 -0.6796 -0.2599
 6097TIP3   OH239781   3.361   0.514  10.836  0.8593  0.4845 -0.0737
 6097TIP3    H139782   3.307   0.440  10.807  0.1824  1.5708 -1.7273
 6097TIP3    H239783   3.307   0.558  10.903  0.9657 -0.0988  0.4015
 6098TIP3   OH239784   4.301   5.449  10.642  0.2524  0.8284  0.1657
 6098TIP3    H139785   4.263   5.507  10.576  1.5384 -0.3626 -1.7260
 6098TIP3    H239786   4.238   5.376  10.648  1.1850 -0.1900 -1.5330
 6099TIP3   OH239787   4.757   6.817  13.115 -0.3148  0.4655 -0.2543
 6099TIP3    H139788   4.758   6.764  13.035  1.5359  1.3839 -0.9024
 6099TIP3    H239789   4.838   6.867  13.111 -1.4060  2.4576  0.9311
 6100TIP3   OH239790   1.919   3.412   0.841  0.3084  0.1582  0.6143
 6100TIP3    H139791   1.854   3.480   0.858  0.5706  1.1216 -1.9675
 6100TIP3    H239792   1.867   3.333   0.827 -0.0434 -0.0036  2.5402
 6101TIP3   OH239793   1.017   6.494  13.944 -0.0576 -0.1973 -0.0918
 6101TIP3    H139794   1.089   6.556  13.956  0.1907 -0.5468  0.2814
 6101TIP3    H239795   0.947   6.527  14.000  0.6055 -1.0588  1.2991
 6102TIP3   OH239796   2.165   0.767  13.463 -0.0537 -0.3729  0.1328
 6102TIP3    H139797   2.071   0.782  13.471  0.1362  1.0772  0.0707
 6102TIP3    H239798   2.174   0.708  13.389 -0.8380  0.9933 -1.0985
 6103TIP3   OH239799   3.657   3.234  13.623 -0.2096 -0.3806 -0.0980
 6103TIP3    H139800   3.641   3.305  13.561  1.1019  0.5845  0.5967
 6103TIP3    H239801   3.579   3.231  13.677  0.0118  1.0888  0.3510
 6104TIP3   OH239802   6.007   5.174   1.568  0.2087 -0.1494 -0.1174
 6104TIP3    H139803   6.032   5.084   1.548 -0.0491 -0.0925 -0.7114
 6104TIP3    H239804   6.041   5.226   1.495 -0.0115  0.1780  0.0087
 6105TIP3   OH239805   2.873   5.631  14.063  0.4096 -0.1172 -0.2079
 6105TIP3    H139806   2.885   5.726  14.059 -0.7487  0.0309 -0.4598
 6105TIP3    H239807   2.840   5.607  13.977 -2.7146 -0.2027  0.8972
 6106TIP3   OH239808   3.010   0.211  10.582 -0.0088  0.2123  0.5149
 6106TIP3    H139809   2.948   0.138  10.581  0.7535 -0.5450  2.5841
 6106TIP3    H239810   3.047   0.212  10.494  0.2113 -2.1477  0.5127
 6107TIP3   OH239811   3.367   4.300   2.272  0.1481 -0.4145  0.0834
 6107TIP3    H139812   3.336   4.317   2.361  0.1356 -0.1670  0.0318
 6107TIP3    H239813   3.425   4.373   2.252 -0.0597 -0.3290 -0.2095
 6108TIP3   OH239814   6.692   5.278   5.541 -0.3857 -0.0667  0.4574
 6108TIP3    H139815   6.697   5.327   5.624 -0.8630  1.6729 -0.4860
 6108TIP3    H239816   6.600   5.286   5.514 -1.0038 -3.2394  1.2092
 6109TIP3   OH239817   4.335   4.744   3.250  0.3821 -0.0966 -0.1425
 6109TIP3    H139818   4.391   4.666   3.256  0.7269  0.1891  0.5050
 6109TIP3    H239819   4.364   4.789   3.170  0.0283 -0.7410 -0.6418
 6110TIP3   OH239820   4.776   5.852   4.377  0.3925  0.1216  0.2679
 6110TIP3    H139821   4.716   5.784   4.407 -0.3042 -0.3621 -2.0583
 6110TIP3    H239822   4.772   5.848   4.281  3.2068  0.9172  0.0279
 6111TIP3   OH239823   6.192   2.922  15.822  0.0830 -0.3354  0.0154
 6111TIP3    H139824   6.176   2.837  15.863  1.0410 -1.2905 -1.4853
 6111TIP3    H239825   6.120   2.931  15.759  0.6370 -0.6243 -0.6774
 6112TIP3   OH239826   4.509   2.408   1.543  0.7056  0.5342  0.3788
 6112TIP3    H139827   4.549   2.371   1.464 -0.3799 -3.3681  1.4606
 6112TIP3    H239828   4.453   2.478   1.510  1.0729 -0.2791 -2.2258
 6113TIP3   OH239829   6.711   5.806   1.868  0.0939  0.7210  0.4769
 6113TIP3    H139830   6.798   5.772   1.848 -0.6856  0.0796 -2.3241
 6113TIP3    H239831   6.711   5.894   1.831 -0.5533  0.5523  0.0608
 6114TIP3   OH239832   5.624   3.784  16.949  0.1356 -0.3095  0.7508
 6114TIP3    H139833   5.663   3.725  17.014  2.2979  0.9235  0.6587
 6114TIP3    H239834   5.642   3.742  16.865 -1.3850 -1.1782  0.8196
 6115TIP3   OH239835   4.290   0.646   2.633  0.2044  0.5054 -0.1649
 6115TIP3    H139836   4.284   0.635   2.538  0.9157  2.8743 -0.5359
 6115TIP3    H239837   4.266   0.560   2.668  1.8751 -1.0580 -2.5297
 6116TIP3   OH239838   5.885   6.217  15.003 -0.2446  0.0455  0.1160
 6116TIP3    H139839   5.959   6.222  15.063 -0.4319  1.3626  0.2753
 6116TIP3    H239840   5.893   6.295  14.949 -0.2200 -0.9982 -1.4419
 6117TIP3   OH239841   2.057   5.638  15.320  0.7005  0.1011 -0.3480
 6117TIP3    H139842   1.965   5.620  15.343  0.1650 -1.5038 -3.3294
 6117TIP3    H239843   2.098   5.552  15.319  2.6267  0.8851  1.9754
 6118TIP3   OH239844   0.276   1.375  14.599 -0.0325  0.2688  0.6109
 6118TIP3    H139845   0.300   1.463  14.630  0.1602  1.2655 -2.1254
 6118TIP3    H239846   0.360   1.331  14.587 -0.0764  0.1015  0.9192
 6119TIP3   OH239847   0.558   5.260   1.858 -0.0964  0.0168 -0.1318
 6119TIP3    H139848   0.603   5.344   1.849 -1.2635  0.6578 -0.2866
 6119TIP3    H239849   0.465   5.282   1.846 -0.4418 -1.2621  0.0715
 6120TIP3   OH239850   5.296   5.206  16.346 -0.0179 -0.1920 -0.2570
 6120TIP3    H139851   5.327   5.266  16.414 -0.6861 -1.6462  1.4137
 6120TIP3    H239852   5.375   5.178  16.301  0.3195  1.8683 -1.0654
 6121TIP3   OH239853   1.511   6.760  12.066  0.4654 -0.2053  0.2251
 6121TIP3    H139854   1.602   6.730  12.059 -0.1481 -2.0757 -0.5702
 6121TIP3    H239855   1.505   6.832  12.003  0.9159 -1.4683 -1.3384
 6122TIP3   OH239856   0.945   3.138   1.995  0.3236 -0.2060  0.4777
 6122TIP3    H139857   1.036   3.109   1.989  0.1406 -1.3451  2.2815
 6122TIP3    H239858   0.950   3.228   2.027  0.8585 -0.7676  2.1189
 6123TIP3   OH239859   0.100   6.452   5.549  0.3552 -0.0507 -0.2109
 6123TIP3    H139860   0.175   6.502   5.515  0.5445  1.1823  1.8723
 6123TIP3    H239861   0.140   6.384   5.603 -0.0011 -0.7067 -0.7571
 6124TIP3   OH239862   4.771   2.011   0.716  0.0387 -0.3187  0.3199
 6124TIP3    H139863   4.848   2.065   0.735 -0.7875  0.8297  0.4704
 6124TIP3    H239864   4.805   1.940   0.660  1.2973 -0.1438  0.8224
 6125TIP3   OH239865   3.841   6.701   5.131 -0.5752 -0.1426  0.0891
 6125TIP3    H139866   3.827   6.675   5.040 -0.2979 -1.4940  0.4087
 6125TIP3    H239867   3.852   6.618   5.178 -1.5607  0.4779  1.4968
 6126TIP3   OH239868   2.757   2.735  16.080 -0.0655  0.2783  0.5543
 6126TIP3    H139869   2.704   2.706  16.005  1.6168 -1.4651 -0.0486
 6126TIP3    H239870   2.806   2.810  16.047  0.6036 -0.4281 -0.0999
 6127TIP3   OH239871   6.817   3.393   1.369  0.3744  0.0288 -0.2310
 6127TIP3    H139872   6.904   3.416   1.336  0.1542 -0.0614 -0.8763
 6127TIP3    H239873   6.775   3.345   1.297 -0.0135 -0.3972  0.2697
 6128TIP3   OH239874   4.894   5.934  17.271  0.0774 -0.1425  0.1913
 6128TIP3    H139875   4.930   5.906  17.355  1.1558  0.6834  0.0286
 6128TIP3    H239876   4.886   6.029  17.279  1.1037  0.0697 -0.9500
 6129TIP3   OH239877   0.750   0.531  14.499  0.3844  0.3602 -0.6426
 6129TIP3    H139878   0.738   0.625  14.513 -1.4803  0.1214 -0.2838
 6129TIP3    H239879   0.832   0.510  14.542  0.4394  1.6954 -0.0475
 6130TIP3   OH239880   1.628   0.005  13.634 -0.9372 -0.4750  0.0550
 6130TIP3    H139881   1.602   0.071  13.570 -1.4920 -1.2671 -0.5522
 6130TIP3    H239882   1.594   0.037  13.718 -1.6714 -0.2572 -0.3220
 6131TIP3   OH239883   2.134   4.566  17.125 -0.0705  0.2755 -0.1966
 6131TIP3    H139884   2.079   4.620  17.182 -0.7278 -0.5705 -0.0077
 6131TIP3    H239885   2.173   4.501  17.183  0.8307  0.6225 -0.3979
 6132TIP3   OH239886   0.847   5.766   1.371  0.6783  0.0571 -0.1883
 6132TIP3    H139887   0.887   5.681   1.350  0.6802  0.4660 -1.9284
 6132TIP3    H239888   0.862   5.775   1.465  0.3140 -2.0494  0.1337
 6133TIP3   OH239889   2.281   1.255   4.574  0.9854 -0.0333 -0.1541
 6133TIP3    H139890   2.289   1.350   4.583 -0.6996  0.0281  1.3486
 6133TIP3    H239891   2.356   1.229   4.520  1.2221  2.1888 -0.9964
 6134TIP3   OH239892   1.994   4.895   0.808 -0.8732 -0.2000  0.1987
 6134TIP3    H139893   2.087   4.910   0.795 -0.9424  0.2737  0.2487
 6134TIP3    H239894   1.955   4.909   0.722 -1.0473  0.7633  0.4289
 6135TIP3   OH239895   4.439   4.876   1.082  0.5403  0.1547  0.4117
 6135TIP3    H139896   4.379   4.881   1.009  1.5540  0.1990 -0.4405
 6135TIP3    H239897   4.525   4.895   1.044  1.3123 -1.3605  1.3064
 6136TIP3   OH239898   3.554   3.806  14.597  0.6159 -0.0806 -0.3255
 6136TIP3    H139899   3.479   3.831  14.651  0.2862 -1.5612 -0.0264
 6136TIP3    H239900   3.625   3.863  14.625  0.4246 -0.7443  1.6493
 6137TIP3   OH239901   3.531   2.957  13.681  0.2340 -0.2162 -0.5238
 6137TIP3    H139902   3.607   2.982  13.628  0.0379  0.0250 -0.6977
 6137TIP3    H239903   3.559   2.968  13.771  0.5738 -0.6279 -0.5760
 6138TIP3   OH239904   1.647   6.608   0.078  0.5977  0.7816  0.5046
 6138TIP3    H139905   1.604   6.624   0.162  0.4667  3.1126  0.0793
 6138TIP3    H239906   1.739   6.626   0.094  1.1976 -2.1843  0.9122
 6139TIP3   OH239907   2.928   3.840   3.978 -0.5058  0.3688 -0.5187
 6139TIP3    H139908   2.885   3.837   3.892  0.7619 -2.3005 -1.1686
 6139TIP3    H239909   3.021   3.834   3.958 -0.2325 -3.7863  0.9568
 6140TIP3   OH239910   1.530   2.073  14.832  0.0777  0.0662 -0.0421
 6140TIP3    H139911   1.556   2.083  14.923  1.1395  2.7564 -0.5280
 6140TIP3    H239912   1.561   2.153  14.790  0.2073 -1.3803 -2.9225
 6141TIP3   OH239913   3.022   0.459   2.085 -0.0996  0.0365 -0.2741
 6141TIP3    H139914   2.947   0.517   2.100  0.1783  0.3073  0.0720
 6141TIP3    H239915   2.998   0.410   2.006 -0.5591  0.2567 -0.2764
 6142TIP3   OH239916   1.687   3.566  14.000  0.0498 -0.2013 -0.2221
 6142TIP3    H139917   1.745   3.512  14.054 -0.4168 -1.2448 -0.7347
 6142TIP3    H239918   1.745   3.621  13.948  0.5220  0.2197  0.7258
 6143TIP3   OH239919   0.612   3.699   1.681 -0.5763  0.1340 -0.3693
 6143TIP3    H139920   0.599   3.746   1.764  0.0326  0.6971 -0.5780
 6143TIP3    H239921   0.676   3.631   1.702 -1.7421 -0.8729  0.0222
 6144TIP3   OH239922   3.738   1.244  12.410 -0.1672  0.4547 -0.2566
 6144TIP3    H139923   3.723   1.191  12.488 -1.8480  0.7422 -0.3487
 6144TIP3    H239924   3.833   1.242  12.397 -0.1198 -2.4194 -0.1741
 6145TIP3   OH239925   4.032   4.618  15.741  0.9430 -0.3815 -0.1347
 6145TIP3    H139926   4.020   4.589  15.650 -1.4180 -1.6683  0.5143
 6145TIP3    H239927   3.956   4.674  15.759  1.7536  0.4499  0.8667
 6146TIP3   OH239928   5.740   5.449  14.755  0.0577 -0.1621 -0.0045
 6146TIP3    H139929   5.673   5.402  14.705 -1.2786  2.4517 -0.8615
 6146TIP3    H239930   5.759   5.526  14.702  2.5249  0.0472  1.0754
 6147TIP3   OH239931   2.036   6.602   4.211 -0.0980 -0.0737 -0.0527
 6147TIP3    H139932   2.114   6.556   4.243  0.1745  0.2047 -0.3141
 6147TIP3    H239933   2.054   6.694   4.229 -0.2862  0.0074 -0.2868
 6148TIP3   OH239934   6.136   2.184   1.215  0.5329  0.2162  0.4242
 6148TIP3    H139935   6.165   2.157   1.302 -1.0257 -1.9599  0.3348
 6148TIP3    H239936   6.146   2.106   1.160 -1.1144  0.7222 -0.6776
 6149TIP3   OH239937   1.594   0.891   4.299 -0.0863 -0.5276  0.1313
 6149TIP3    H139938   1.548   0.941   4.232  1.7341  1.2174  0.1052
 6149TIP3    H239939   1.591   0.945   4.377 -2.1699 -2.5332  1.5857
 6150TIP3   OH239940   3.619   5.464   3.399 -1.1319  0.2639 -0.0151
 6150TIP3    H139941   3.553   5.404   3.432 -0.6013 -1.0678 -1.2477
 6150TIP3    H239942   3.701   5.416   3.406 -0.6207  1.0090 -0.6285
 6151TIP3   OH239943   6.702   3.361   5.040  0.1307 -0.5317 -0.3820
 6151TIP3    H139944   6.674   3.381   4.950 -0.3605 -0.9137 -0.3173
 6151TIP3    H239945   6.711   3.265   5.041  1.6708 -0.4147 -0.4618
 6152TIP3   OH239946   3.880   0.512   2.782 -0.0976 -0.0739  0.1772
 6152TIP3    H139947   3.948   0.472   2.728 -2.0363 -1.8878 -1.0681
 6152TIP3    H239948   3.877   0.457   2.861  0.7577  0.8230  0.8541
 6153TIP3   OH239949   2.302   6.508   0.015 -0.2200  0.1349  0.0238
 6153TIP3    H139950   2.313   6.458   0.096 -1.5008 -0.8691 -0.3745
 6153TIP3    H239951   2.313   6.599   0.041  1.5204 -0.2936  0.9045
 6154TIP3   OH239952   6.693   2.715  16.274 -0.2082  0.4659 -0.0642
 6154TIP3    H139953   6.743   2.788  16.309  1.9747 -0.7913 -0.3430
 6154TIP3    H239954   6.663   2.666  16.351  0.3429  0.3805  0.0965
 6155TIP3   OH239955   6.288   4.165   0.581 -0.0170 -0.1679  0.1254
 6155TIP3    H139956   6.229   4.200   0.515 -0.9087  0.2756  1.1268
 6155TIP3    H239957   6.342   4.101   0.534 -0.9764 -0.2444 -0.9120
 6156TIP3   OH239958   0.290   6.709  15.184 -0.0351 -0.2410 -0.3372
 6156TIP3    H139959   0.357   6.712  15.115  1.4380  0.5768  1.0459
 6156TIP3    H239960   0.319   6.639  15.243  0.4523  1.0614  1.0390
 6157TIP3   OH239961   5.198   0.294   4.296  0.1312  0.4805 -0.0337
 6157TIP3    H139962   5.279   0.346   4.289  0.7426 -0.2515  1.1638
 6157TIP3    H239963   5.228   0.204   4.289 -0.3353  0.1175  2.0085
 6158TIP3   OH239964   5.982   6.544   3.153 -0.2504  0.0341 -0.0785
 6158TIP3    H139965   5.991   6.452   3.178 -0.4432 -0.1853 -0.7861
 6158TIP3    H239966   6.001   6.545   3.059  1.4808  0.9852  0.2363
 6159TIP3   OH239967   0.485   0.128  15.515 -0.0720  0.3029  0.1216
 6159TIP3    H139968   0.515   0.206  15.468 -1.6094  1.0274  0.2418
 6159TIP3    H239969   0.390   0.139  15.520 -0.2720 -1.3503  0.5944
 6160TIP3   OH239970   2.360   3.182  16.808  0.4505 -0.0010 -0.1863
 6160TIP3    H139971   2.289   3.122  16.827  0.5245 -0.2784 -0.7508
 6160TIP3    H239972   2.438   3.142  16.847  0.1349  0.8182  1.3487
 6161TIP3   OH239973   4.594   5.663   3.951 -0.0380 -0.4662  0.0387
 6161TIP3    H139974   4.502   5.662   3.975  0.2289  0.0250  1.1203
 6161TIP3    H239975   4.606   5.583   3.899 -0.9229 -0.8681  0.4392
 6162TIP3   OH239976   1.311   2.030   5.371  0.2216 -0.9893  0.4105
 6162TIP3    H139977   1.279   1.944   5.344  0.8857 -1.0974 -0.0511
 6162TIP3    H239978   1.292   2.034   5.465  1.2201 -2.1137  0.6786
 6163TIP3   OH239979   2.877   5.585  13.765  0.5081  0.0258 -0.3387
 6163TIP3    H139980   2.814   5.621  13.703  0.1029  0.3419  0.2468
 6163TIP3    H239981   2.884   5.492  13.741 -0.7721 -0.1920  0.0737
 6164TIP3   OH239982   1.551   5.201  17.111 -0.1131  0.2370 -0.0522
 6164TIP3    H139983   1.601   5.154  17.179  1.9968  0.3247 -1.4264
 6164TIP3    H239984   1.495   5.261  17.159 -0.3593 -1.2880  1.6640
 6165TIP3   OH239985   3.429   0.703   1.711  0.5128  0.4762 -0.4157
 6165TIP3    H139986   3.430   0.607   1.719  1.4415  0.4383 -0.9494
 6165TIP3    H239987   3.413   0.719   1.618  1.7886  0.8217 -0.5872
 6166TIP3   OH239988   1.024   1.374   0.064  0.3591 -0.1507 -0.5249
 6166TIP3    H139989   0.942   1.422   0.073  0.2690 -0.3509 -0.2731
 6166TIP3    H239990   1.090   1.443   0.049  0.4909  0.2131  1.4581
 6167TIP3   OH239991   1.820   3.473   6.229  0.2673  0.1260  0.0483
 6167TIP3    H139992   1.881   3.506   6.294  0.3799  0.3934 -0.1921
 6167TIP3    H239993   1.836   3.526   6.151 -1.7540  1.6772  0.6106
 6168TIP3   OH239994   2.499   4.095  14.006  0.7008 -0.0024  0.1418
 6168TIP3    H139995   2.545   4.129  14.083  0.0629  0.0658  0.4994
 6168TIP3    H239996   2.503   4.000  14.015  1.5325 -0.0117 -0.2867
 6169TIP3   OH239997   2.053   3.029  15.214 -0.0087  0.1818 -0.2521
 6169TIP3    H139998   2.031   3.120  15.231 -1.3195 -0.3595  1.2396
 6169TIP3    H239999   2.000   3.005  15.138 -0.3613  0.4202 -0.0831
 6170TIP3   OH240000   4.672   6.270   0.335 -0.5495 -0.7054  0.3866
 6170TIP3    H140001   4.626   6.229   0.262 -1.8303 -0.2798  0.9349
 6170TIP3    H240002   4.759   6.229   0.335 -1.3321 -2.4148  0.0868
 6171TIP3   OH240003   4.742   5.774  12.874  0.3407 -0.1000  0.3267
 6171TIP3    H140004   4.767   5.862  12.902 -0.2806 -0.4198  2.0356
 6171TIP3    H240005   4.779   5.764  12.787  2.6454  0.9104  1.1348
 6172TIP3   OH240006   0.957   2.120  11.369 -0.7019 -0.0304  0.5825
 6172TIP3    H140007   0.886   2.121  11.304  0.0851  1.0824 -0.3029
 6172TIP3    H240008   1.035   2.096  11.320  0.3260  2.8908  0.5553
 6173TIP3   OH240009   3.922   6.416   0.238 -0.2177 -0.0065  0.3857
 6173TIP3    H140010   3.982   6.442   0.168 -1.7713  2.7211 -0.1177
 6173TIP3    H240011   3.863   6.353   0.197 -0.1993  0.4376 -0.3488
 6174TIP3   OH240012   3.498   2.579  14.771  0.1623 -0.4967 -0.5688
 6174TIP3    H140013   3.525   2.581  14.679 -0.1570  1.8108 -0.6763
 6174TIP3    H240014   3.406   2.552  14.768  0.1483 -0.4194 -0.9395
 6175TIP3   OH240015   0.862   3.243   4.039 -0.8850 -0.0826 -0.7673
 6175TIP3    H140016   0.910   3.164   4.013 -3.0389 -1.1071 -1.9580
 6175TIP3    H240017   0.894   3.263   4.127 -0.0958 -2.1503 -0.5283
 6176TIP3   OH240018   4.646   5.766  11.462 -0.4621  0.4668 -0.0686
 6176TIP3    H140019   4.655   5.824  11.538  0.2746 -0.0014  0.2124
 6176TIP3    H240020   4.586   5.698  11.491 -0.0708  0.2107  0.1464
 6177TIP3   OH240021   0.657   6.191  11.816  0.8152  0.2142  0.3707
 6177TIP3    H140022   0.671   6.268  11.871 -0.6499  0.8669 -0.1418
 6177TIP3    H240023   0.569   6.201  11.781  1.1150 -1.0081 -0.8265
 6178TIP3   OH240024   5.475   1.721  13.735 -0.0532 -0.2165 -0.3532
 6178TIP3    H140025   5.540   1.790  13.720  1.1404 -1.1085  0.5281
 6178TIP3    H240026   5.408   1.763  13.789  1.0807  0.0692  0.8917
 6179TIP3   OH240027   3.269   4.552  15.894 -0.5646 -0.1476  0.1804
 6179TIP3    H140028   3.345   4.610  15.893  0.1664 -1.0808 -0.2593
 6179TIP3    H240029   3.197   4.607  15.864 -0.3026  1.0338  1.6045
 6180TIP3   OH240030   5.460   3.515  17.229  0.1245 -0.0446  0.2060
 6180TIP3    H140031   5.433   3.606  17.216 -1.7373 -0.4683  0.7607
 6180TIP3    H240032   5.393   3.463  17.184  1.1421 -1.1478 -0.0842
 6181TIP3   OH240033   2.566   2.176   3.889  0.1168  0.1327 -0.0424
 6181TIP3    H140034   2.515   2.100   3.860 -0.3099 -0.1311  1.3194
 6181TIP3    H240035   2.529   2.250   3.841 -1.0514 -0.1741  0.3464
 6182TIP3   OH240036   6.446   6.176  14.978  0.3076  0.0375  0.5391
 6182TIP3    H140037   6.479   6.264  14.996 -0.2179  0.4752 -0.5655
 6182TIP3    H240038   6.384   6.188  14.906  0.4824 -1.2794  0.1472
 6183TIP3   OH240039   5.894   0.001  10.970 -0.1402 -0.1827  0.3357
 6183TIP3    H140040   5.881   0.095  10.954 -1.2291 -0.2557  0.7174
 6183TIP3    H240041   5.864  -0.011  11.060  1.0174 -0.7129  0.6687
 6184TIP3   OH240042   5.772   5.519   2.969  0.0566 -0.2283 -0.1630
 6184TIP3    H140043   5.685   5.506   3.007  0.0279  0.6660  0.1119
 6184TIP3    H240044   5.795   5.434   2.933 -1.8125  0.0084 -2.0954
 6185TIP3   OH240045   0.743   3.778   1.339 -0.4440  0.2854  0.4293
 6185TIP3    H140046   0.805   3.795   1.268 -1.5968 -1.3488 -1.0697
 6185TIP3    H240047   0.778   3.700   1.382 -0.5243  0.4081  0.7182
 6186TIP3   OH240048   3.102   5.308  17.029 -0.3563 -0.0639 -0.6604
 6186TIP3    H140049   3.131   5.225  16.990 -2.5314 -1.2762  0.1246
 6186TIP3    H240050   3.012   5.319  16.998 -0.7417  1.0347  0.7439
 6187TIP3   OH240051   0.581   6.079  11.244  0.7097  0.2557 -0.0733
 6187TIP3    H140052   0.512   6.042  11.189  0.2046  2.3125 -0.9347
 6187TIP3    H240053   0.543   6.083  11.332 -0.0862  0.8580 -0.4337
 6188TIP3   OH240054   3.816   4.791  10.516 -0.3801 -0.3944  0.4069
 6188TIP3    H140055   3.878   4.865  10.523 -0.9251  0.1050  0.0247
 6188TIP3    H240056   3.730   4.831  10.529 -0.5793 -1.2466  2.0130
 6189TIP3   OH240057   0.853   4.642   3.547  0.1279  0.5554  0.0096
 6189TIP3    H140058   0.849   4.556   3.590  2.8249  0.5661  0.5044
 6189TIP3    H240059   0.805   4.630   3.466 -1.5249 -0.7204  1.1074
 6190TIP3   OH240060   6.554   1.399  13.363 -0.1974 -0.0888 -0.5404
 6190TIP3    H140061   6.503   1.468  13.405  0.4724  0.2621 -0.2873
 6190TIP3    H240062   6.565   1.333  13.431 -0.1594 -0.0851 -0.5432
 6191TIP3   OH240063   4.055   6.135   2.905 -0.5845 -0.1005 -0.2157
 6191TIP3    H140064   4.015   6.214   2.870  1.3394  0.7763 -0.6050
 6191TIP3    H240065   4.098   6.094   2.830  0.1953 -0.3733  0.3535
 6192TIP3   OH240066   1.246   0.093  10.702  0.5071  0.1869 -0.7833
 6192TIP3    H140067   1.225   0.057  10.788 -2.0127  0.0586 -1.3978
 6192TIP3    H240068   1.196   0.174  10.697  1.0792  0.4908 -1.9297
 6193TIP3   OH240069   3.418   3.267  13.765 -0.2099  0.0423 -0.1674
 6193TIP3    H140070   3.379   3.180  13.773 -1.2776  0.0795 -3.3033
 6193TIP3    H240071   3.347   3.321  13.728  0.8340  1.9141  0.4347
 6194TIP3   OH240072   1.826   1.985  15.164 -0.1642  0.3936 -0.1013
 6194TIP3    H140073   1.878   1.940  15.230 -0.4255  1.1708  0.6580
 6194TIP3    H240074   1.795   1.915  15.106  0.9141 -0.1804 -0.0073
 6195TIP3   OH240075   1.088   5.057   4.432  0.2409 -0.4287 -0.6085
 6195TIP3    H140076   1.005   5.010   4.431 -1.0939  1.7496 -2.4359
 6195TIP3    H240077   1.137   5.021   4.358  0.2645 -0.6550 -0.4820
 6196TIP3   OH240078   4.639   2.630   0.462  0.0783  0.0967 -0.5680
 6196TIP3    H140079   4.706   2.637   0.531  0.1659 -0.7398 -0.5470
 6196TIP3    H240080   4.598   2.716   0.459 -0.5349 -0.0780  1.1582
 6197TIP3   OH240081   3.416   5.034   3.541 -0.3199  0.2500 -0.5186
 6197TIP3    H140082   3.373   4.965   3.591 -0.6049  0.3569 -0.6094
 6197TIP3    H240083   3.440   5.099   3.607  0.2408 -0.0838 -0.3946
 6198TIP3   OH240084   0.494   3.965   2.757 -0.0518  0.2023  0.0657
 6198TIP3    H140085   0.531   3.889   2.712 -0.9084  0.6414 -1.4419
 6198TIP3    H240086   0.426   3.929   2.814 -1.4610 -0.0706 -1.7231
 6199TIP3   OH240087   3.802   6.784  13.865  0.1548 -0.2290 -0.0569
 6199TIP3    H140088   3.836   6.706  13.822 -0.1091 -0.2309 -0.2659
 6199TIP3    H240089   3.759   6.752  13.944 -1.5781 -0.5133 -1.0644
 6200TIP3   OH240090   4.243   6.000  14.501 -0.5589  0.3672  0.1557
 6200TIP3    H140091   4.269   6.017  14.591 -0.1888  1.3587 -0.1227
 6200TIP3    H240092   4.232   6.087  14.463 -2.4181 -0.0136 -0.2796
 6201TIP3   OH240093   6.472   4.697   1.832 -0.1339  0.1186  0.0487
 6201TIP3    H140094   6.487   4.792   1.825 -1.2694  0.4073  1.0831
 6201TIP3    H240095   6.424   4.687   1.914  2.1944 -1.6546  1.2914
 6202TIP3   OH240096   3.095   0.081   4.067 -0.1923 -0.1911  0.2009
 6202TIP3    H140097   3.176   0.061   4.112 -0.5000  1.4817  1.6098
 6202TIP3    H240098   3.056   0.152   4.118 -1.1458  1.0142 -2.0431
 6203TIP3   OH240099   0.590   6.774   5.307 -0.2491 -0.1301 -0.4911
 6203TIP3    H140100   0.675   6.730   5.302 -0.3416 -0.5357  1.0955
 6203TIP3    H240101   0.609   6.865   5.287  0.8048  0.0412  1.1208
 6204TIP3   OH240102   0.905   1.159   4.578 -0.1895 -0.1993  0.0961
 6204TIP3    H140103   0.853   1.081   4.559 -0.3564 -0.9615  3.1134
 6204TIP3    H240104   0.996   1.131   4.569 -0.2581 -0.4118  0.0704
 6205TIP3   OH240105   4.618   5.726   4.908  0.2778  0.5861  0.1017
 6205TIP3    H140106   4.591   5.780   4.834  0.0406 -0.5932 -0.7005
 6205TIP3    H240107   4.714   5.724   4.903  0.2218 -1.5382 -1.7612
 6206TIP3   OH240108   6.291   1.066   2.244 -0.1560  0.2464 -0.2999
 6206TIP3    H140109   6.275   1.087   2.336  0.7593 -2.2314  0.5180
 6206TIP3    H240110   6.240   1.130   2.195 -1.3102  1.1414  1.9367
 6207TIP3   OH240111   2.754   5.371   1.226 -0.1997  0.3225  0.0978
 6207TIP3    H140112   2.832   5.333   1.184 -0.8540 -0.9143 -0.0537
 6207TIP3    H240113   2.729   5.443   1.169 -0.3365 -0.5460 -0.9780
 6208TIP3   OH240114   0.360   5.474  15.231  0.4430  0.0021 -0.2697
 6208TIP3    H140115   0.282   5.512  15.270  1.2038  1.3929 -0.0417
 6208TIP3    H240116   0.391   5.410  15.296  0.5714  0.8333  0.4961
 6209TIP3   OH240117   6.569   3.397  15.391  0.0608 -0.2184 -0.5288
 6209TIP3    H140118   6.640   3.451  15.356 -0.0380  0.3239  0.0846
 6209TIP3    H240119   6.581   3.311  15.349  2.3466 -0.7801  1.0583
 6210TIP3   OH240120   2.252   0.920   2.228  0.1523 -0.6000 -0.3764
 6210TIP3    H140121   2.276   0.975   2.154  2.4847 -3.4787 -1.9405
 6210TIP3    H240122   2.264   0.977   2.305  1.8058  1.2568 -1.9001
 6211TIP3   OH240123   1.314   2.451  14.483  0.0516 -0.4855  0.0256
 6211TIP3    H140124   1.272   2.490  14.406 -0.1030 -0.8006 -0.0503
 6211TIP3    H240125   1.326   2.525  14.544 -0.2321 -0.3200 -0.1196
 6212TIP3   OH240126   2.843   2.166  11.627 -0.2604 -0.3682 -0.1483
 6212TIP3    H140127   2.859   2.118  11.708 -0.7677  0.6159  0.5632
 6212TIP3    H240128   2.748   2.161  11.615 -0.4188  1.0151  0.3239
 6213TIP3   OH240129   2.109   0.312  14.735 -0.2327  0.5387  0.6324
 6213TIP3    H140130   2.118   0.291  14.828 -1.3803  0.3280  0.7139
 6213TIP3    H240131   2.017   0.292  14.715  0.0709  0.3240 -0.6091
 6214TIP3   OH240132   6.063   1.257  12.962  0.1159  0.0913  0.4520
 6214TIP3    H140133   5.975   1.253  13.001  0.0228 -0.2923  0.2137
 6214TIP3    H240134   6.120   1.217  13.028  0.1287  0.4217  0.6441
 6215TIP3   OH240135   1.917   6.622   1.675  0.4747  0.2011  0.0801
 6215TIP3    H140136   1.957   6.558   1.734  1.3583 -0.0678 -0.7826
 6215TIP3    H240137   1.969   6.616   1.595 -0.1175  1.2249 -0.3963
 6216TIP3   OH240138   0.281   1.949   0.160 -1.3096  0.6425 -0.6070
 6216TIP3    H140139   0.342   1.983   0.226  0.8967  0.0908 -2.2265
 6216TIP3    H240140   0.311   1.989   0.078 -4.0819  1.4571 -1.3137
 6217TIP3   OH240141   0.404   4.937   2.142  0.2593 -0.0564  0.0706
 6217TIP3    H140142   0.383   5.031   2.146  0.8674  0.0339  1.5223
 6217TIP3    H240143   0.321   4.895   2.120 -0.2591  0.7364  0.4719
 6218TIP3   OH240144   1.176   2.638  11.971  0.2541 -0.6432 -0.3717
 6218TIP3    H140145   1.175   2.712  11.910 -1.3920 -1.1139 -0.9643
 6218TIP3    H240146   1.203   2.676  12.054 -0.4501  0.6250 -0.6930
 6219TIP3   OH240147   3.166   2.272  13.891  0.0736 -0.0721 -0.1196
 6219TIP3    H140148   3.189   2.182  13.913 -3.3194 -0.8553  0.8548
 6219TIP3    H240149   3.182   2.321  13.972 -0.9164 -0.4508  0.3170
 6220TIP3   OH240150   0.828   3.151  12.726  0.8055  0.3558  0.0169
 6220TIP3    H140151   0.814   3.234  12.772  3.9051  2.0070 -1.6242
 6220TIP3    H240152   0.743   3.131  12.687 -1.1149  0.5062  3.6547
 6221TIP3   OH240153   3.399   3.297  14.503 -0.1676 -0.0517 -0.5139
 6221TIP3    H140154   3.330   3.364  14.502  0.0132  0.1357 -0.4858
 6221TIP3    H240155   3.477   3.343  14.473  0.5908  0.4484  2.0231
 6222TIP3   OH240156   5.667   6.579  12.418  0.1553 -0.1650  0.1346
 6222TIP3    H140157   5.716   6.640  12.363  0.0063  1.5428  1.7987
 6222TIP3    H240158   5.576   6.593  12.393  0.1089  0.4364  0.6043
 6223TIP3   OH240159   1.052   5.681   3.075  0.4680 -0.2196  0.1678
 6223TIP3    H140160   1.092   5.759   3.037  1.2169 -0.2339  0.9100
 6223TIP3    H240161   0.962   5.708   3.094  0.4634  0.1859 -0.3729
 6224TIP3   OH240162   5.593   1.784  15.702 -0.2259  0.0512  0.4284
 6224TIP3    H140163   5.639   1.755  15.623 -0.9052  1.5809 -0.5780
 6224TIP3    H240164   5.518   1.724  15.709  0.1164 -0.4113  0.2199
 6225TIP3   OH240165   3.171   4.811  15.393  0.4444  0.0535  0.1189
 6225TIP3    H140166   3.240   4.763  15.438  0.7377  0.7697  0.4624
 6225TIP3    H240167   3.111   4.837  15.462 -0.4262 -0.9636 -0.2418
 6226TIP3   OH240168   5.833   2.572   0.485 -0.3178  0.1610  0.0476
 6226TIP3    H140169   5.793   2.658   0.480  1.2050  0.8276 -2.9002
 6226TIP3    H240170   5.926   2.590   0.501  0.0272 -0.8887 -0.6354
 6227TIP3   OH240171   2.518   0.917   5.488 -0.3998  0.0411 -0.6046
 6227TIP3    H140172   2.471   0.927   5.405  2.3133 -0.2327 -2.3257
 6227TIP3    H240173   2.539   1.007   5.515  0.9118  0.0985 -1.6763
 6228TIP3   OH240174   6.523   1.181  14.859 -0.1088  0.1553  0.3961
 6228TIP3    H140175   6.592   1.238  14.892  0.5439 -0.0255 -0.6108
 6228TIP3    H240176   6.464   1.240  14.811  0.1304  0.1000  0.0345
 6229TIP3   OH240177   1.453   5.576  11.416 -0.5941  0.0707  0.1465
 6229TIP3    H140178   1.436   5.541  11.329  2.0255 -0.0356 -0.4139
 6229TIP3    H240179   1.502   5.507  11.461 -0.1880  0.8835  1.0042
 6230TIP3   OH240180   3.265   0.452  16.871  0.9875 -0.6926 -0.1491
 6230TIP3    H140181   3.312   0.398  16.807 -0.0913  0.1068 -1.7089
 6230TIP3    H240182   3.305   0.538  16.862  0.9936 -0.6355  0.4436
 6231TIP3   OH240183   4.368   0.562  13.006  0.2304  0.2544  0.1174
 6231TIP3    H140184   4.349   0.631  13.069 -0.2111 -0.0014  0.2641
 6231TIP3    H240185   4.308   0.578  12.933  0.9243  0.7100 -0.3643
 6232TIP3   OH240186   6.622   1.006   5.419  0.3313 -0.4339  0.4199
 6232TIP3    H140187   6.665   0.964   5.344  0.2109  0.7719 -0.3412
 6232TIP3    H240188   6.626   0.940   5.488  1.6973 -1.0549 -0.2153
 6233TIP3   OH240189   1.449   0.989   0.052 -0.2447 -0.1828  0.0042
 6233TIP3    H140190   1.518   0.969  -0.012 -1.7076 -3.0806 -0.8648
 6233TIP3    H240191   1.369   0.997  -0.000 -1.0342  0.2489  1.2289
 6234TIP3   OH240192   6.054   4.574  11.885 -0.4246  0.3714  0.4424
 6234TIP3    H140193   6.064   4.595  11.792  0.6373  0.7877  0.6337
 6234TIP3    H240194   6.001   4.645  11.920 -2.3134 -0.6723 -0.1507
 6235TIP3   OH240195   3.277   0.309  11.910  0.0251  0.3499  0.2397
 6235TIP3    H140196   3.287   0.234  11.968 -0.2622 -0.8726 -1.2245
 6235TIP3    H240197   3.344   0.296  11.842 -1.5885  0.0613 -1.3861
 6236TIP3   OH240198   4.228   2.416   4.111  0.0727  0.0293  0.1899
 6236TIP3    H140199   4.265   2.449   4.193  0.2562 -0.1579  0.1853
 6236TIP3    H240200   4.199   2.327   4.132  0.1640 -0.0365  0.0409
 6237TIP3   OH240201   3.369   4.642   0.808  0.1080  0.0782 -0.0052
 6237TIP3    H140202   3.296   4.616   0.864 -0.6632  2.1835  0.0388
 6237TIP3    H240203   3.446   4.607   0.853 -0.6340  0.2577  1.4782
 6238TIP3   OH240204   0.449   6.420  12.807 -0.1766 -0.4685 -0.4623
 6238TIP3    H140205   0.461   6.374  12.724 -0.0476  0.2972 -0.8742
 6238TIP3    H240206   0.537   6.447  12.833 -0.4873  1.6555 -1.4623
 6239TIP3   OH240207   1.641   2.213  15.421  0.5441 -0.1513  0.0613
 6239TIP3    H140208   1.607   2.249  15.339 -1.0782  0.8057  1.1026
 6239TIP3    H240209   1.695   2.282  15.458 -1.3446  0.7456  1.3192
 6240TIP3   OH240210   2.531   4.074   0.776  0.2078 -0.1264  0.3574
 6240TIP3    H140211   2.517   4.062   0.682  0.1562  2.5485 -0.0535
 6240TIP3    H240212   2.595   4.007   0.800 -0.5889 -1.5726 -1.3166
 6241TIP3   OH240213   4.705   2.304   0.812  0.0118  0.0635 -0.0667
 6241TIP3    H140214   4.783   2.357   0.796 -0.1554 -0.0045 -1.2144
 6241TIP3    H240215   4.647   2.323   0.738 -0.8347 -0.3024  0.4802
 6242TIP3   OH240216   1.532   2.157  15.937  0.1477  0.1838 -0.4236
 6242TIP3    H140217   1.498   2.076  15.975 -1.4498  0.2379 -1.6239
 6242TIP3    H240218   1.602   2.128  15.878  1.2902 -0.0639  1.0047
 6243TIP3   OH240219   5.713   6.489  11.300 -0.0368 -0.3184  0.8372
 6243TIP3    H140220   5.657   6.412  11.310  1.0299 -0.9903  1.8291
 6243TIP3    H240221   5.754   6.477  11.214 -1.8580  0.5236 -0.2162
 6244TIP3   OH240222   1.434   5.060  11.091 -0.3605 -0.1148  0.1472
 6244TIP3    H140223   1.430   5.153  11.070  1.9370  0.1874  0.7999
 6244TIP3    H240224   1.421   5.056  11.186 -2.1180 -0.6592 -0.0817
 6245TIP3   OH240225   6.109   2.045  13.743 -0.2166 -0.0749 -0.9811
 6245TIP3    H140226   6.132   1.999  13.663 -1.0439 -0.5617 -0.9476
 6245TIP3    H240227   6.018   2.022  13.759 -0.0842  0.0481  0.0697
 6246TIP3   OH240228   6.114   1.129   0.634  0.2350 -0.5078 -0.1944
 6246TIP3    H140229   6.121   1.208   0.687  1.4377 -0.6191 -0.1694
 6246TIP3    H240230   6.204   1.101   0.619 -0.0446 -0.3618 -2.4983
 6247TIP3   OH240231   2.192   1.073  15.993 -0.0393 -0.1103 -0.2055
 6247TIP3    H140232   2.117   1.084  16.051  0.0811 -1.9382  0.3584
 6247TIP3    H240233   2.154   1.048  15.909 -0.1162  0.6009 -0.3925
 6248TIP3   OH240234   5.354   5.930  12.911  0.1024 -0.2242  0.1671
 6248TIP3    H140235   5.421   5.982  12.955 -0.1971 -0.0937  0.4730
 6248TIP3    H240236   5.396   5.900  12.831  0.6176 -0.3659  0.4832
 6249TIP3   OH240237   3.584   6.506   6.759 -0.3168  0.4558 -0.3511
 6249TIP3    H140238   3.514   6.443   6.773  1.0280 -0.5683  2.6132
 6249TIP3    H240239   3.641   6.465   6.695 -0.9396  0.0005 -0.6214
 6250TIP3   OH240240   1.833   2.535  14.906 -0.1614 -0.2365  0.1788
 6250TIP3    H140241   1.831   2.600  14.836  0.6692  1.1119  1.3382
 6250TIP3    H240242   1.907   2.479  14.885  1.0752  1.1100  0.7151
 6251TIP3   OH240243   0.310   1.025   4.287 -0.3964 -0.2746  0.2535
 6251TIP3    H140244   0.261   1.057   4.211  1.7344  0.0558 -1.0779
 6251TIP3    H240245   0.352   0.945   4.257  2.7494  1.3044  0.0281
 6252TIP3   OH240246   5.639   2.788   0.719 -0.4735  0.3048  0.1987
 6252TIP3    H140247   5.663   2.813   0.629  1.1142 -0.7478  0.3012
 6252TIP3    H240248   5.710   2.822   0.773  1.0067 -2.9640  0.5100
 6253TIP3   OH240249   5.401   5.847  13.806 -0.1889  0.1085  0.1543
 6253TIP3    H140250   5.421   5.816  13.895 -0.3212  0.2350  0.2281
 6253TIP3    H240251   5.362   5.933  13.819  0.0938  0.2659 -0.0494
 6254TIP3   OH240252   2.910   5.559   1.960 -0.0228 -0.0843 -0.1205
 6254TIP3    H140253   2.948   5.618   1.895 -0.0968 -0.9251 -0.9550
 6254TIP3    H240254   2.817   5.555   1.937 -0.5242  1.3492  1.4301
 6255TIP3   OH240255   4.922   0.594   3.985 -0.0326 -0.0143 -0.6183
 6255TIP3    H140256   4.828   0.581   3.967  0.0079  0.2358 -1.0311
 6255TIP3    H240257   4.940   0.537   4.059 -0.7468  0.6869  0.1294
 6256TIP3   OH240258   4.516   4.994   5.843 -0.0353 -0.0890 -0.2413
 6256TIP3    H140259   4.476   4.960   5.763  0.3259 -1.1233  0.0056
 6256TIP3    H240260   4.480   4.940   5.913 -1.5744  1.8248  0.5293
 6257TIP3   OH240261   2.737   4.227  13.321  0.0459  0.0987  0.0012
 6257TIP3    H140262   2.707   4.273  13.400  1.0609 -1.2889  1.2566
 6257TIP3    H240263   2.662   4.172  13.296  0.2070 -0.5683  0.9122
 6258TIP3   OH240264   3.427   0.558  14.329  0.2993  0.1488  0.5914
 6258TIP3    H140265   3.448   0.507  14.408  1.5225  0.3310  0.4104
 6258TIP3    H240266   3.404   0.493  14.263 -1.5159  0.0329  1.2922
 6259TIP3   OH240267   2.954   2.497   5.241  0.0073  0.3746  0.3482
 6259TIP3    H140268   2.959   2.561   5.170  1.1816 -2.3304 -2.2458
 6259TIP3    H240269   3.016   2.529   5.307  0.3547  2.0311 -0.7249
 6260TIP3   OH240270   1.974   4.258  15.683  0.0687  0.6143  0.0868
 6260TIP3    H140271   1.954   4.248  15.776  1.0491  1.6957  0.4476
 6260TIP3    H240272   1.924   4.335  15.656 -0.2981  0.2386 -0.3066
 6261TIP3   OH240273   1.021   2.980  12.601 -0.6318  0.2249  0.2081
 6261TIP3    H140274   0.965   3.056  12.615 -0.8965  0.1611 -0.4599
 6261TIP3    H240275   1.105   3.017  12.571 -1.5291  0.2086 -2.6251
 6262TIP3   OH240276   5.920   5.968   5.391  0.3371  0.1165 -0.4655
 6262TIP3    H140277   5.833   5.947   5.423  0.9595  0.0773  1.3141
 6262TIP3    H240278   5.914   6.058   5.360  0.1773  0.8900  1.7176
 6263TIP3   OH240279   5.944   6.194  12.223 -0.0907 -0.0171  0.4183
 6263TIP3    H140280   5.860   6.149  12.231  1.0701 -2.3030  0.6420
 6263TIP3    H240281   5.941   6.235  12.136 -0.8334 -1.5304 -0.3174
 6264TIP3   OH240282   4.466   3.028   1.615  0.2986 -0.3676  0.2308
 6264TIP3    H140283   4.560   3.040   1.631  0.9853 -3.8093 -0.5934
 6264TIP3    H240284   4.436   2.975   1.689 -0.2895 -1.8119 -0.9988
 6265TIP3   OH240285   0.056   2.950  15.316  0.0519  0.0906  0.3008
 6265TIP3    H140286   0.043   2.923  15.225 -0.3122 -0.1925  0.4322
 6265TIP3    H240287  -0.033   2.963  15.350  0.2108  1.0506  0.3677
 6266TIP3   OH240288   0.371   4.234   2.630 -0.0069  0.3097  0.1266
 6266TIP3    H140289   0.305   4.290   2.671  0.9666  1.0259  0.7633
 6266TIP3    H240290   0.386   4.165   2.695  0.9801  1.0172  0.6710
 6267TIP3   OH240291   6.116   0.567   3.491 -0.2315 -0.3012  0.4188
 6267TIP3    H140292   6.178   0.531   3.427 -0.5864 -1.0594  0.4965
 6267TIP3    H240293   6.059   0.623   3.438 -0.2828 -0.6175  0.1373
 6268TIP3   OH240294   6.667   3.643   3.588 -0.3798  0.1085  0.4996
 6268TIP3    H140295   6.726   3.576   3.623 -0.1099 -0.5399 -1.1028
 6268TIP3    H240296   6.611   3.596   3.527  1.4193  1.6114 -2.5794
 6269TIP3   OH240297   1.391   1.232  16.356  0.6666  0.5616  0.1666
 6269TIP3    H140298   1.335   1.279  16.417 -0.2796 -0.7160  0.3114
 6269TIP3    H240299   1.337   1.160  16.324  1.2518  0.9866 -1.9249
 6270TIP3   OH240300   5.986   4.738   4.065  0.2422 -0.0678  0.2890
 6270TIP3    H140301   5.969   4.792   3.988  2.1346  1.1900  0.6878
 6270TIP3    H240302   6.020   4.655   4.029 -0.0020  0.0636 -0.2571
 6271TIP3   OH240303   3.814   2.275  11.287  0.3677 -0.0117  0.9196
 6271TIP3    H140304   3.892   2.314  11.326  0.2149 -0.1695  1.3996
 6271TIP3    H240305   3.742   2.330  11.317  0.2374 -0.1911  0.9418
 6272TIP3   OH240306   1.073   3.975  13.089  0.1849 -0.2760  0.0138
 6272TIP3    H140307   1.004   3.922  13.130 -1.0742  0.6900 -0.7919
 6272TIP3    H240308   1.038   4.064  13.088  2.3230  0.6467  1.4653
 6273TIP3   OH240309   0.591   1.522   6.055  0.6264  0.5764  0.1149
 6273TIP3    H140310   0.650   1.469   6.001  0.7261 -0.2864  1.0353
 6273TIP3    H240311   0.616   1.612   6.037  0.7301  0.3036 -1.1860
 6274TIP3   OH240312   5.017   5.867  16.197 -0.0649  0.0384  0.0612
 6274TIP3    H140313   5.068   5.915  16.262 -1.1098  1.2375  0.0361
 6274TIP3    H240314   4.994   5.785  16.240  0.4587  0.2039  0.6721
 6275TIP3   OH240315   6.796   3.645  13.923  0.3766 -0.4194  0.0614
 6275TIP3    H140316   6.861   3.576  13.936 -1.6722 -2.7696 -1.1994
 6275TIP3    H240317   6.808   3.672  13.832  0.6130  0.2894  0.2997
 6276TIP3   OH240318   1.559   6.509   1.913 -0.0422  0.5335 -0.6957
 6276TIP3    H140319   1.541   6.436   1.855 -1.8881 -2.2963  3.0222
 6276TIP3    H240320   1.655   6.512   1.919  0.1809  0.5168 -3.1709
 6277TIP3   OH240321   4.890   4.605  14.871  0.3646  0.5701 -0.3299
 6277TIP3    H140322   4.884   4.699  14.855 -0.0609  0.4751 -0.7364
 6277TIP3    H240323   4.803   4.572  14.852  0.5519  0.0732 -0.3260
 6278TIP3   OH240324   1.193   5.587   1.033 -0.1457  0.0110  0.2004
 6278TIP3    H140325   1.210   5.497   1.058  1.8060 -0.3751 -2.1955
 6278TIP3    H240326   1.227   5.639   1.106 -1.5140 -1.1287  1.7153
 6279TIP3   OH240327   2.655   0.637  14.947 -0.3574 -0.2603 -0.2159
 6279TIP3    H140328   2.750   0.646  14.945 -0.3192 -0.5375 -2.5766
 6279TIP3    H240329   2.622   0.721  14.916 -0.9210 -0.1285  0.6847
 6280TIP3   OH240330   4.842   3.678   1.735 -0.5642  0.3084 -0.2301
 6280TIP3    H140331   4.888   3.595   1.720 -1.6432 -0.6442  1.4019
 6280TIP3    H240332   4.912   3.740   1.756  0.2265 -0.2925 -0.9908
 6281TIP3   OH240333   1.330   0.873  13.642  0.9069 -0.4972 -0.0555
 6281TIP3    H140334   1.295   0.957  13.612  1.6780 -0.4125 -0.7467
 6281TIP3    H240335   1.345   0.885  13.736  0.0366 -0.2140  0.0611
 6282TIP3   OH240336   3.691   0.060   5.281  0.1997  0.2203  0.1688
 6282TIP3    H140337   3.709   0.015   5.198  1.6895  0.2303  0.4618
 6282TIP3    H240338   3.655  -0.008   5.338 -2.3718  0.5322 -0.9071
 6283TIP3   OH240339   2.931   6.567  16.963  0.2820  0.1761 -0.3958
 6283TIP3    H140340   2.994   6.511  17.008  0.2537  0.2326 -0.2860
 6283TIP3    H240341   2.903   6.515  16.888  0.7634  0.3098 -0.6716
 6284TIP3   OH240342   6.299   4.527  13.079  0.3350 -0.2245  0.3256
 6284TIP3    H140343   6.382   4.517  13.031  0.2909 -2.4583  0.5897
 6284TIP3    H240344   6.298   4.619  13.106  0.4022  1.1564 -3.7937
 6285TIP3   OH240345   1.843   3.115   1.230  0.2329  0.3819 -0.2682
 6285TIP3    H140346   1.906   3.175   1.270  0.7172  0.2120 -0.7559
 6285TIP3    H240347   1.768   3.170   1.209  1.8130  1.5816 -3.4846
 6286TIP3   OH240348   4.634   5.645   0.765  0.0141 -0.2597 -0.1737
 6286TIP3    H140349   4.666   5.721   0.716  1.4943 -0.9772 -0.3735
 6286TIP3    H240350   4.647   5.668   0.857  0.0596 -0.0847 -0.2244
 6287TIP3   OH240351   4.395   2.120  15.624  0.0430  0.5578  0.0736
 6287TIP3    H140352   4.348   2.152  15.701  0.1264  1.0449 -0.0735
 6287TIP3    H240353   4.445   2.196  15.594  3.0953 -0.6052  1.8241
 6288TIP3   OH240354   0.912   0.664   6.356  0.2175  1.0285  0.3953
 6288TIP3    H140355   1.008   0.667   6.361  0.2546  1.2870 -0.3443
 6288TIP3    H240356   0.884   0.641   6.444  0.8803  3.0000  1.1691
 6289TIP3   OH240357   5.307   4.029   5.181 -0.2214  0.5853  0.6564
 6289TIP3    H140358   5.332   3.952   5.233 -1.5905 -0.7707 -0.5863
 6289TIP3    H240359   5.387   4.051   5.133 -0.4390 -1.8932 -1.0874
 6290TIP3   OH240360   4.956   0.470   1.176  0.2009 -0.0681  0.1381
 6290TIP3    H140361   4.970   0.459   1.082  1.0526 -0.6245  0.3133
 6290TIP3    H240362   5.030   0.425   1.216  0.3783  1.0091  1.0615
 6291TIP3   OH240363   0.760   4.372   2.013  0.2344 -0.1490 -0.3678
 6291TIP3    H140364   0.667   4.362   2.034  0.4776 -0.6733  0.5040
 6291TIP3    H240365   0.782   4.460   2.042 -0.0703  0.1276 -0.9393
 6292TIP3   OH240366   2.056   5.520  13.885  0.6311 -0.3132  0.0144
 6292TIP3    H140367   2.059   5.425  13.878 -0.5005 -0.2779 -1.3132
 6292TIP3    H240368   1.981   5.546  13.832  0.2080  1.2458  1.2836
 6293TIP3   OH240369   0.419   6.382   1.465 -0.0109 -0.1157  0.2037
 6293TIP3    H140370   0.500   6.370   1.515 -0.1043 -0.3671  0.3019
 6293TIP3    H240371   0.350   6.379   1.531 -0.1241 -0.2809  0.0807
 6294TIP3   OH240372   4.008   0.591   2.448  1.1402 -0.0056 -0.0607
 6294TIP3    H140373   4.101   0.595   2.425  0.7878 -0.8409 -1.8862
 6294TIP3    H240374   3.977   0.681   2.437  1.6988  0.2490  0.4039
 6295TIP3   OH240375   6.524   0.854  13.997  0.4417 -0.1034  0.5253
 6295TIP3    H140376   6.556   0.944  13.991 -0.3636  0.2547  1.3785
 6295TIP3    H240377   6.604   0.801  14.003  0.9072  0.6510  1.2654
 6296TIP3   OH240378   0.143   2.473  17.031 -0.1311 -0.0896 -0.3109
 6296TIP3    H140379   0.166   2.525  16.954 -2.6496 -1.1620 -1.9591
 6296TIP3    H240380   0.047   2.471  17.030 -0.1884 -1.7420  1.7555
 6297TIP3   OH240381   5.306   2.064   3.460  0.5342  0.1582 -0.5006
 6297TIP3    H140382   5.305   2.159   3.469 -1.8516  0.4771 -2.7842
 6297TIP3    H240383   5.375   2.046   3.395 -0.0744  0.5201 -1.2589
 6298TIP3   OH240384   3.431   5.269   3.324 -0.0438 -0.3621 -0.8340
 6298TIP3    H140385   3.506   5.210   3.328  0.5321  0.4275  1.1508
 6298TIP3    H240386   3.359   5.220   3.362  0.6855  0.4758  1.8111
 6299TIP3   OH240387   6.431   0.201  12.364  1.4140 -0.3366  0.1900
 6299TIP3    H140388   6.359   0.261  12.385  1.2488 -0.8798  1.2355
 6299TIP3    H240389   6.448   0.154  12.446  1.7954 -1.4467 -0.5004
 6300TIP3   OH240390   6.479   6.512   3.520 -0.0324 -0.2922  0.2348
 6300TIP3    H140391   6.389   6.545   3.518  0.0732 -0.0045  0.1431
 6300TIP3    H240392   6.476   6.430   3.471 -0.1721 -0.0955 -0.0937
 6301TIP3   OH240393   2.876   2.090  13.300 -0.3429 -0.0199 -0.1568
 6301TIP3    H140394   2.875   2.070  13.207 -0.8928  0.9286 -0.3719
 6301TIP3    H240395   2.787   2.069  13.330  0.2703 -1.8215  0.5100
 6302TIP3   OH240396   3.883   1.331  11.729 -0.4036  0.2699 -0.3391
 6302TIP3    H140397   3.838   1.255  11.692 -0.7099 -0.1938  0.9357
 6302TIP3    H240398   3.816   1.400  11.730  0.0763  0.8116 -2.1745
 6303TIP3   OH240399   6.402   5.998   0.335 -0.2061 -0.2550 -0.2826
 6303TIP3    H140400   6.313   6.031   0.327 -0.1714 -0.0043  0.3298
 6303TIP3    H240401   6.454   6.073   0.363  0.3416 -0.2164 -1.3333
 6304TIP3   OH240402   0.698   5.317  11.967 -0.1784  0.2989 -0.1442
 6304TIP3    H140403   0.613   5.318  11.923 -0.5927  0.0736  0.6313
 6304TIP3    H240404   0.710   5.407  11.997  0.0575  0.4288 -0.6142
 6305TIP3   OH240405   1.172   1.557   3.221 -0.4275 -0.0754 -0.3164
 6305TIP3    H140406   1.210   1.527   3.138 -1.1339  0.9474 -1.0319
 6305TIP3    H240407   1.248   1.586   3.273  0.5616 -4.5919  1.1890
 6306TIP3   OH240408   4.831   2.546  11.637  0.5236 -0.5742 -0.2012
 6306TIP3    H140409   4.833   2.511  11.725  2.8130 -1.4443 -0.5357
 6306TIP3    H240410   4.820   2.641  11.649 -1.2408 -0.8769  0.8795
 6307TIP3   OH240411   4.819   0.305   4.705  0.3005  0.0933 -0.0648
 6307TIP3    H140412   4.813   0.398   4.681  1.3589  0.3303  0.5359
 6307TIP3    H240413   4.765   0.297   4.783 -0.8467 -0.0875 -0.8478
 6308TIP3   OH240414   6.429   2.663   5.142 -0.0196  0.1190  0.2828
 6308TIP3    H140415   6.426   2.654   5.237  1.7561  1.0470  0.4828
 6308TIP3    H240416   6.512   2.622   5.118 -0.6051 -0.3915 -0.9168
 6309TIP3   OH240417   4.842   1.682   1.876  0.3209  0.4770  0.2444
 6309TIP3    H140418   4.757   1.640   1.887  0.8217 -0.9651 -1.0949
 6309TIP3    H240419   4.826   1.774   1.900 -1.2730 -0.0353  1.3013
 6310TIP3   OH240420   4.349   4.484  14.698 -0.0325 -0.1111  0.1265
 6310TIP3    H140421   4.303   4.400  14.693 -0.3414  0.0551  0.1947
 6310TIP3    H240422   4.440   4.459  14.716  0.1528 -0.4924 -1.1921
 6311TIP3   OH240423   2.025   3.168   3.465  0.5240  0.2249  0.5531
 6311TIP3    H140424   2.092   3.191   3.402 -1.3003  2.9878 -0.5583
 6311TIP3    H240425   2.066   3.181   3.550  1.9932 -0.2019 -0.0604
 6312TIP3   OH240426   2.386   4.922  11.529 -0.1639 -0.1686  0.1552
 6312TIP3    H140427   2.390   4.837  11.484 -1.2297 -0.3964  0.4658
 6312TIP3    H240428   2.303   4.920  11.577  0.7185  0.2522  1.7811
 6313TIP3   OH240429   6.464   3.732  10.870 -1.0557  0.3418  0.2753
 6313TIP3    H140430   6.431   3.662  10.814 -0.1794 -0.0695  0.2630
 6313TIP3    H240431   6.477   3.806  10.811  0.4449 -0.2738 -0.2018
 6314TIP3   OH240432   3.076   2.346  14.744 -0.2566  0.5474  0.4870
 6314TIP3    H140433   3.158   2.305  14.771 -0.6621  0.7452  2.1284
 6314TIP3    H240434   3.102   2.430  14.705  0.3484  0.3927  0.5555
 6315TIP3   OH240435   0.537   1.962  10.541 -0.3089  0.2662 -0.5255
 6315TIP3    H140436   0.600   1.978  10.471  0.0337 -1.6699 -0.7332
 6315TIP3    H240437   0.459   2.011  10.515  0.9344  2.4039 -0.4503
 6316TIP3   OH240438   3.560   1.310  16.494  0.5199  0.2015  0.0852
 6316TIP3    H140439   3.604   1.235  16.534 -0.1633 -0.5922 -0.6112
 6316TIP3    H240440   3.470   1.305  16.526  0.1779  0.0374 -0.8475
 6317TIP3   OH240441   6.001   0.593   4.195  0.1378 -0.3663 -0.1440
 6317TIP3    H140442   6.065   0.600   4.266 -0.3736 -0.0375  0.2919
 6317TIP3    H240443   6.034   0.522   4.140 -0.3634 -1.8594  1.3975
 6318TIP3   OH240444   5.820   3.466  15.629 -0.2165 -0.5997 -0.4221
 6318TIP3    H140445   5.852   3.407  15.697 -1.3316 -0.3341  0.3592
 6318TIP3    H240446   5.809   3.550  15.673 -0.6442 -0.3395 -1.0079
 6319TIP3   OH240447   6.022   5.418  16.196 -0.4168  0.9454  0.9387
 6319TIP3    H140448   6.071   5.342  16.226 -0.2546  0.8925  0.5368
 6319TIP3    H240449   5.956   5.382  16.137 -0.5334  1.0860  0.9838
 6320TIP3   OH240450   3.633   1.233   3.324 -0.0122  0.0302 -0.3628
 6320TIP3    H140451   3.617   1.303   3.388  1.2993  2.4994 -2.5575
 6320TIP3    H240452   3.720   1.199   3.347 -0.7542 -1.1609  0.8583
 6321TIP3   OH240453   5.707   3.844  13.706 -0.7804  0.5427 -0.4540
 6321TIP3    H140454   5.677   3.922  13.660  0.4922  0.8760 -0.7443
 6321TIP3    H240455   5.683   3.859  13.798  0.9295  2.0673 -0.2056
 6322TIP3   OH240456   6.079   3.330  16.486  0.2694 -0.1339 -0.0017
 6322TIP3    H140457   5.993   3.292  16.504  0.8228 -1.1296  0.6944
 6322TIP3    H240458   6.098   3.383  16.563 -0.0500  0.7347 -0.5081
 6323TIP3   OH240459   4.105   6.544   5.922  0.1882 -0.6165  0.0960
 6323TIP3    H140460   4.165   6.524   5.994  1.8511  0.3627 -0.9669
 6323TIP3    H240461   4.136   6.491   5.849  0.7148  0.9746 -0.8914
 6324TIP3   OH240462   4.635   5.022   2.910  0.5605 -0.5529  0.1767
 6324TIP3    H140463   4.601   5.038   2.822  0.3379  4.2865  0.8535
 6324TIP3    H240464   4.724   4.992   2.897  0.7420  0.6659 -1.7853
 6325TIP3   OH240465   6.151   4.241  13.873  0.0077  0.7321 -0.5207
 6325TIP3    H140466   6.221   4.303  13.850 -0.0531  1.7211  1.7137
 6325TIP3    H240467   6.073   4.295  13.883 -1.3927 -0.4620 -3.7805
 6326TIP3   OH240468   1.464   4.704  11.922 -0.2103  0.1390  0.2805
 6326TIP3    H140469   1.379   4.736  11.952  0.3104 -0.2226  2.3047
 6326TIP3    H240470   1.470   4.616  11.959  1.6368  0.7033  1.4360
 6327TIP3   OH240471   6.457   0.086  13.322 -0.1816  0.0446  0.0641
 6327TIP3    H140472   6.546   0.094  13.289 -0.7996 -1.5454 -2.2091
 6327TIP3    H240473   6.452  -0.002  13.358 -0.9140 -0.0054 -0.1348
 6328TIP3   OH240474   4.170   4.686  13.782 -0.0266 -0.1423 -1.1576
 6328TIP3    H140475   4.120   4.720  13.708 -0.6126  0.6721 -0.4128
 6328TIP3    H240476   4.203   4.765  13.826 -0.7042 -0.5648  0.1386
 6329TIP3   OH240477   6.737   0.925   5.964 -0.0294  0.4989  0.0210
 6329TIP3    H140478   6.819   0.910   6.010  0.4348  0.4770 -0.8030
 6329TIP3    H240479   6.711   0.838   5.932  0.5421  0.7628 -1.2184
 6330TIP3   OH240480   1.613   5.068  16.571  0.4245  0.2947  0.1468
 6330TIP3    H140481   1.604   4.988  16.623 -0.1761  1.1782  1.4530
 6330TIP3    H240482   1.703   5.098  16.587  0.1709  0.6830  0.8726
 6331TIP3   OH240483   3.208   1.672  14.827 -0.3510  0.7059 -0.0903
 6331TIP3    H140484   3.293   1.653  14.788 -0.7594 -1.2309 -0.1189
 6331TIP3    H240485   3.229   1.704  14.915  0.4213  1.0925 -0.4050
 6332TIP3   OH240486   6.439   5.850   4.529 -0.2053 -0.7823 -0.2822
 6332TIP3    H140487   6.406   5.934   4.498 -1.2286 -1.0810 -0.0494
 6332TIP3    H240488   6.514   5.872   4.585 -0.2538 -0.0578 -0.4915
 6333TIP3   OH240489   5.288   2.974   0.134  0.5632  0.7087 -0.1665
 6333TIP3    H140490   5.298   3.051   0.190  0.6970  1.6332 -1.4190
 6333TIP3    H240491   5.208   2.991   0.084 -0.2676 -0.6864  0.5992
 6334TIP3   OH240492   4.213   3.487   0.045  0.4214 -0.2668  0.3747
 6334TIP3    H140493   4.248   3.398   0.040 -1.7789 -1.2175  0.8777
 6334TIP3    H240494   4.205   3.504   0.138  0.4067  0.2931  0.2741
 6335TIP3   OH240495   5.394   6.626  16.039 -0.2050 -0.1291  0.4866
 6335TIP3    H140496   5.372   6.538  16.007  0.2374 -0.3665  0.8269
 6335TIP3    H240497   5.434   6.611  16.125  4.1341 -0.0196 -1.2440
 6336TIP3   OH240498   3.113   5.361   3.975  0.1480 -0.2965  0.4655
 6336TIP3    H140499   3.035   5.334   4.023  0.5661  0.2815  1.4896
 6336TIP3    H240500   3.079   5.402   3.895 -0.5318 -2.5150 -0.4584
 6337TIP3   OH240501   1.378   3.538   3.673  0.0157 -0.6199 -0.3867
 6337TIP3    H140502   1.346   3.462   3.625  1.2953 -1.4967  0.0965
 6337TIP3    H240503   1.361   3.612   3.615 -1.2875 -1.2507 -0.8487
 6338TIP3   OH240504   1.489   4.564  10.530 -0.1482  0.4307  0.4259
 6338TIP3    H140505   1.572   4.538  10.488 -0.3062  0.9433 -0.2299
 6338TIP3    H240506   1.431   4.489  10.516 -0.2873  0.7063 -0.5464
 6339TIP3   OH240507   6.074   4.952   2.376 -0.1963  0.3650 -0.0808
 6339TIP3    H140508   6.053   4.873   2.425 -2.5088  0.7542 -0.3316
 6339TIP3    H240509   6.020   4.946   2.297  0.5000  1.6109 -0.6745
 6340TIP3   OH240510   5.060   5.279   1.128 -0.5059  1.1422  0.6117
 6340TIP3    H140511   5.131   5.335   1.099  1.0653  0.5243  2.9838
 6340TIP3    H240512   5.075   5.195   1.083 -1.8937  1.9987 -1.6325
 6341TIP3   OH240513   0.124   0.625  15.920  0.4560 -0.0438 -0.2958
 6341TIP3    H140514   0.112   0.720  15.916  0.5804 -0.0576 -1.3390
 6341TIP3    H240515   0.207   0.609  15.874 -0.1915 -0.7538 -1.2726
 6342TIP3   OH240516   0.237   0.280   3.704  0.0784  0.1574  0.2893
 6342TIP3    H140517   0.305   0.257   3.641 -0.5681  1.4590 -0.9371
 6342TIP3    H240518   0.160   0.231   3.676  0.3982 -1.1323  1.5374
 6343TIP3   OH240519   6.788   4.456  15.188 -0.4936  0.1523 -0.7613
 6343TIP3    H140520   6.747   4.394  15.127  0.4075 -1.1445 -0.0913
 6343TIP3    H240521   6.717   4.479  15.249 -1.4605  1.6337 -2.3873
 6344TIP3   OH240522   1.537   5.577  10.573 -0.3908 -0.5378 -0.5348
 6344TIP3    H140523   1.465   5.638  10.591 -0.6936 -1.3310  1.2087
 6344TIP3    H240524   1.591   5.579  10.652  0.3839 -1.4528 -1.0112
 6345TIP3   OH240525   4.802   4.364  15.972 -0.1054 -0.3398  0.3483
 6345TIP3    H140526   4.743   4.400  15.906  0.1112  0.6645  0.6834
 6345TIP3    H240527   4.843   4.288  15.929  2.0040  1.7711 -1.6679
 6346TIP3   OH240528   3.267   2.094   3.139  0.6189 -0.1638  0.0550
 6346TIP3    H140529   3.322   2.058   3.069  2.1740 -1.1307  1.6922
 6346TIP3    H240530   3.223   2.017   3.177 -0.3510  0.3698  0.0392
 6347TIP3   OH240531   1.188   6.084   2.670  0.1237  0.0689  0.2838
 6347TIP3    H140532   1.134   6.066   2.594 -0.2905  0.0008  0.5941
 6347TIP3    H240533   1.152   6.164   2.707  0.8299  0.5561 -0.0507
 6348TIP3   OH240534   0.549   6.730   1.741 -0.4339  0.1663 -0.3805
 6348TIP3    H140535   0.554   6.767   1.829 -0.3575 -0.1204 -0.2660
 6348TIP3    H240536   0.630   6.760   1.699 -1.5837  2.4294 -1.1895
 6349TIP3   OH240537   1.309   5.067  11.870 -0.1385  0.2042  0.0619
 6349TIP3    H140538   1.400   5.058  11.899 -0.0837 -1.3508 -0.4693
 6349TIP3    H240539   1.315   5.078  11.775 -0.4865  1.1014  0.1273
 6350TIP3   OH240540   2.725   5.876   1.938 -0.4567 -0.0895  0.1843
 6350TIP3    H140541   2.657   5.812   1.960 -0.5522 -0.3492 -0.8059
 6350TIP3    H240542   2.758   5.847   1.853 -0.9582  1.5437 -0.5945
 6351TIP3   OH240543   1.162   2.612   0.769  0.0947 -0.1820  0.1306
 6351TIP3    H140544   1.183   2.567   0.851  1.0960 -0.6442 -0.3605
 6351TIP3    H240545   1.158   2.543   0.703  0.1147  0.2678 -0.3548
 6352TIP3   OH240546   2.385   4.214  15.235  0.1505  0.1347 -0.4543
 6352TIP3    H140547   2.411   4.257  15.316  0.2942  0.6596 -0.7712
 6352TIP3    H240548   2.298   4.249  15.215 -0.6774 -1.3188  0.3909
 6353TIP3   OH240549   5.434   4.814   0.343 -0.0356  0.5041  0.4234
 6353TIP3    H140550   5.509   4.793   0.287 -1.0223 -1.5121 -0.2214
 6353TIP3    H240551   5.359   4.816   0.284 -0.7775  0.5311  1.3436
 6354TIP3   OH240552   3.967   2.935   0.976  0.2471 -0.5171 -0.3088
 6354TIP3    H140553   3.987   2.999   0.908  4.1566  1.9157  2.7044
 6354TIP3    H240554   3.887   2.967   1.017 -0.3575 -0.2113 -1.6790
 6355TIP3   OH240555   4.884   4.137  12.692 -0.3158  0.1438 -0.1979
 6355TIP3    H140556   4.952   4.076  12.721  1.5843  1.2892 -1.9302
 6355TIP3    H240557   4.917   4.223  12.718 -1.6358  0.6631 -0.1742
 6356TIP3   OH240558   5.544   3.600   4.464 -0.1462  0.2911 -0.1562
 6356TIP3    H140559   5.487   3.562   4.397 -0.3988 -1.4959  0.9954
 6356TIP3    H240560   5.500   3.580   4.547  1.8027 -0.5526  0.7216
 6357TIP3   OH240561   3.391   2.874  16.505 -0.0942 -0.2699 -0.6323
 6357TIP3    H140562   3.372   2.791  16.548 -0.2508  0.2468  0.3077
 6357TIP3    H240563   3.478   2.862  16.467 -0.7390 -1.3893 -1.8443
 6358TIP3   OH240564   2.084   6.168  13.991  0.1320  0.0303 -0.0112
 6358TIP3    H140565   2.049   6.122  13.915 -0.4004  0.5507 -0.0802
 6358TIP3    H240566   2.009   6.213  14.029  0.3038 -0.5738  1.0844
 6359TIP3   OH240567   5.071   0.554   5.715 -0.5689  0.1166  0.0852
 6359TIP3    H140568   4.978   0.546   5.691 -0.0782 -0.3404 -1.8398
 6359TIP3    H240569   5.090   0.647   5.704 -0.7088  0.1546  0.1532
 6360TIP3   OH240570   0.682   1.903  13.016 -0.2480 -0.4625  0.0246
 6360TIP3    H140571   0.623   1.949  12.957  0.2748 -2.3129 -2.0530
 6360TIP3    H240572   0.690   1.962  13.092 -3.4926  0.5470 -0.2531
 6361TIP3   OH240573   6.685   4.061  10.505 -0.5842 -0.3863 -0.1023
 6361TIP3    H140574   6.745   4.053  10.430 -4.7766 -0.5212 -3.8931
 6361TIP3    H240575   6.702   4.148  10.540  0.6727  0.2588 -2.1376
 6362TIP3   OH240576   2.953   3.500  14.223 -0.1267 -0.0168 -0.4899
 6362TIP3    H140577   3.021   3.535  14.165 -0.5235 -0.4426 -1.2117
 6362TIP3    H240578   2.987   3.416  14.252 -0.0738  0.0516 -0.3490
 6363TIP3   OH240579   2.741   1.187   2.522  0.0276  0.0334 -0.1652
 6363TIP3    H140580   2.677   1.186   2.451  0.2069 -2.4824 -0.3957
 6363TIP3    H240581   2.691   1.220   2.597 -1.3279 -0.9653 -0.5681
 6364TIP3   OH240582   0.069   0.840  17.055 -0.5963 -0.2294  0.0517
 6364TIP3    H140583  -0.001   0.797  17.105 -0.1658 -1.1453 -0.1216
 6364TIP3    H240584   0.147   0.830  17.110 -0.4259  0.0639 -0.1357
 6365TIP3   OH240585   5.955   6.154   1.883 -0.4234 -0.2047 -0.0680
 6365TIP3    H140586   5.904   6.202   1.949 -1.1778 -0.5739 -0.3719
 6365TIP3    H240587   5.889   6.109   1.830  0.2565 -1.4170  0.0787
 6366TIP3   OH240588   2.135   1.460   4.787  0.4348 -0.0545  0.2961
 6366TIP3    H140589   2.071   1.417   4.731  0.4993 -0.4202  0.4989
 6366TIP3    H240590   2.216   1.411   4.773  0.4562 -0.1324  0.6863
 6367TIP3   OH240591   6.461   2.807   0.926  0.2095 -0.0204  0.6169
 6367TIP3    H140592   6.474   2.901   0.913  2.3527 -0.4112 -0.7975
 6367TIP3    H240593   6.401   2.782   0.856 -0.2732  0.2905  0.9208
 6368TIP3   OH240594   4.304   3.801  13.117 -0.1100 -0.2940 -0.0443
 6368TIP3    H140595   4.221   3.845  13.096 -1.4940 -0.6759  3.7583
 6368TIP3    H240596   4.371   3.867  13.104 -1.2437  0.6510 -1.3423
 6369TIP3   OH240597   3.776   2.575  15.844 -0.3824 -0.3344 -0.5221
 6369TIP3    H140598   3.776   2.537  15.757  0.2768  1.8806 -1.5614
 6369TIP3    H240599   3.866   2.568  15.874 -0.6048 -1.0825 -0.0019
 6370TIP3   OH240600   6.149   3.177   5.554  0.0454  0.1000 -0.0582
 6370TIP3    H140601   6.075   3.184   5.494  0.1172  0.5661 -0.0998
 6370TIP3    H240602   6.117   3.123   5.626 -0.5280  0.7566  0.1932
 6371TIP3   OH240603   1.920   0.891   5.882  0.3490  0.6550 -0.4577
 6371TIP3    H140604   1.826   0.876   5.894  0.2318  0.8618 -1.0860
 6371TIP3    H240605   1.958   0.877   5.969 -0.2359  0.3668 -0.2453
 6372TIP3   OH240606   5.012   5.380  15.145  0.2755 -0.7120  0.9266
 6372TIP3    H140607   5.006   5.474  15.166  0.0242 -0.0956 -1.5674
 6372TIP3    H240608   5.106   5.364  15.134  0.2086 -0.0112 -1.2807
 6373TIP3   OH240609   0.191   5.422   3.823  0.3332 -0.0403  0.0073
 6373TIP3    H140610   0.106   5.457   3.797 -0.2379 -1.6919 -0.4721
 6373TIP3    H240611   0.254   5.486   3.790 -0.6891  0.9514 -0.0862
 6374TIP3   OH240612   5.527   3.751   0.349 -0.0138 -0.2391 -0.1024
 6374TIP3    H140613   5.494   3.694   0.418 -0.4211 -3.2192 -2.5410
 6374TIP3    H240614   5.623   3.748   0.359 -0.1159  1.1582  1.5922
 6375TIP3   OH240615   3.810   3.890  14.720  0.1734  0.1381 -0.5726
 6375TIP3    H140616   3.882   3.879  14.781 -0.7912 -0.0562  0.5775
 6375TIP3    H240617   3.801   3.804  14.678 -0.2733 -0.2517  0.3043
 6376TIP3   OH240618   4.718   5.066  15.002  0.1924  0.3878 -0.2824
 6376TIP3    H140619   4.772   5.075  14.924  2.0250  1.8022  1.0879
 6376TIP3    H240620   4.728   5.149  15.048 -0.1826 -0.7070  1.8745
 6377TIP3   OH240621   5.763   0.188  12.499  0.2963  0.1934 -0.3444
 6377TIP3    H140622   5.848   0.154  12.525  0.5213  1.4723  0.7189
 6377TIP3    H240623   5.705   0.169  12.572 -0.4453 -0.9856 -1.2095
 6378TIP3   OH240624   5.050   6.316   5.239  0.3465  0.1748  0.5478
 6378TIP3    H140625   5.086   6.344   5.155  1.3265  3.1173  1.7882
 6378TIP3    H240626   5.126   6.314   5.298 -0.5689  0.0329  1.7614
 6379TIP3   OH240627   0.098   5.600  14.216 -0.3066 -0.5394 -0.2507
 6379TIP3    H140628   0.115   5.598  14.122 -0.5709 -0.2951 -0.3056
 6379TIP3    H240629   0.102   5.509  14.244  0.6426 -0.5406 -0.3406
 6380TIP3   OH240630   0.126   6.610   3.535 -0.6171 -0.2699  0.3987
 6380TIP3    H140631   0.105   6.618   3.628  0.8183 -0.4177  0.7484
 6380TIP3    H240632   0.189   6.679   3.518 -0.4965 -0.5601 -0.3530
 6381TIP3   OH240633   1.401   4.143  11.369  0.0451  0.0307 -0.1015
 6381TIP3    H140634   1.331   4.138  11.304 -0.3521 -0.3188  0.3477
 6381TIP3    H240635   1.391   4.230  11.408 -1.5760 -0.8183  1.5284
 6382TIP3   OH240636   3.360   4.593   0.400  0.8105  0.3128  0.2623
 6382TIP3    H140637   3.444   4.601   0.445  0.6605  1.1501  0.4217
 6382TIP3    H240638   3.297   4.576   0.470  0.9207 -0.8819  0.0792
 6383TIP3   OH240639   6.423   2.454  15.199  0.6508 -0.7114 -0.1345
 6383TIP3    H140640   6.426   2.363  15.231 -0.3352 -1.2198 -1.4101
 6383TIP3    H240641   6.490   2.457  15.131 -0.4392 -0.9676 -1.2420
 6384TIP3   OH240642   2.848   2.016  12.675  0.9577 -0.1671  0.0164
 6384TIP3    H140643   2.819   1.937  12.629 -0.1952  0.1092  0.2379
 6384TIP3    H240644   2.846   2.084  12.607  1.6919 -0.2672 -0.1112
 6385TIP3   OH240645   3.425   6.409  12.139 -0.6810 -0.1259  1.0372
 6385TIP3    H140646   3.427   6.458  12.221 -2.3676  0.0671  1.0082
 6385TIP3    H240647   3.350   6.447  12.091  0.2976 -0.1893 -0.6130
 6386TIP3   OH240648   5.975   3.589   1.660 -0.3971  0.6486  0.1209
 6386TIP3    H140649   5.968   3.504   1.703  0.6603  0.2378 -0.4971
 6386TIP3    H240650   5.981   3.652   1.732  1.3168 -0.0325  0.6081
 6387TIP3   OH240651   0.249   1.753  13.352  0.0826  0.4246 -0.5884
 6387TIP3    H140652   0.338   1.782  13.376 -0.7802  1.3338  1.8943
 6387TIP3    H240653   0.192   1.804  13.408 -1.8658 -2.2127  0.0354
 6388TIP3   OH240654   6.745   5.453   0.951  0.0324  0.0735  0.1114
 6388TIP3    H140655   6.681   5.515   0.987 -2.0592 -1.8753 -0.0172
 6388TIP3    H240656   6.799   5.506   0.893 -1.1037  1.9391  0.6533
 6389TIP3   OH240657   0.887   1.741  15.734 -0.3751 -0.0933  0.2289
 6389TIP3    H140658   0.837   1.765  15.656 -2.2347 -0.6001  1.2131
 6389TIP3    H240659   0.933   1.661  15.708 -0.9191 -0.2209 -0.3828
 6390TIP3   OH240660   2.364   6.188   1.593 -0.1017  0.4766  0.4219
 6390TIP3    H140661   2.317   6.250   1.649 -0.5245  2.8221 -2.3053
 6390TIP3    H240662   2.451   6.181   1.632 -0.1735  2.5402  1.0594
 6391TIP3   OH240663   6.537   6.791  16.987  0.3266  0.2982 -0.1904
 6391TIP3    H140664   6.511   6.879  17.016 -0.8057 -0.4701  1.2850
 6391TIP3    H240665   6.509   6.787  16.896 -1.1597  0.9246  0.2015
 6392TIP3   OH240666   5.986   3.567   0.832  0.1704 -0.0105  0.1785
 6392TIP3    H140667   6.020   3.649   0.869  0.2933 -0.1224  0.3133
 6392TIP3    H240668   5.891   3.578   0.834  0.1808  0.0381  0.4032
 6393TIP3   OH240669   6.493   6.268   3.748 -0.0837 -0.4348  0.2570
 6393TIP3    H140670   6.451   6.348   3.780  0.7451 -0.5456  1.7015
 6393TIP3    H240671   6.551   6.297   3.678 -1.2190 -0.0481 -0.5475
 6394TIP3   OH240672   5.416   1.140   2.560 -0.3732  0.0155 -0.1878
 6394TIP3    H140673   5.355   1.066   2.562 -0.4315  0.0478 -0.7512
 6394TIP3    H240674   5.417   1.168   2.469  0.0025  0.4193 -0.0616
 6395TIP3   OH240675   6.060   3.275  12.096 -0.0794 -0.1292 -0.0657
 6395TIP3    H140676   6.152   3.247  12.100  1.1446  2.8119 -3.0268
 6395TIP3    H240677   6.060   3.362  12.136 -1.3873  0.2952 -0.9343
 6396TIP3   OH240678   2.933   4.170  16.706 -0.1448 -0.1482  0.3437
 6396TIP3    H140679   2.891   4.153  16.621 -2.3893 -0.7275  1.4828
 6396TIP3    H240680   2.926   4.087  16.754  3.1351 -0.5393  0.3839
 6397TIP3   OH240681   6.799   4.448  13.918 -0.0428  0.2682  0.2915
 6397TIP3    H140682   6.880   4.404  13.942 -0.9459 -1.3149  0.5268
 6397TIP3    H240683   6.821   4.496  13.838  1.1861  0.0618  0.4905
 6398TIP3   OH240684   4.884   5.189   2.892  0.3938 -0.1841  0.0892
 6398TIP3    H140685   4.953   5.250   2.917 -2.4944  2.9706  0.9628
 6398TIP3    H240686   4.896   5.114   2.951  0.2969  2.3372  3.5956
 6399TIP3   OH240687   1.113   6.052   4.368 -0.6667  0.4110 -0.4294
 6399TIP3    H140688   1.207   6.068   4.360 -0.8578  0.9877 -1.7762
 6399TIP3    H240689   1.106   5.983   4.435  0.5233  2.2229  1.7071
 6400TIP3   OH240690   3.929   4.094   3.422 -0.4766  0.3413 -0.1963
 6400TIP3    H140691   3.881   4.093   3.505 -2.6716 -1.1393 -1.3681
 6400TIP3    H240692   4.000   4.031   3.435  0.2750  1.3961  1.0633
 6401TIP3   OH240693   0.513   4.362   2.145  0.5786 -0.2858 -0.0604
 6401TIP3    H140694   0.483   4.452   2.162  0.3488 -0.4663  0.5283
 6401TIP3    H240695   0.440   4.320   2.101  0.2055 -0.5321  0.7717
 6402TIP3   OH240696   0.538   2.209   2.279  0.7574  0.5151  0.4705
 6402TIP3    H140697   0.492   2.151   2.218  1.2489  0.9086 -0.2909
 6402TIP3    H240698   0.473   2.277   2.300  0.9581  1.0624 -0.5928
 6403TIP3   OH240699   0.592   1.319   5.363 -0.2126  0.5122  0.0814
 6403TIP3    H140700   0.589   1.266   5.283 -1.7045 -0.8095  0.9502
 6403TIP3    H240701   0.530   1.390   5.347 -0.8654 -0.0163  0.2085
 6404TIP3   OH240702   2.853   0.731  10.944  0.2448 -0.1681 -0.5501
 6404TIP3    H140703   2.923   0.692  10.892  0.2903  0.9572 -1.3720
 6404TIP3    H240704   2.803   0.656  10.977 -0.7262 -1.0002 -3.5090
 6405TIP3   OH240705   1.742   0.265   0.480 -0.1698  0.0175 -0.6517
 6405TIP3    H140706   1.711   0.192   0.533 -2.5831 -0.7512 -2.9151
 6405TIP3    H240707   1.837   0.263   0.489 -0.3868 -1.0356  2.2649
 6406TIP3   OH240708   4.385   2.912  11.158 -0.1989 -0.8001  0.1051
 6406TIP3    H140709   4.380   2.850  11.085 -0.6516 -0.3135 -0.2807
 6406TIP3    H240710   4.393   2.857  11.235 -0.4622 -1.3408 -0.2469
 6407TIP3   OH240711   4.615   6.449  11.004  0.3600  0.1069 -0.4112
 6407TIP3    H140712   4.690   6.475  11.058  1.2413 -0.0737 -1.5039
 6407TIP3    H240713   4.538   6.474  11.056  1.1603 -0.3811  1.0733
 6408TIP3   OH240714   2.246   2.538  17.195 -0.1685 -0.2069  0.1902
 6408TIP3    H140715   2.195   2.565  17.271 -0.7226 -2.1701  0.5788
 6408TIP3    H240716   2.188   2.555  17.120 -0.5464 -0.4101  0.4330
 6409TIP3   OH240717   4.931   3.024   1.272 -0.1081  0.6129 -0.0972
 6409TIP3    H140718   4.981   3.105   1.277  1.4166 -0.3012 -0.0868
 6409TIP3    H240719   4.852   3.041   1.323  0.8187  1.6477  1.0490
 6410TIP3   OH240720   0.169   1.078  12.990 -0.4312 -0.3743 -0.0722
 6410TIP3    H140721   0.191   1.011  12.926  0.2609 -1.7439  1.5117
 6410TIP3    H240722   0.101   1.130  12.948  0.6144 -0.6449 -2.2418
 6411TIP3   OH240723   4.022   3.903   0.033  0.1783 -0.5257 -0.1313
 6411TIP3    H140724   3.997   3.850   0.109  0.3432  1.0006  1.0286
 6411TIP3    H240725   4.024   3.841  -0.040 -0.3665 -1.9579  1.0294
 6412TIP3   OH240726   1.648   2.920  14.703  0.3764  0.5880  0.5438
 6412TIP3    H140727   1.573   2.939  14.759 -0.9322 -2.2569 -0.0912
 6412TIP3    H240728   1.610   2.911  14.615  1.3471 -1.3880  0.2904
 6413TIP3   OH240729   5.208   6.431   2.505  0.6027 -0.4141  0.2365
 6413TIP3    H140730   5.126   6.388   2.530  0.3047 -0.1384 -0.2480
 6413TIP3    H240731   5.213   6.419   2.410  0.4179  0.7774  0.0558
 6414TIP3   OH240732   4.116   3.027  14.286  0.0714 -0.3364 -0.0580
 6414TIP3    H140733   4.037   2.989  14.325  1.1330 -2.4094  0.1589
 6414TIP3    H240734   4.143   3.094  14.349 -0.7852 -0.4746  0.4850
 6415TIP3   OH240735   6.232   6.691  11.618  0.1260 -0.0185 -0.0885
 6415TIP3    H140736   6.308   6.634  11.630  0.6583  0.9342  1.3265
 6415TIP3    H240737   6.270   6.777  11.597 -0.6255  0.0903 -1.0566
 6416TIP3   OH240738   0.063   2.178   0.520  0.3799 -0.1066  0.2601
 6416TIP3    H140739   0.068   2.165   0.615  0.1305 -0.6613  0.2031
 6416TIP3    H240740   0.004   2.109   0.490  1.2364 -0.5667 -0.4224
 6417TIP3   OH240741   6.363   4.427   2.029 -0.6312  0.7356 -1.0891
 6417TIP3    H140742   6.287   4.379   1.997  0.0060  0.0391 -1.5709
 6417TIP3    H240743   6.436   4.366   2.021 -0.3464  0.6411  1.3383
 6418TIP3   OH240744   1.948   2.030  14.571  0.5326  0.1951  0.0235
 6418TIP3    H140745   1.888   1.964  14.536 -0.3616  0.8635  0.2600
 6418TIP3    H240746   2.009   1.981  14.627  1.4079 -0.7628 -1.6903
 6419TIP3   OH240747   1.790   5.504   6.439 -1.2459  0.0111  0.7719
 6419TIP3    H140748   1.729   5.431   6.423  0.1622 -1.2316  0.8206
 6419TIP3    H240749   1.875   5.462   6.447 -0.2188  1.7793 -0.2414
 6420TIP3   OH240750   1.254   0.102   1.342 -0.3482  0.3282 -0.0464
 6420TIP3    H140751   1.226   0.028   1.396  1.4802  0.1356  0.7241
 6420TIP3    H240752   1.224   0.180   1.390 -1.8633  0.1342 -0.6216
 6421TIP3   OH240753   0.312   1.740   4.421 -0.0941 -0.0687 -0.2693
 6421TIP3    H140754   0.269   1.680   4.481 -0.7514  1.0143  0.3645
 6421TIP3    H240755   0.359   1.683   4.360 -0.6801 -1.2166  0.3250
 6422TIP3   OH240756   1.900   1.110   4.835  0.2348  0.6199  0.6892
 6422TIP3    H140757   1.896   1.205   4.843  1.3311  0.6216  1.5121
 6422TIP3    H240758   1.943   1.081   4.916  2.7038 -0.3209 -0.8298
 6423TIP3   OH240759   1.494   4.858   0.341  0.5694 -0.3131 -0.6584
 6423TIP3    H140760   1.548   4.872   0.419  1.6378  0.0205 -1.4296
 6423TIP3    H240761   1.464   4.768   0.349 -1.1063  0.3259  1.1829
 6424TIP3   OH240762   5.872   2.883  16.027 -0.0785 -0.1967  0.2471
 6424TIP3    H140763   5.832   2.856  16.110  1.4293 -1.6418  0.5493
 6424TIP3    H240764   5.892   2.976  16.039 -0.5551 -0.2020  1.1993
 6425TIP3   OH240765   5.592   1.841   4.341 -0.0942  0.1882  0.1992
 6425TIP3    H140766   5.585   1.934   4.363 -1.5386 -0.3045  1.9879
 6425TIP3    H240767   5.644   1.803   4.412  0.7224 -0.3659 -0.6587
 6426TIP3   OH240768   0.539   5.485  15.471 -0.5330  0.5614 -0.1668
 6426TIP3    H140769   0.625   5.455  15.442  0.4094  2.9253 -0.0350
 6426TIP3    H240770   0.508   5.417  15.530  0.3023 -1.3176 -1.7766
 6427TIP3   OH240771   4.353   5.314  13.893 -0.6630  0.7073  0.4482
 6427TIP3    H140772   4.340   5.339  13.984 -0.5695  1.0832  0.3595
 6427TIP3    H240773   4.396   5.228  13.897  3.8028  2.6682  0.8991
 6428TIP3   OH240774   1.864   5.776   0.195  0.1172  0.0452  0.4113
 6428TIP3    H140775   1.882   5.687   0.164 -0.6266 -0.1054  0.3973
 6428TIP3    H240776   1.812   5.816   0.125  1.0139  0.7247  0.1095
 6429TIP3   OH240777   1.608   1.505  15.604 -0.1078  0.4470 -0.0357
 6429TIP3    H140778   1.573   1.521  15.692 -0.6213 -0.1584 -0.1274
 6429TIP3    H240779   1.692   1.461  15.620 -0.5608 -0.3772  0.1515
 6430TIP3   OH240780   3.110   0.690  15.128  0.2988 -0.0581 -0.2802
 6430TIP3    H140781   3.082   0.673  15.218 -1.9263 -0.2084 -0.9211
 6430TIP3    H240782   3.074   0.617  15.078 -0.7663  1.3215 -1.6324
 6431TIP3   OH240783   6.273   6.186  16.016 -0.2228  0.2463 -0.1005
 6431TIP3    H140784   6.341   6.253  16.022 -0.9123  0.9479  0.0480
 6431TIP3    H240785   6.320   6.104  16.024  0.5018  0.7446  0.9691
 6432TIP3   OH240786   1.527   4.159   6.198  0.5001  0.4728  0.4922
 6432TIP3    H140787   1.538   4.233   6.139 -2.3095  0.3373 -0.3939
 6432TIP3    H240788   1.531   4.197   6.286  0.0215  1.5262  0.0725
 6433TIP3   OH240789   4.074   4.999   4.789 -0.3735  0.4521 -0.9168
 6433TIP3    H140790   4.022   5.025   4.864 -0.9194 -1.3369 -0.6321
 6433TIP3    H240791   4.160   4.976   4.825 -0.4225  0.2486 -0.9271
 6434TIP3   OH240792   4.504   6.660  14.429  0.3749  0.2990  0.0891
 6434TIP3    H140793   4.514   6.565  14.422  0.8677  0.3823 -0.4717
 6434TIP3    H240794   4.524   6.680  14.520  0.7548 -0.0810  0.0895
 6435TIP3   OH240795   0.993   5.347  15.820  0.1659  0.3843  0.7946
 6435TIP3    H140796   1.086   5.365  15.804  0.6263 -1.1708  1.5686
 6435TIP3    H240797   0.990   5.314  15.910 -1.1156  0.1777  0.6927
 6436TIP3   OH240798   0.678   4.753   4.521  0.3104 -0.1138 -0.2240
 6436TIP3    H140799   0.621   4.788   4.590  0.2310 -2.0176  0.7379
 6436TIP3    H240800   0.618   4.731   4.449  0.3491  1.5309 -0.7874
 6437TIP3   OH240801   0.833   6.558  11.310  0.2355  0.2563  0.4297
 6437TIP3    H140802   0.820   6.631  11.250  0.4352  0.2009  0.3176
 6437TIP3    H240803   0.884   6.596  11.382  1.0042  0.0471  0.0029
 6438TIP3   OH240804   4.648   1.301  15.246  0.3767 -0.2592  0.7860
 6438TIP3    H140805   4.680   1.378  15.293 -0.5809  0.5915  0.0994
 6438TIP3    H240806   4.639   1.330  15.155 -0.4958 -1.0146  0.6105
 6439TIP3   OH240807   2.291   5.691   1.990 -0.4184  0.0743 -0.2873
 6439TIP3    H140808   2.205   5.650   1.979  0.0339 -0.5284 -1.7253
 6439TIP3    H240809   2.334   5.637   2.056 -1.7471  1.4277  1.8118
 6440TIP3   OH240810   1.498   5.895  12.496  0.0970 -0.2008 -0.4792
 6440TIP3    H140811   1.522   5.873  12.586 -2.2381  1.6534  0.7301
 6440TIP3    H240812   1.458   5.815  12.461  1.1380 -0.9754  0.0588
 6441TIP3   OH240813   2.614   4.299   6.365 -0.0955 -0.3513 -0.4155
 6441TIP3    H140814   2.632   4.244   6.288 -0.4198  1.6891 -2.0516
 6441TIP3    H240815   2.700   4.329   6.393 -0.0959  0.4151 -1.1984
 6442TIP3   OH240816   4.382   1.001  14.237 -0.4206 -0.2515  0.1839
 6442TIP3    H140817   4.298   1.026  14.198 -1.1642 -2.0661  0.4907
 6442TIP3    H240818   4.372   1.019  14.330 -0.8013 -1.2156  0.3428
 6443TIP3   OH240819   3.923   5.621   1.283 -0.3885 -0.1512  0.1092
 6443TIP3    H140820   3.902   5.528   1.292  0.5022 -0.5369 -1.3623
 6443TIP3    H240821   3.839   5.663   1.266 -1.1038 -0.3410  2.8181
 6444TIP3   OH240822   6.113   3.664   1.212 -0.3936  0.5990  0.4502
 6444TIP3    H140823   6.174   3.672   1.139 -0.2624 -1.3044  0.2973
 6444TIP3    H240824   6.115   3.749   1.255  1.4965  0.9312 -0.2161
 6445TIP3   OH240825   5.591   2.557   1.710 -0.3226 -0.1788 -0.0877
 6445TIP3    H140826   5.539   2.577   1.632 -1.1435 -0.2060  0.4433
 6445TIP3    H240827   5.679   2.588   1.688  0.1656 -2.6107 -2.1003
 6446TIP3   OH240828   0.580   3.546   0.195  0.0269  0.1536 -0.4200
 6446TIP3    H140829   0.646   3.525   0.129  0.6310 -0.4822  0.3609
 6446TIP3    H240830   0.606   3.495   0.272 -1.5456 -0.3292 -0.1781
 6447TIP3   OH240831   1.685   4.461  13.057  0.7432  0.3526  0.3705
 6447TIP3    H140832   1.628   4.430  12.986 -1.3896 -1.4361  2.6845
 6447TIP3    H240833   1.718   4.545  13.026 -2.5067  1.1160 -1.4946
 6448TIP3   OH240834   2.159   6.653  10.482 -0.5188 -0.1592 -0.2884
 6448TIP3    H140835   2.115   6.608  10.410 -1.9954  0.0155  0.4661
 6448TIP3    H240836   2.136   6.745  10.469 -1.4277 -0.2113  0.8048
 6449TIP3   OH240837   2.875   5.019   6.188  0.1352 -0.4256 -0.0211
 6449TIP3    H140838   2.928   4.951   6.229 -0.1541 -1.6984 -1.6550
 6449TIP3    H240839   2.787   4.980   6.181 -0.0388  0.0910 -0.9546
 6450TIP3   OH240840   2.994   4.729   0.850 -0.0629 -0.0133  0.6103
 6450TIP3    H140841   2.994   4.787   0.774  2.6218  0.5146  0.9410
 6450TIP3    H240842   2.929   4.768   0.909  1.3962  2.5376  0.6772
 6451TIP3   OH240843   1.051   2.197  16.214  0.2464 -0.1761 -0.1347
 6451TIP3    H140844   1.016   2.111  16.187  0.4849 -0.7329  1.2773
 6451TIP3    H240845   1.117   2.177  16.280  1.5387  1.0159 -1.0012
 6452TIP3   OH240846   1.762   6.186   4.149 -0.3958  0.3530 -0.1513
 6452TIP3    H140847   1.783   6.276   4.173 -0.4404  0.7069 -1.3698
 6452TIP3    H240848   1.747   6.142   4.233  1.2007  1.0764  0.5610
 6453TIP3   OH240849   0.163   5.298  14.336  0.2778 -0.2734  0.2915
 6453TIP3    H140850   0.213   5.309  14.417 -0.2032 -1.8004  0.8335
 6453TIP3    H240851   0.072   5.291  14.365  0.1102 -0.9565 -0.3612
 6454TIP3   OH240852   1.630   4.140   4.797 -0.0635  0.3421 -0.6154
 6454TIP3    H140853   1.615   4.163   4.889 -2.1122 -1.1902 -0.5090
 6454TIP3    H240854   1.580   4.205   4.748 -0.4939  0.0528 -0.5646
 6455TIP3   OH240855   6.741   4.875   5.044 -0.6086 -0.6679 -0.2166
 6455TIP3    H140856   6.648   4.887   5.065 -0.0090 -1.5575  3.6899
 6455TIP3    H240857   6.780   4.962   5.056 -0.7280 -0.5224 -0.8249
 6456TIP3   OH240858   5.176   4.000  14.277  0.4221  0.2200  0.2391
 6456TIP3    H140859   5.099   3.969  14.229  0.5895 -1.3117  0.8943
 6456TIP3    H240860   5.246   3.941  14.250  1.1973  1.1316  0.2140
 6457TIP3   OH240861   0.608   2.758   6.697  0.2459 -0.4237  0.0880
 6457TIP3    H140862   0.639   2.781   6.785  1.3498 -2.2584  0.2493
 6457TIP3    H240863   0.686   2.763   6.642  0.2771 -2.2937 -0.1107
 6458TIP3   OH240864   0.640   2.149   3.598 -0.4606  0.1383  0.2877
 6458TIP3    H140865   0.621   2.152   3.692 -0.0029 -2.1943  0.5162
 6458TIP3    H240866   0.553   2.144   3.557 -0.7553 -3.8153  0.9636
 6459TIP3   OH240867   3.795   4.190  12.648 -0.3990 -0.6202  0.4619
 6459TIP3    H140868   3.838   4.174  12.564  1.6801 -1.3024  1.6054
 6459TIP3    H240869   3.826   4.277  12.675  1.3472 -1.6198  1.8683
 6460TIP3   OH240870   5.001   0.071  16.111  0.6050 -0.2529  0.1299
 6460TIP3    H140871   5.012  -0.018  16.144  0.5233 -0.1102  0.5428
 6460TIP3    H240872   5.030   0.127  16.183  0.3879  0.0608 -0.0248
 6461TIP3   OH240873   5.037   0.857   3.910  0.0973 -0.6986  0.4348
 6461TIP3    H140874   5.016   0.774   3.952 -1.9051 -0.2575  0.4161
 6461TIP3    H240875   4.963   0.873   3.851  1.5227  0.0250 -1.2397
 6462TIP3   OH240876   2.626   2.919   0.025 -0.1273 -0.9128 -0.0989
 6462TIP3    H140877   2.672   2.852   0.076  0.3629 -0.2148  0.3980
 6462TIP3    H240878   2.571   2.869  -0.036  1.5610 -1.8054 -0.9903
 6463TIP3   OH240879   3.871   1.789   4.954 -0.1079 -0.1702  0.3081
 6463TIP3    H140880   3.917   1.725   4.898 -0.7522 -2.4284  2.1915
 6463TIP3    H240881   3.781   1.789   4.922  0.0900  0.5444 -0.2787
 6464TIP3   OH240882   2.019   4.702  14.679  0.1237  0.1293 -0.2882
 6464TIP3    H140883   2.009   4.692  14.773 -1.5788 -0.4233 -0.5066
 6464TIP3    H240884   1.931   4.722  14.646  0.8828  1.5771 -1.6235
 6465TIP3   OH240885   5.695   4.526  14.752 -0.1457 -0.2230 -0.3613
 6465TIP3    H140886   5.653   4.603  14.714 -0.4224 -0.6113 -0.8485
 6465TIP3    H240887   5.622   4.473  14.786  0.0030 -0.5078 -0.4795
 6466TIP3   OH240888   3.187   4.258   5.082 -0.3328 -0.3719  0.2946
 6466TIP3    H140889   3.276   4.277   5.053  0.2475  0.8319  2.5802
 6466TIP3    H240890   3.183   4.163   5.090  1.1727 -0.3759  1.3125
 6467TIP3   OH240891   4.473   2.877   4.758  0.2279  0.3067  0.1398
 6467TIP3    H140892   4.482   2.886   4.663 -1.0811  0.5573  0.0309
 6467TIP3    H240893   4.395   2.822   4.769  1.2753 -1.0735  1.0470
 6468TIP3   OH240894   1.449   4.043   0.606  0.2402  0.2383  0.1930
 6468TIP3    H140895   1.458   4.136   0.586 -0.6953 -0.1144 -2.1885
 6468TIP3    H240896   1.377   4.013   0.550  1.5796 -2.2320 -0.3577
 6469TIP3   OH240897   0.499   2.445   2.535 -0.1840  0.0750  0.1573
 6469TIP3    H140898   0.533   2.355   2.540 -1.5189 -0.7835 -3.2723
 6469TIP3    H240899   0.427   2.447   2.597  0.4266 -0.9013  0.9452
 6470TIP3   OH240900   1.134   2.164   2.957 -0.4544  0.1216  0.6692
 6470TIP3    H140901   1.176   2.129   3.036 -0.4002 -0.1770  0.5126
 6470TIP3    H240902   1.150   2.097   2.890  0.2665  0.7657  0.1726
 6471TIP3   OH240903   5.941   5.325  13.928  0.4596 -0.0370  0.4337
 6471TIP3    H140904   5.964   5.350  14.018  0.2224 -0.4385  0.6074
 6471TIP3    H240905   6.006   5.371  13.873  1.0105 -0.3104  0.8477
 6472TIP3   OH240906   0.169   1.589  14.904  0.6725  0.2136 -0.2728
 6472TIP3    H140907   0.111   1.595  14.828  1.3909  1.9092 -0.7349
 6472TIP3    H240908   0.109   1.593  14.979  0.0202 -0.6282 -0.7277
 6473TIP3   OH240909   0.117   6.158   1.389 -0.0902 -0.3216 -0.0620
 6473TIP3    H140910   0.184   6.181   1.324 -1.0005  0.6893 -0.6662
 6473TIP3    H240911   0.052   6.228   1.383 -1.4252 -1.4816  0.2116
 6474TIP3   OH240912   6.113   3.440  12.687 -0.3495  0.0955 -0.5852
 6474TIP3    H140913   6.116   3.419  12.780 -1.0770  0.9810 -0.3550
 6474TIP3    H240914   6.160   3.524  12.680 -1.0264  0.4539 -0.8866
 6475TIP3   OH240915   6.136   5.971  13.080  0.0509 -0.1497  0.2211
 6475TIP3    H140916   6.187   5.965  12.999 -1.4233 -0.0448 -0.7652
 6475TIP3    H240917   6.075   5.898  13.075 -1.9230  1.4087 -0.1814
 6476TIP3   OH240918   1.698   3.583  13.183 -0.4789 -0.1160  0.6020
 6476TIP3    H140919   1.625   3.637  13.152 -0.0582  0.3973  0.4953
 6476TIP3    H240920   1.706   3.606  13.276 -1.5020 -1.3837  1.0403
 6477TIP3   OH240921   3.788   2.873  11.564 -0.7841  0.1148  0.1697
 6477TIP3    H140922   3.772   2.814  11.638 -0.2101 -1.2152 -0.7229
 6477TIP3    H240923   3.836   2.946  11.602 -2.6542  0.7178  1.5612
 6478TIP3   OH240924   5.984   4.503  11.044 -0.5440  0.3387  0.1739
 6478TIP3    H140925   5.902   4.537  11.008 -0.9415  0.8069  1.4635
 6478TIP3    H240926   6.047   4.513  10.973 -0.9744  2.5414  0.0209
 6479TIP3   OH240927   0.062   6.093  12.613  0.0487 -0.7405  0.1003
 6479TIP3    H140928   0.147   6.131  12.591  0.3953 -1.6172 -0.1308
 6479TIP3    H240929   0.079   5.999  12.618 -0.5285 -0.7786  1.8835
 6480TIP3   OH240930   6.408   1.064   3.009 -0.5171  0.2765 -0.7435
 6480TIP3    H140931   6.346   1.002   2.971 -0.7175 -0.3330  0.5390
 6480TIP3    H240932   6.370   1.088   3.093  1.7899 -1.5139  0.9540
 6481TIP3   OH240933   6.289   5.577   1.820  0.0315 -0.0527 -0.2333
 6481TIP3    H140934   6.216   5.639   1.814 -0.8637 -0.8919  1.2889
 6481TIP3    H240935   6.299   5.543   1.731 -0.4670  1.1451 -0.7663
 6482TIP3   OH240936   2.963   5.238  15.583 -0.1981  0.7284  0.0071
 6482TIP3    H140937   2.913   5.176  15.637  0.0673  0.2264 -0.3211
 6482TIP3    H240938   3.012   5.290  15.647 -0.6981  0.8419  0.3037
 6483TIP3   OH240939   4.414   4.693   5.241  0.1863  1.0050 -0.0481
 6483TIP3    H140940   4.397   4.623   5.179 -0.5767  2.2941 -1.3674
 6483TIP3    H240941   4.479   4.657   5.302  0.7738 -0.3971 -1.4416
 6484TIP3   OH240942   0.383   4.648   0.735  0.0986  0.2555 -0.3456
 6484TIP3    H140943   0.348   4.598   0.808 -0.0598  1.1298  0.1975
 6484TIP3    H240944   0.470   4.611   0.721  0.0591 -0.0464  0.1673
 6485TIP3   OH240945   5.427   4.184  10.859  0.5559 -0.0345 -0.4099
 6485TIP3    H140946   5.502   4.243  10.868  0.4031  0.1735 -0.4730
 6485TIP3    H240947   5.378   4.219  10.784 -1.0952  1.5278  1.2558
 6486TIP3   OH240948   2.259   4.947   0.688  0.0802 -0.1292 -0.0035
 6486TIP3    H140949   2.300   4.989   0.613 -1.4669  2.1173  0.2983
 6486TIP3    H240950   2.319   4.963   0.761  0.9014 -1.0632 -0.4615
 6487TIP3   OH240951   6.226   2.647   2.786 -0.4151 -0.0608 -0.3383
 6487TIP3    H140952   6.172   2.712   2.832  0.0860  0.4050 -0.3952
 6487TIP3    H240953   6.316   2.671   2.808 -0.2194 -0.7076 -0.4101
 6488TIP3   OH240954   3.118   0.676   0.749 -0.1611  0.3085  0.2513
 6488TIP3    H140955   3.151   0.676   0.659 -0.0903 -0.9166  0.2692
 6488TIP3    H240956   3.197   0.674   0.803 -0.2190 -0.8188  0.3113
 6489TIP3   OH240957   4.661   3.352  16.082  0.2009  0.0756  0.0341
 6489TIP3    H140958   4.744   3.392  16.110  0.1813  0.0666  0.1051
 6489TIP3    H240959   4.660   3.266  16.124 -0.1890  0.3663  0.6340
 6490TIP3   OH240960   1.534   4.740  15.788  0.4657  0.6469  0.2656
 6490TIP3    H140961   1.497   4.808  15.733  0.9864  1.0450  0.4044
 6490TIP3    H240962   1.626   4.764  15.798  0.1502  1.1978  2.2251
 6491TIP3   OH240963   4.198   4.873   0.898 -0.6703  0.0869  0.1705
 6491TIP3    H140964   4.109   4.865   0.932 -0.8927  0.2263 -0.3582
 6491TIP3    H240965   4.224   4.783   0.879 -0.5013 -0.0025  0.8036
 6492TIP3   OH240966   1.497   6.317   2.377  0.0821  0.3025 -0.1673
 6492TIP3    H140967   1.481   6.223   2.366  0.3854  0.2896 -0.5090
 6492TIP3    H240968   1.515   6.327   2.471  1.2130 -0.1692 -0.3148
 6493TIP3   OH240969   6.091   5.148  16.291 -0.2234 -0.3382 -0.3302
 6493TIP3    H140970   6.041   5.076  16.252  0.0108 -0.0764 -1.1340
 6493TIP3    H240971   6.182   5.123  16.279 -0.1182  0.3993 -1.2595
 6494TIP3   OH240972   4.691   1.762   6.451  0.5247  0.1313  0.3872
 6494TIP3    H140973   4.609   1.761   6.501  0.9382 -0.9664  1.0840
 6494TIP3    H240974   4.681   1.691   6.388  1.2345 -0.5354  1.0036
 6495TIP3   OH240975   1.486   5.609   3.538  0.3181 -0.6676  0.4577
 6495TIP3    H140976   1.405   5.564   3.516  0.6513 -0.4016 -1.4380
 6495TIP3    H240977   1.467   5.702   3.523  0.8189 -0.5558  0.4946
 6496TIP3   OH240978   3.616   4.039  14.954  0.3506 -0.3083  0.2753
 6496TIP3    H140979   3.652   4.094  14.884 -0.1522 -0.4651 -0.1055
 6496TIP3    H240980   3.646   4.081  15.034 -1.1907  1.3699  0.0438
 6497TIP3   OH240981   2.913   2.460   0.661  0.6000  0.0670 -0.2064
 6497TIP3    H140982   2.818   2.459   0.672  0.6200  0.5422  0.0611
 6497TIP3    H240983   2.945   2.506   0.738  0.9672  0.8349 -0.8028
 6498TIP3   OH240984   4.636   3.367  17.271 -0.0606  0.4548  0.1729
 6498TIP3    H140985   4.545   3.377  17.242 -0.0734  0.1417  0.1111
 6498TIP3    H240986   4.683   3.335  17.195  0.0777  0.4830  0.2461
 6499TIP3   OH240987   3.773   2.017  14.395  0.4168 -0.5759 -0.4006
 6499TIP3    H140988   3.684   2.042  14.418  1.3932  1.5700  1.5026
 6499TIP3    H240989   3.797   2.077  14.324  0.2438 -1.3916 -1.1585
 6500TIP3   OH240990   5.749   5.580   3.294 -0.1360 -0.0701  0.1697
 6500TIP3    H140991   5.833   5.571   3.341 -0.0692 -1.9080 -0.2561
 6500TIP3    H240992   5.750   5.671   3.262  0.8158  0.5410  1.7925
 6501TIP3   OH240993   2.323   1.197   0.111  0.1875  1.0795 -0.0239
 6501TIP3    H140994   2.370   1.169   0.190  1.0880  2.2078 -0.1223
 6501TIP3    H240995   2.235   1.161   0.121  0.8889 -0.5899  0.4697
 6502TIP3   OH240996   1.462   2.127   2.306 -0.0073  0.3707  0.3213
 6502TIP3    H140997   1.536   2.179   2.336 -1.1403  1.6520  0.9765
 6502TIP3    H240998   1.384   2.175   2.336 -1.2269  1.0059 -3.3176
 6503TIP3   OH240999   3.441   1.777   2.608  0.2979 -0.2534 -0.1330
 6503TIP3    H141000   3.503   1.780   2.681  0.0683  0.9477  0.0276
 6503TIP3    H241001   3.490   1.811   2.533  0.0437  0.0359 -0.1673
 6504TIP3   OH241002   3.684   2.867  16.460 -0.3053  0.5441  0.4347
 6504TIP3    H141003   3.704   2.822  16.378 -0.2059  1.3674 -0.0038
 6504TIP3    H241004   3.758   2.848  16.517 -0.1708  0.3190  0.1847
 6505TIP3   OH241005   1.102   0.833   3.442  0.0545 -0.3100  0.5909
 6505TIP3    H141006   1.040   0.885   3.391 -0.4038 -0.9913  0.4474
 6505TIP3    H241007   1.185   0.844   3.395 -0.3652 -0.9526 -0.3407
 6506TIP3   OH241008   3.025   4.147  15.413  0.4958  0.7092 -0.1737
 6506TIP3    H141009   3.064   4.122  15.329 -0.6489 -1.2429 -0.2009
 6506TIP3    H241010   3.025   4.065  15.464 -1.0029  1.2827  0.8188
 6507TIP3   OH241011   1.522   1.262  12.179 -0.0910 -0.5552  0.4586
 6507TIP3    H141012   1.510   1.229  12.268  0.4259 -0.3181  0.6209
 6507TIP3    H241013   1.551   1.187  12.128  1.1380 -0.3583  0.8376
 6508TIP3   OH241014   2.851   5.347  16.053 -0.4755  0.0733 -0.0596
 6508TIP3    H141015   2.860   5.433  16.014  1.5304  0.2484  0.6265
 6508TIP3    H241016   2.873   5.360  16.145  1.1182 -1.3295 -0.1894
 6509TIP3   OH241017   2.235   2.500   1.043 -0.2596 -0.2780  0.1510
 6509TIP3    H141018   2.211   2.434   0.977 -0.7770 -0.6689  0.7137
 6509TIP3    H241019   2.161   2.560   1.045  0.4528  0.6701 -0.7619
 6510TIP3   OH241020   2.148   5.717   3.308 -0.1951 -0.5580 -0.0958
 6510TIP3    H141021   2.244   5.713   3.306 -0.1618  0.1723 -0.8964
 6510TIP3    H241022   2.122   5.689   3.220 -0.5802  1.6178 -0.7283
 6511TIP3   OH241023   6.430   5.486  14.404  0.1092 -0.0873  0.1407
 6511TIP3    H141024   6.419   5.581  14.401  0.6014  0.0223  1.4038
 6511TIP3    H241025   6.519   5.472  14.434  0.0343 -0.9568  0.0063
 6512TIP3   OH241026   6.719   5.349  14.055  0.1099  0.2697 -0.1397
 6512TIP3    H141027   6.755   5.407  13.988 -0.3158 -2.4692 -2.9363
 6512TIP3    H241028   6.764   5.265  14.041 -1.7262 -1.0615  1.4508
 6513TIP3   OH241029   6.248   0.428   3.260  0.1584  0.0952  0.2439
 6513TIP3    H141030   6.181   0.369   3.293 -0.3667 -0.1722 -1.2271
 6513TIP3    H241031   6.220   0.448   3.171  2.8059 -1.2506 -0.9990
 6514TIP3   OH241032   0.025   4.097  10.773  0.5292 -0.5823 -0.3457
 6514TIP3    H141033   0.006   4.022  10.830  1.1843  0.9682  2.0558
 6514TIP3    H241034   0.120   4.107  10.777  0.3503  1.1809  0.5314
 6515TIP3   OH241035   5.705   1.490  13.326  0.4528  0.1546  0.1134
 6515TIP3    H141036   5.678   1.581  13.322  0.0741  0.0727  0.6617
 6515TIP3    H241037   5.625   1.441  13.345  0.3627 -0.4720 -1.6795
 6516TIP3   OH241038   5.536   1.075   6.186 -0.2643 -0.0262 -0.3302
 6516TIP3    H141039   5.474   1.123   6.131 -0.7417 -1.2415 -0.8804
 6516TIP3    H241040   5.501   1.084   6.274 -0.6480  0.1680 -0.4981
 6517TIP3   OH241041   6.751   2.287   4.748  0.5760  0.3859  0.5390
 6517TIP3    H141042   6.666   2.332   4.753  1.1370  1.7231 -1.1685
 6517TIP3    H241043   6.773   2.269   4.840 -0.5384  2.0188  1.1849
 6518TIP3   OH241044   0.221   4.362   5.660  0.3035 -0.5583  0.4866
 6518TIP3    H141045   0.233   4.344   5.753  1.1297  0.8279  0.6720
 6518TIP3    H241046   0.233   4.457   5.652  0.8388 -0.7337 -1.1117
 6519TIP3   OH241047   3.182   0.452   2.993  0.3262  0.0638 -0.1023
 6519TIP3    H141048   3.176   0.405   3.076 -1.7471  0.8075  0.2316
 6519TIP3    H241049   3.137   0.396   2.930 -0.1764  0.5694 -0.1973
 6520TIP3   OH241050   5.970   3.438  15.151 -0.3121  0.1301  0.2338
 6520TIP3    H141051   5.896   3.447  15.091  0.4211  1.9417 -0.4718
 6520TIP3    H241052   5.931   3.448  15.238 -1.1901 -1.1661  0.0199
 6521TIP3   OH241053   3.967   1.064  10.506 -0.1528  1.0807 -0.1358
 6521TIP3    H141054   3.984   0.992  10.566 -0.9695  0.8026 -0.2328
 6521TIP3    H241055   3.914   1.126  10.556 -0.9764  0.7707 -0.6025
 6522TIP3   OH241056   6.279   3.701   1.008 -0.1391 -0.3966  0.0582
 6522TIP3    H141057   6.330   3.782   1.016  2.4622 -1.8918 -0.3651
 6522TIP3    H241058   6.245   3.703   0.919 -1.9357  1.1444  0.6926
 6523TIP3   OH241059   1.717   2.005   1.512  0.1586  0.3152 -0.2459
 6523TIP3    H141060   1.746   1.976   1.426 -0.9310  0.3744 -0.6419
 6523TIP3    H241061   1.729   1.928   1.568  0.1736  0.0482 -0.6133
 6524TIP3   OH241062   2.772   4.254  15.479 -0.0247  0.0874  0.2934
 6524TIP3    H141063   2.863   4.224  15.473  0.1356  0.8449 -1.4084
 6524TIP3    H241064   2.777   4.349  15.469 -1.0325  0.1141 -0.0584
 6525TIP3   OH241065   4.204   3.232  15.155  0.7609 -0.2254  0.0512
 6525TIP3    H141066   4.245   3.154  15.119  1.7577 -0.0627  0.7788
 6525TIP3    H241067   4.211   3.222  15.250 -1.0475 -0.2533  0.2080
 6526TIP3   OH241068   3.765   1.650  14.797  0.1341 -0.2153 -0.3737
 6526TIP3    H141069   3.801   1.663  14.709  0.4459  1.1932 -0.0604
 6526TIP3    H241070   3.670   1.659  14.785  0.2430  1.0110 -0.4142
 6527TIP3   OH241071   2.066   1.414  17.160  0.0592  0.3677  0.0950
 6527TIP3    H141072   2.151   1.428  17.201 -0.2386  0.0325  0.8479
 6527TIP3    H241073   2.086   1.385  17.072  0.7184  1.4789 -0.1475
 6528TIP3   OH241074   1.118   5.605  13.295 -0.1323 -0.1701 -1.0412
 6528TIP3    H141075   1.083   5.613  13.384 -0.7257 -0.7937 -1.2068
 6528TIP3    H241076   1.178   5.530  13.299  0.7740  0.5423 -0.8946
 6529TIP3   OH241077   6.451   6.017   3.716  0.1354 -0.3186 -0.6964
 6529TIP3    H141078   6.368   6.015   3.668 -0.8899 -0.8026  0.9786
 6529TIP3    H241079   6.467   6.110   3.733  0.3687 -0.1659 -1.7160
 6530TIP3   OH241080   5.540   5.792  14.766  0.9694 -0.0229  0.0011
 6530TIP3    H141081   5.462   5.752  14.805  0.7705 -0.1522 -0.5107
 6530TIP3    H241082   5.613   5.740  14.800  1.0933  1.5815  2.4027
 6531TIP3   OH241083   4.828   6.476  12.983  0.2496  0.4539 -0.0389
 6531TIP3    H141084   4.913   6.465  12.940 -0.7687 -1.6631 -1.7331
 6531TIP3    H241085   4.769   6.416  12.936 -1.8223  0.6416  2.0890
 6532TIP3   OH241086   0.978   1.598  12.656 -0.1289  0.1565  0.1682
 6532TIP3    H141087   0.904   1.658  12.666 -1.3972 -1.6366  2.9071
 6532TIP3    H241088   1.017   1.593  12.743  0.8897 -1.7772 -0.3402
 6533TIP3   OH241089   4.380   1.698  17.018  0.1976  0.1388 -0.0341
 6533TIP3    H141090   4.354   1.624  16.964 -0.7306 -0.3358  1.0359
 6533TIP3    H241091   4.401   1.660  17.103 -0.3325  1.0904  0.5432
 6534TIP3   OH241092   2.258   0.054  17.183  0.0860 -0.1926  0.3761
 6534TIP3    H141093   2.340   0.100  17.165  0.1057 -0.1327  0.6146
 6534TIP3    H241094   2.279  -0.004  17.256 -0.4499  0.8568  1.4014
 6535TIP3   OH241095   2.285   5.834   5.999 -0.1540  0.2855 -0.4495
 6535TIP3    H141096   2.303   5.802   6.088  2.2090  1.7052 -0.3439
 6535TIP3    H241097   2.257   5.757   5.951  0.7233 -0.9816  0.9879
 6536TIP3   OH241098   1.668   1.191  10.553 -0.0128 -0.2266  0.0131
 6536TIP3    H141099   1.733   1.121  10.542  0.0508 -0.0791 -0.6258
 6536TIP3    H241100   1.585   1.145  10.566  0.4165 -0.4404  2.4631
 6537TIP3   OH241101   4.684   3.506  11.798  0.4726 -0.0556 -0.2827
 6537TIP3    H141102   4.632   3.426  11.789  2.0262 -1.0487 -0.8686
 6537TIP3    H241103   4.775   3.476  11.801  1.0247  1.5821  1.2573
 6538TIP3   OH241104   1.403   3.055  15.872 -0.1346 -0.1375 -0.5653
 6538TIP3    H141105   1.427   3.051  15.964 -1.4003  0.2893 -0.1942
 6538TIP3    H241106   1.400   2.964  15.843 -1.3713 -0.3906  0.2800
 6539TIP3   OH241107   6.577   1.127   4.120 -0.7462 -0.3321  0.0947
 6539TIP3    H141108   6.628   1.123   4.040 -0.3133 -0.0475  0.3538
 6539TIP3    H241109   6.595   1.214   4.156  0.9404 -1.2866  1.7230
 6540TIP3   OH241110   0.982   1.009   3.274 -0.1171  0.1319 -0.0606
 6540TIP3    H141111   0.980   1.096   3.234  0.0457 -0.2287 -0.8765
 6540TIP3    H241112   0.926   0.956   3.217 -0.9039 -0.1137  0.8975
 6541TIP3   OH241113   4.316   3.936  16.398  0.0146 -0.2087  1.0899
 6541TIP3    H141114   4.297   4.024  16.364  0.8985 -0.5625 -0.4357
 6541TIP3    H241115   4.375   3.951  16.472  1.4926  0.4481 -0.1618
 6542TIP3   OH241116   4.843   2.287   5.080  0.2985  0.2625  0.1111
 6542TIP3    H141117   4.900   2.349   5.125 -0.5241  0.8822  0.3369
 6542TIP3    H241118   4.825   2.328   4.995 -1.1482  0.9046  0.6914
 6543TIP3   OH241119   1.301   1.020   2.087  0.4095  0.8399 -0.3069
 6543TIP3    H141120   1.227   1.068   2.049  1.0566  1.5403 -0.7097
 6543TIP3    H241121   1.304   1.050   2.178 -0.4733 -0.0239  0.0194
 6544TIP3   OH241122   1.590   4.515   2.196 -0.1232  0.1425 -0.3573
 6544TIP3    H141123   1.559   4.511   2.287 -0.8923  0.5407 -0.5938
 6544TIP3    H241124   1.681   4.543   2.204 -0.0751 -0.1607  0.3072
 6545TIP3   OH241125   4.819   4.563   1.854  0.0966 -0.0383 -0.0211
 6545TIP3    H141126   4.788   4.498   1.918  0.2907  0.2184  0.3364
 6545TIP3    H241127   4.875   4.621   1.905  0.4670  0.0121 -0.4879
 6546TIP3   OH241128   6.635   2.380  13.821  0.3460 -0.3563  0.7494
 6546TIP3    H141129   6.648   2.380  13.726  0.3831  0.2899  0.7471
 6546TIP3    H241130   6.576   2.307  13.838 -0.4097  0.1021  0.1261
 6547TIP3   OH241131   3.115   5.112  13.798 -0.1635 -0.9287 -0.1568
 6547TIP3    H141132   3.168   5.189  13.818 -1.1574 -0.9502  3.1136
 6547TIP3    H241133   3.067   5.136  13.718  0.2648  1.4739  0.2320
 6548TIP3   OH241134   3.776   6.119   2.558 -0.0895 -0.0898  0.0841
 6548TIP3    H141135   3.685   6.135   2.583 -0.9090 -1.3209 -1.8170
 6548TIP3    H241136   3.808   6.203   2.526 -0.1097  0.6587  1.9139
 6549TIP3   OH241137   0.768   3.374  12.468 -0.4201  0.0152 -0.2349
 6549TIP3    H141138   0.847   3.327  12.497 -1.1404 -0.9909  0.1613
 6549TIP3    H241139   0.761   3.449  12.527  0.0226 -0.1150 -0.0145
 6550TIP3   OH241140   5.442   5.050  13.383  0.5422 -0.2611 -0.6710
 6550TIP3    H141141   5.494   4.977  13.348  1.3247  0.4201 -0.9542
 6550TIP3    H241142   5.375   5.066  13.317  0.8324 -0.2344 -0.9594
 6551TIP3   OH241143   2.511   0.048   4.072  0.5870 -0.3615 -0.2666
 6551TIP3    H141144   2.523   0.118   4.008 -0.3925  0.9799  0.9441
 6551TIP3    H241145   2.520   0.091   4.157 -0.7979 -1.5230  0.5340
 6552TIP3   OH241146   3.709   4.567   2.570 -0.2087  0.0362  0.1178
 6552TIP3    H141147   3.695   4.538   2.659 -2.0725 -0.4737 -0.3154
 6552TIP3    H241148   3.705   4.663   2.575 -0.8479 -0.0091  0.4929
 6553TIP3   OH241149   3.225   5.011  14.573  0.1867  0.1197 -0.6413
 6553TIP3    H141150   3.217   5.086  14.514 -0.1695  0.9921  0.4873
 6553TIP3    H241151   3.259   4.941  14.517 -1.0190  0.6447 -2.0975
 6554TIP3   OH241152   1.095   3.532  17.256  0.0719  0.5065 -0.1394
 6554TIP3    H141153   1.064   3.532  17.166  0.2818 -1.8922 -0.2664
 6554TIP3    H241154   1.177   3.483  17.253 -1.0725 -1.6997  1.6654
 6555TIP3   OH241155   5.381   4.663   3.032 -0.1395 -0.2728  0.3291
 6555TIP3    H141156   5.291   4.631   3.029  0.2122 -1.3180  0.6347
 6555TIP3    H241157   5.377   4.749   2.989 -1.0918 -0.7538 -0.5880
 6556TIP3   OH241158   5.552   0.196   4.215 -0.0048 -0.0310 -0.3663
 6556TIP3    H141159   5.574   0.201   4.308 -0.4492 -0.3464 -0.2406
 6556TIP3    H241160   5.585   0.278   4.178  2.0188 -0.7903 -0.3379
 6557TIP3   OH241161   0.944   4.271  13.929  0.3042 -0.4747 -0.2590
 6557TIP3    H141162   0.941   4.345  13.989  0.3622  0.1663 -1.0251
 6557TIP3    H241163   0.942   4.311  13.842  1.8674 -1.2984 -0.7053
 6558TIP3   OH241164   4.213   5.827  14.982  0.0409 -0.2505  0.1574
 6558TIP3    H141165   4.152   5.843  14.910  1.0003  0.4748 -0.5027
 6558TIP3    H241166   4.219   5.911  15.028  1.6231  0.0999 -0.6312
 6559TIP3   OH241167   3.024   0.831   1.691 -0.3784  0.0577  0.1717
 6559TIP3    H141168   2.967   0.886   1.744 -0.3131 -0.7131  1.0681
 6559TIP3    H241169   3.097   0.808   1.750  0.5679  0.5638 -0.7713
 6560TIP3   OH241170   1.240   0.840  14.020 -0.0673  0.4759  0.0876
 6560TIP3    H141171   1.293   0.909  13.980  0.0380  1.5764  2.0105
 6560TIP3    H241172   1.304   0.775  14.050 -0.0667  0.2113 -0.4718
 6561TIP3   OH241173   4.600   4.696   3.016  0.1944  0.3286  0.6709
 6561TIP3    H141174   4.574   4.638   3.088 -3.4617  0.9258  0.0667
 6561TIP3    H241175   4.575   4.647   2.937  1.2407  0.9381 -0.0542
 6562TIP3   OH241176   0.629   6.117  13.051  0.0575  0.2153  0.1451
 6562TIP3    H141177   0.648   6.084  12.963 -2.1496  1.5384 -0.9192
 6562TIP3    H241178   0.689   6.069  13.108  1.0636 -1.2144 -1.9730
 6563TIP3   OH241179   6.779   4.815   0.326  0.0749 -0.9044  0.3691
 6563TIP3    H141180   6.760   4.903   0.292 -0.0285 -0.6694  1.0242
 6563TIP3    H241181   6.779   4.825   0.421  0.5590 -1.5151  0.4432
 6564TIP3   OH241182   2.280   3.518  13.358  0.0201 -0.4514  0.4398
 6564TIP3    H141183   2.203   3.465  13.340 -0.4269 -0.2128  1.6261
 6564TIP3    H241184   2.347   3.454  13.385  0.0611 -0.5949  0.0070
 6565TIP3   OH241185   5.982   4.099   0.660  0.3208 -0.2447  0.2583
 6565TIP3    H141186   5.937   4.047   0.593  0.2357  0.2830 -0.0976
 6565TIP3    H241187   6.039   4.158   0.611  0.1875  0.2132  0.6421
 6566TIP3   OH241188   2.166   5.311  16.453  0.1224 -0.3146 -0.2321
 6566TIP3    H141189   2.214   5.394  16.454 -0.6910  0.2386 -2.1685
 6566TIP3    H241190   2.178   5.275  16.541  1.1269  1.4819  0.4173
 6567TIP3   OH241191   5.809   1.701  16.648  0.2794  0.1973 -0.2719
 6567TIP3    H141192   5.810   1.624  16.706 -0.5262  0.1150 -0.3558
 6567TIP3    H241193   5.814   1.664  16.560 -0.5303  0.2038 -0.3323
 6568TIP3   OH241194   4.916   3.512   3.118  0.1502 -0.3346 -0.3754
 6568TIP3    H141195   4.900   3.600   3.151  1.2734  0.4121 -1.7289
 6568TIP3    H241196   4.841   3.493   3.062  0.0871 -0.0911 -0.3746
 6569TIP3   OH241197   4.069   6.120  15.266 -0.3298  0.0453  0.1645
 6569TIP3    H141198   4.142   6.063  15.242  0.7078  1.9142 -1.3814
 6569TIP3    H241199   4.110   6.194  15.311 -0.9315  2.1187 -2.4555
 6570TIP3   OH241200   3.526   3.121  11.727  0.0224  0.3890 -0.2580
 6570TIP3    H141201   3.511   3.170  11.808  0.1341 -0.2586  0.1659
 6570TIP3    H241202   3.607   3.072  11.744  0.9272  1.4477 -1.3508
 6571TIP3   OH241203   3.954   3.419  11.732 -0.4503  0.3946  0.4982
 6571TIP3    H141204   4.041   3.420  11.691  0.0373  0.5895  1.5010
 6571TIP3    H241205   3.959   3.347  11.795 -0.3410  1.6117  1.9348
 6572TIP3   OH241206   6.259   2.701  14.472 -0.2597 -0.7055 -0.3613
 6572TIP3    H141207   6.290   2.696  14.381 -0.4621 -0.5873 -0.4399
 6572TIP3    H241208   6.165   2.720  14.463 -0.9764 -3.7073 -0.1794
 6573TIP3   OH241209   2.392   4.324  11.377 -0.1131  0.4229 -0.2040
 6573TIP3    H141210   2.309   4.372  11.372  0.7217  2.0416  0.4330
 6573TIP3    H241211   2.438   4.349  11.297  0.4135  0.8940  0.2322
 6574TIP3   OH241212   2.324   5.637  15.902 -0.6048  0.1455  0.3984
 6574TIP3    H141213   2.288   5.551  15.921  0.0589 -0.9067 -2.5994
 6574TIP3    H241214   2.418   5.623  15.895 -0.6154  0.7360 -1.5763
 6575TIP3   OH241215   2.180   2.922   3.867  0.1038  0.3157  0.1887
 6575TIP3    H141216   2.173   2.827   3.864 -1.7826  0.4191  0.3537
 6575TIP3    H241217   2.170   2.944   3.959  0.2030  0.7052  0.1079
 6576TIP3   OH241218   0.101   0.910  13.546  0.3612 -0.1128 -0.6438
 6576TIP3    H141219   0.152   0.984  13.516  0.5278  0.1685  0.2842
 6576TIP3    H241220   0.040   0.947  13.610 -2.2953 -0.1214 -2.9656
 6577TIP3   OH241221   1.439   3.777   3.019  0.0199  0.1679 -0.1400
 6577TIP3    H141222   1.375   3.771   2.948  1.3797  0.8988 -1.4976
 6577TIP3    H241223   1.524   3.769   2.975  0.9038  0.3255  1.4602
 6578TIP3   OH241224   6.667   0.151   3.739  0.0327  0.2233 -0.0322
 6578TIP3    H141225   6.696   0.113   3.822 -1.6384 -0.8645  0.1059
 6578TIP3    H241226   6.716   0.103   3.672  0.4501  0.2176  0.2723
 6579TIP3   OH241227   4.271   6.212   0.967  0.2112 -0.7063 -0.3286
 6579TIP3    H141228   4.237   6.277   1.027  0.2703 -0.0382 -0.9939
 6579TIP3    H241229   4.366   6.215   0.980  0.1073 -1.9437  0.9023
 6580TIP3   OH241230   2.633   5.986   2.370 -0.1666  0.1401  0.2854
 6580TIP3    H141231   2.721   5.949   2.366 -0.4117 -0.3293 -1.2787
 6580TIP3    H241232   2.620   6.006   2.463  0.9764 -1.2550  0.7846
 6581TIP3   OH241233   6.712   4.476   1.002  0.3121 -0.2817  0.1690
 6581TIP3    H141234   6.622   4.480   0.970  0.1519 -2.3551  0.2116
 6581TIP3    H241235   6.706   4.508   1.092 -0.4419 -0.6255  0.2528
 6582TIP3   OH241236   6.769   1.327  13.606 -0.2363  0.3043 -0.3231
 6582TIP3    H141237   6.789   1.415  13.576  2.4237 -1.1256 -3.2692
 6582TIP3    H241238   6.820   1.316  13.687 -0.5129  1.3936  0.0059
 6583TIP3   OH241239   3.506   3.428  15.778 -0.2790  0.2969 -0.0850
 6583TIP3    H141240   3.558   3.347  15.779  0.6397  0.6034  4.8266
 6583TIP3    H241241   3.419   3.401  15.805  0.2693  0.8786  2.5474
 6584TIP3   OH241242   2.627   5.286  15.401 -0.4137  0.1566  0.4987
 6584TIP3    H141243   2.571   5.361  15.378  0.1718  1.1027  2.0006
 6584TIP3    H241244   2.687   5.278  15.326 -1.2623  0.4055 -0.2265
 6585TIP3   OH241245   1.548   5.538   4.444  0.1034 -0.1739 -0.0169
 6585TIP3    H141246   1.603   5.610   4.414  0.2029 -1.4210 -3.2066
 6585TIP3    H241247   1.603   5.460   4.436 -1.2817 -1.1254 -0.8197
 6586TIP3   OH241248   4.968   4.677  15.338 -0.2896 -0.8348  0.4909
 6586TIP3    H141249   5.014   4.717  15.413 -1.7514  0.1020  0.9437
 6586TIP3    H241250   4.896   4.738  15.319 -0.0505 -1.1426 -1.5930
 6587TIP3   OH241251   4.409   1.966  13.341 -0.4408 -0.0119  0.2714
 6587TIP3    H141252   4.364   1.886  13.314 -0.9543  0.6705 -0.9963
 6587TIP3    H241253   4.494   1.936  13.372  0.5391 -0.8835 -2.9093
 6588TIP3   OH241254   0.824   6.166   2.243 -0.3153 -0.1896 -0.0116
 6588TIP3    H141255   0.878   6.129   2.313 -2.3665 -0.9815  1.2713
 6588TIP3    H241256   0.809   6.257   2.270  0.3467  0.0251 -0.3588
 6589TIP3   OH241257   4.033   3.386  12.178  0.3432 -0.0605  0.3921
 6589TIP3    H141258   4.030   3.481  12.190 -1.1036  0.2380 -1.7637
 6589TIP3    H241259   4.123   3.368  12.150  1.0696  0.4043  2.2394
 6590TIP3   OH241260   5.014   1.833   1.401 -0.6771 -0.4778 -0.4923
 6590TIP3    H141261   5.105   1.811   1.422  0.3693  3.5317  0.0833
 6590TIP3    H241262   4.968   1.827   1.484  0.0333  1.1734  0.0592
 6591TIP3   OH241263   2.989   5.397  12.955 -0.0336  0.4106  0.0937
 6591TIP3    H141264   3.054   5.399  12.885 -0.3221 -3.0144 -0.4060
 6591TIP3    H241265   2.908   5.372  12.912 -1.1229  1.9916  1.1364
 6592TIP3   OH241266   2.543   3.914   4.222  0.1819  0.5281  0.8251
 6592TIP3    H141267   2.583   3.881   4.303 -1.4240 -0.4066  1.2825
 6592TIP3    H241268   2.454   3.939   4.248 -0.4579 -0.0548 -0.6954
 6593TIP3   OH241269   4.797   5.319  17.059  0.0008 -0.1015 -0.0092
 6593TIP3    H141270   4.753   5.263  16.995 -0.0906  0.4265 -0.4122
 6593TIP3    H241271   4.727   5.349  17.117 -0.0909  0.2993 -0.3235
 6594TIP3   OH241272   2.180   5.319   0.405 -0.2565 -0.4242 -0.3947
 6594TIP3    H141273   2.101   5.287   0.449 -0.2263 -0.2275 -0.1978
 6594TIP3    H241274   2.244   5.248   0.416 -0.0735 -0.1547  0.3655
 6595TIP3   OH241275   6.405   3.388  16.329  0.3787  0.1957 -0.9404
 6595TIP3    H141276   6.359   3.388  16.413  0.7487  3.4239 -0.6216
 6595TIP3    H241277   6.420   3.295  16.310 -0.7243 -0.6911  1.9767
 6596TIP3   OH241278   3.541   1.706  12.916  0.4291 -0.0641 -0.3490
 6596TIP3    H141279   3.564   1.726  13.007  0.8387 -0.4251 -0.3738
 6596TIP3    H241280   3.457   1.661  12.922  0.0791  0.5815 -0.2075
 6597TIP3   OH241281   5.926   0.110   0.796  0.2288  0.4192 -0.4024
 6597TIP3    H141282   5.967   0.067   0.721 -1.4620 -0.2141 -1.0118
 6597TIP3    H241283   5.845   0.147   0.761 -0.3424  0.5666  1.0063
 6598TIP3   OH241284   0.035   2.570  12.907  0.2196 -0.4837  0.0174
 6598TIP3    H141285   0.063   2.509  12.839  1.2252  0.4884 -0.4643
 6598TIP3    H241286   0.085   2.544  12.984  1.0246  0.0176 -0.3194
 6599TIP3   OH241287   4.511   2.159  15.903  0.3564  0.0066 -0.0186
 6599TIP3    H141288   4.418   2.179  15.912 -0.0666 -0.7423 -2.2313
 6599TIP3    H241289   4.519   2.069  15.935 -0.0491 -0.5844 -1.5244
 6600TIP3   OH241290   4.924   3.616   0.424 -0.4122  0.0827  0.6262
 6600TIP3    H141291   4.956   3.698   0.460  0.5636  0.6457 -1.3651
 6600TIP3    H241292   4.995   3.585   0.367 -1.5357 -1.1039 -0.2101
 6601TIP3   OH241293   5.555   6.417  15.708  0.1268  0.3524 -0.7572
 6601TIP3    H141294   5.482   6.355  15.711  1.8124 -1.7609 -1.1998
 6601TIP3    H241295   5.575   6.426  15.615 -1.5313  3.4795 -0.9449
 6602TIP3   OH241296   5.361   3.608  16.886 -0.1523 -0.1685 -0.0916
 6602TIP3    H141297   5.326   3.697  16.887  0.1361 -0.0477  1.1997
 6602TIP3    H241298   5.455   3.619  16.901 -0.0371 -0.6646 -0.4326
 6603TIP3   OH241299   2.058   1.748  11.076  0.0062  0.7243  0.5986
 6603TIP3    H141300   2.143   1.792  11.076  0.7184 -0.5974 -0.3151
 6603TIP3    H241301   2.068   1.676  11.014 -1.0835 -0.7885  2.0925
 6604TIP3   OH241302   6.266   5.626  13.207 -0.3454  0.0815 -0.0924
 6604TIP3    H141303   6.320   5.640  13.285 -0.0397 -2.0719  0.1372
 6604TIP3    H241304   6.326   5.637  13.134  0.6954 -2.8891  0.1742
 6605TIP3   OH241305   5.557   2.014  15.566 -0.0804 -0.2460  0.3139
 6605TIP3    H141306   5.576   1.955  15.638  0.5501  0.6921  0.9464
 6605TIP3    H241307   5.572   1.962  15.487  0.0845 -1.0296  0.8489
 6606TIP3   OH241308   1.166   5.612   0.003 -0.1479 -0.2369  0.2009
 6606TIP3    H141309   1.166   5.531  -0.047 -3.4483 -0.1482 -0.1597
 6606TIP3    H241310   1.193   5.679  -0.060 -2.3107 -0.4122 -1.0021
 6607TIP3   OH241311   1.269   4.642   3.034  0.2234  0.1283 -0.4757
 6607TIP3    H141312   1.331   4.708   3.004 -0.4114 -0.3165 -3.0163
 6607TIP3    H241313   1.185   4.669   2.995 -0.7488 -0.4604  1.0928
 6608TIP3   OH241314   1.702   1.468   1.241  0.0419  0.6695 -0.0488
 6608TIP3    H141315   1.787   1.510   1.252  1.2601 -0.9626 -2.4884
 6608TIP3    H241316   1.721   1.374   1.242 -1.3408  0.2667 -2.7358
 6609TIP3   OH241317   3.520   5.762  15.126  0.3379 -0.5292 -0.2270
 6609TIP3    H141318   3.458   5.808  15.069 -1.8160 -1.4636  1.2107
 6609TIP3    H241319   3.536   5.678  15.082 -0.9376 -1.0495  0.2468
 6610TIP3   OH241320   3.156   6.232  16.272  0.2764 -0.1695  0.4668
 6610TIP3    H141321   3.066   6.244  16.242  0.7781  0.5096 -0.8404
 6610TIP3    H241322   3.194   6.320  16.270  1.0296 -0.4813  0.7900
 6611TIP3   OH241323   5.285   5.674  14.269  0.0671 -0.0446 -1.1025
 6611TIP3    H141324   5.365   5.708  14.310 -0.1328  1.4041 -1.8281
 6611TIP3    H241325   5.217   5.736  14.295 -0.7827 -1.1249 -0.7054
 6612TIP3   OH241326   0.855   0.974   2.909 -0.2400 -0.4576 -0.1448
 6612TIP3    H141327   0.839   0.908   2.842 -0.1876 -1.2724  0.6240
 6612TIP3    H241328   0.809   1.052   2.877  1.8074 -0.0191 -2.3354
 6613TIP3   OH241329   5.088   6.280  14.525  0.3092  0.5400  0.1689
 6613TIP3    H141330   5.158   6.274  14.460  1.1954 -0.6798  1.1955
 6613TIP3    H241331   5.116   6.222  14.596 -1.3994  0.5983  0.9337
 6614TIP3   OH241332   2.303   6.403  15.315 -0.1336 -0.4297  0.0926
 6614TIP3    H141333   2.210   6.382  15.311  0.1427 -1.6811 -0.2396
 6614TIP3    H241334   2.306   6.495  15.342 -1.4621 -0.3029 -0.1244
 6615TIP3   OH241335   3.559   1.218  15.936 -1.0836 -0.1595 -0.2084
 6615TIP3    H141336   3.494   1.161  15.894  0.3654 -0.7592 -1.7475
 6615TIP3    H241337   3.581   1.172  16.018 -1.7668 -0.5115 -0.2111
 6616TIP3   OH241338   5.128   1.463  12.042 -0.1222  0.3181  0.2175
 6616TIP3    H141339   5.111   1.556  12.060  2.1191  0.4733  1.9531
 6616TIP3    H241340   5.175   1.432  12.119  0.4432 -1.9124 -0.9459
 6617TIP3   OH241341   2.937   4.916   2.064  0.3907  0.7926  0.1344
 6617TIP3    H141342   2.988   4.960   2.132  0.2631  0.1462  0.6622
 6617TIP3    H241343   2.848   4.948   2.078  0.5424  1.4834 -0.4232
 6618TIP3   OH241344   2.863   4.228   6.137  0.2496 -0.1432 -0.1030
 6618TIP3    H141345   2.800   4.161   6.164  0.6159 -0.9601 -1.2097
 6618TIP3    H241346   2.938   4.215   6.195  0.4683 -0.9540 -0.5506
 6619TIP3   OH241347   2.187   4.656   5.869  0.2998  0.0242  0.0608
 6619TIP3    H141348   2.191   4.586   5.804 -0.0597 -0.2177  0.3013
 6619TIP3    H241349   2.243   4.725   5.832 -0.8361  0.3693 -1.0795
 6620TIP3   OH241350   5.299   1.146  12.576  0.2643 -0.1418  0.0808
 6620TIP3    H141351   5.305   1.052  12.593  0.3683  0.1413  1.7641
 6620TIP3    H241352   5.290   1.186  12.663 -1.2587  1.3086 -0.6850
 6621TIP3   OH241353   3.012   1.880   5.567  0.1063  0.3373 -0.4620
 6621TIP3    H141354   3.068   1.846   5.636 -1.1389  0.5465  0.6813
 6621TIP3    H241355   2.931   1.830   5.574 -1.1456  2.3113  0.1867
 6622TIP3   OH241356   4.315   4.419   0.527 -0.4069 -0.2005  0.3297
 6622TIP3    H141357   4.228   4.457   0.515 -0.4826 -0.4690  0.0216
 6622TIP3    H241358   4.347   4.404   0.439  0.4742  1.0651  0.4163
 6623TIP3   OH241359   1.615   4.943  17.268  0.1315  0.0370 -0.0389
 6623TIP3    H141360   1.621   4.856  17.229 -0.3672  0.0146 -0.0699
 6623TIP3    H241361   1.698   4.953  17.315  0.5851 -0.0831 -0.7861
 6624TIP3   OH241362   4.165   5.061   2.614  0.6769 -0.2901  0.6198
 6624TIP3    H141363   4.085   5.023   2.651 -0.3471  0.8485 -0.3174
 6624TIP3    H241364   4.154   5.052   2.520  0.5006  2.0015  0.3667
 6625TIP3   OH241365   6.462   3.870  11.826  0.1728  0.5635  0.8286
 6625TIP3    H141366   6.481   3.945  11.769  0.1494  0.6743  0.9666
 6625TIP3    H241367   6.414   3.908  11.899 -0.1248  0.3632  0.7358
 6626TIP3   OH241368   5.102   6.653  16.221 -0.4596  0.3408  0.1968
 6626TIP3    H141369   5.143   6.584  16.274  0.5092  1.2317  0.6437
 6626TIP3    H241370   5.157   6.658  16.143 -1.3800 -0.3719 -0.5142
 6627TIP3   OH241371   4.347   2.688   4.571  0.0431 -0.7230  0.2828
 6627TIP3    H141372   4.266   2.739   4.580  1.4156  1.3077  1.8727
 6627TIP3    H241373   4.412   2.751   4.540  1.1340 -2.2348 -0.6302
 6628TIP3   OH241374   5.769   5.088  15.368  0.1250  0.2674  0.4175
 6628TIP3    H141375   5.751   5.036  15.290 -0.4211  0.3971  0.4549
 6628TIP3    H241376   5.748   5.177  15.343  0.2957  0.3606  0.6025
 6629TIP3   OH241377   0.444   0.324   3.490 -0.1242 -0.3232  0.8504
 6629TIP3    H141378   0.521   0.373   3.518 -0.4559  0.1699  0.9218
 6629TIP3    H241379   0.477   0.237   3.469  0.7642  0.3438 -0.7714
 6630TIP3   OH241380   5.157   1.980   0.012 -0.0323  0.3611  0.1062
 6630TIP3    H141381   5.085   1.917   0.013 -0.5285  0.9299  0.0241
 6630TIP3    H241382   5.236   1.925   0.012 -0.4589 -0.2615  0.1126
 6631TIP3   OH241383   4.026   1.222   3.305 -0.0805 -0.4278  0.0389
 6631TIP3    H141384   4.037   1.312   3.335 -0.0305 -0.0024 -1.1776
 6631TIP3    H241385   3.964   1.183   3.367 -0.5630  0.6303  0.2388
 6632TIP3   OH241386   5.235   0.203  14.541  1.3337  0.4096 -0.2849
 6632TIP3    H141387   5.184   0.163  14.611  2.1075  0.1835  0.1636
 6632TIP3    H241388   5.183   0.190  14.462  0.9615 -0.2947  0.0724
 6633TIP3   OH241389   0.013   1.244  15.762 -0.5265  0.4064 -0.1623
 6633TIP3    H141390   0.107   1.241  15.778 -0.4004  0.5277 -0.8708
 6633TIP3    H241391   0.002   1.303  15.688 -0.7523 -2.8216 -2.9375
 6634TIP3   OH241392   2.851   3.899   1.151 -0.8193 -0.5610 -0.1493
 6634TIP3    H141393   2.845   3.872   1.243 -1.9537  0.4728  0.1000
 6634TIP3    H241394   2.945   3.905   1.134 -0.4954  2.0376  1.8462
 6635TIP3   OH241395   3.782   4.376  11.680  0.5794  0.0381  0.8148
 6635TIP3    H141396   3.848   4.399  11.614 -0.2278 -1.3667 -0.5321
 6635TIP3    H241397   3.782   4.281  11.682 -0.3412  0.0441  1.9263
 6636TIP3   OH241398   1.591   4.377  13.587 -0.0630  0.2560  0.6867
 6636TIP3    H141399   1.509   4.336  13.614 -0.0677 -0.1610  0.0628
 6636TIP3    H241400   1.639   4.391  13.669 -0.2638 -0.5812  0.9574
 6637TIP3   OH241401   1.638   2.462  15.641 -0.2122 -1.0675 -0.3451
 6637TIP3    H141402   1.613   2.552  15.619 -0.5895 -1.0948 -0.0472
 6637TIP3    H241403   1.728   2.454  15.611  0.0762 -0.3474  0.3005
 6638TIP3   OH241404   3.908   4.654   0.719  0.3969  0.6124  0.5664
 6638TIP3    H141405   3.830   4.706   0.701  2.0786  2.6519 -1.3479
 6638TIP3    H241406   3.893   4.571   0.675 -0.7259  0.9108  0.3558
 6639TIP3   OH241407   2.147   3.398   6.141 -0.1799  0.0069 -0.8376
 6639TIP3    H141408   2.240   3.383   6.157 -0.1326  0.1020 -1.0150
 6639TIP3    H241409   2.142   3.492   6.123 -0.5920  0.4139  1.1450
 6640TIP3   OH241410   4.236   0.123   0.834  0.5196 -0.1814  0.3863
 6640TIP3    H141411   4.216   0.202   0.884 -1.1753  0.3795 -1.0451
 6640TIP3    H241412   4.216   0.051   0.894 -0.5797  0.4757  0.8400
 6641TIP3   OH241413   3.890   0.371  17.165 -0.1514 -0.2928  0.2379
 6641TIP3    H141414   3.945   0.363  17.242  0.0484 -1.2902  0.0059
 6641TIP3    H241415   3.852   0.284  17.153 -0.4059 -0.0775 -0.6149
 6642TIP3   OH241416   2.888   5.210  17.241  0.2524 -0.5515  0.5482
 6642TIP3    H141417   2.864   5.260  17.163  0.6269  1.3399  1.5584
 6642TIP3    H241418   2.982   5.225  17.251  0.3306 -1.3101  0.9891
 6643TIP3   OH241419   3.335   1.820   4.001  0.0934 -0.3767  0.1261
 6643TIP3    H141420   3.395   1.894   4.011 -0.1927 -0.2121  0.7025
 6643TIP3    H241421   3.257   1.858   3.960  0.4324 -0.6174 -0.7468
 6644TIP3   OH241422   4.000   2.432   4.934 -0.0795  0.0735  0.3021
 6644TIP3    H141423   4.030   2.416   4.844 -1.2642 -0.8778  0.0500
 6644TIP3    H241424   4.023   2.351   4.981 -3.9495 -1.6339 -0.3943
 6645TIP3   OH241425   2.152   6.620   6.175 -0.1498  0.2928  0.2510
 6645TIP3    H141426   2.180   6.704   6.140  1.6827  0.3354  1.6633
 6645TIP3    H241427   2.232   6.581   6.212 -1.2859 -1.2650  1.2117
 6646TIP3   OH241428   1.775   6.032  11.078  0.1516 -0.4176  0.3324
 6646TIP3    H141429   1.845   5.987  11.031 -1.5006 -2.5310 -0.2818
 6646TIP3    H241430   1.768   5.985  11.161  0.7731  1.1093  1.2992
 6647TIP3   OH241431   6.479   6.030  14.452 -0.1839 -0.0766 -0.1960
 6647TIP3    H141432   6.524   6.104  14.411  0.1257 -0.0935  0.1103
 6647TIP3    H241433   6.504   6.035  14.544 -0.4320 -0.3665 -0.1120
 6648TIP3   OH241434   2.535   2.775   1.101  0.7097 -0.5097 -0.7153
 6648TIP3    H141435   2.454   2.791   1.053  1.1258  0.4740 -1.1075
 6648TIP3    H241436   2.511   2.787   1.193  0.7437  1.3612 -0.9200
 6649TIP3   OH241437   5.181   0.963  12.269  0.4076 -0.3891  0.4628
 6649TIP3    H141438   5.262   0.952  12.219  0.1762 -0.9296  0.2010
 6649TIP3    H241439   5.121   0.900  12.231  0.2273 -0.8219  1.4378
 6650TIP3   OH241440   1.664   2.434   3.294  0.2832  0.0573 -0.1935
 6650TIP3    H141441   1.583   2.482   3.276 -0.4863 -1.4726 -0.9393
 6650TIP3    H241442   1.715   2.443   3.214 -0.3977 -1.3639 -0.8181
 6651TIP3   OH241443   4.436   3.114  11.842  0.2248  0.1865  0.0043
 6651TIP3    H141444   4.505   3.075  11.788 -1.2822 -0.6374 -1.4148
 6651TIP3    H241445   4.454   3.081  11.930 -0.3656 -3.0292 -0.9244
 6652TIP3   OH241446   1.742   0.427   5.013  0.1489 -0.2846 -0.5685
 6652TIP3    H141447   1.756   0.376   5.093  1.4021  1.6868  0.5487
 6652TIP3    H241448   1.802   0.387   4.950  1.4550  0.0188  0.4189
 6653TIP3   OH241449   2.429   0.166   4.750  0.2262 -0.1163  0.0111
 6653TIP3    H141450   2.436   0.070   4.751 -1.2201 -0.3523 -2.8363
 6653TIP3    H241451   2.379   0.186   4.829 -0.3475 -1.8008  0.1279
 6654TIP3   OH241452   5.729   6.689  17.149 -0.4040  0.1856 -0.0154
 6654TIP3    H141453   5.738   6.751  17.077  0.2230 -0.3446 -0.4109
 6654TIP3    H241454   5.643   6.650  17.136  0.7743 -1.9801 -2.2202
 6655TIP3   OH241455   6.153   0.524  14.085 -0.6676  0.2268  0.4396
 6655TIP3    H141456   6.106   0.546  14.166 -1.6369  0.7944 -0.2583
 6655TIP3    H241457   6.084   0.509  14.021  0.0875  1.5842 -0.7424
 6656TIP3   OH241458   4.345   6.384  11.754 -0.1255 -0.4583  0.3011
 6656TIP3    H141459   4.289   6.313  11.723  0.2896 -0.1243 -1.3478
 6656TIP3    H241460   4.433   6.361  11.724 -0.1419  1.2101 -1.2699
 6657TIP3   OH241461   5.614   6.106  13.639  0.0811  0.2047 -0.6477
 6657TIP3    H141462   5.671   6.076  13.568 -0.7494  0.2245 -1.3460
 6657TIP3    H241463   5.553   6.033  13.653  0.0640  0.3120 -0.1424
 6658TIP3   OH241464   3.829   0.996   5.294 -0.4097 -0.1727 -0.6683
 6658TIP3    H141465   3.855   0.905   5.278  1.6883  0.5833 -2.1263
 6658TIP3    H241466   3.910   1.046   5.281 -1.1311  1.7846  1.6499
 6659TIP3   OH241467   3.291   0.451  12.794 -0.0391  0.3280 -0.3597
 6659TIP3    H141468   3.207   0.493  12.809 -1.4872 -2.7534  1.1680
 6659TIP3    H241469   3.279   0.400  12.714 -0.1529 -1.1476  0.5548
 6660TIP3   OH241470   1.444   6.547   3.098 -0.2035 -0.2834  0.0131
 6660TIP3    H141471   1.492   6.564   3.179  1.5763 -1.3641 -0.7628
 6660TIP3    H241472   1.480   6.609   3.035 -2.3841  1.3535  0.2640
 6661TIP3   OH241473   1.422   4.938  13.947  1.0958 -0.0065 -0.1153
 6661TIP3    H141474   1.385   5.020  13.979  1.5560  0.1929 -0.0724
 6661TIP3    H241475   1.459   4.961  13.861 -2.0008 -1.0103 -1.8600
 6662TIP3   OH241476   3.282   2.268  14.427  0.3082 -0.2601 -0.0894
 6662TIP3    H141477   3.228   2.190  14.414 -0.1595 -0.1336  0.9653
 6662TIP3    H241478   3.226   2.340  14.396 -0.6995  0.0129  2.1959
 6663TIP3   OH241479   2.410   6.406  15.822  0.2881  0.7219 -0.0123
 6663TIP3    H141480   2.444   6.494  15.838 -2.0212  1.7237 -0.2050
 6663TIP3    H241481   2.364   6.412  15.738  0.2701 -0.7338 -0.1364
 6664TIP3   OH241482   6.721   0.732  15.026 -0.2723  0.6518 -0.1603
 6664TIP3    H141483   6.685   0.804  15.078 -1.9086 -0.9556  1.0983
 6664TIP3    H241484   6.658   0.660  15.038  3.3085 -2.5079  2.3199
 6665TIP3   OH241485   4.189   2.317   1.791  0.1330  0.3324  0.6442
 6665TIP3    H141486   4.281   2.340   1.776 -0.0521  1.0396  0.5498
 6665TIP3    H241487   4.145   2.341   1.709 -0.3160  1.0251  1.0745
 6666TIP3   OH241488   2.481   2.959  13.161 -0.2082 -0.5107  0.1824
 6666TIP3    H141489   2.421   2.918  13.098  0.0177 -0.9880  0.2780
 6666TIP3    H241490   2.538   2.888  13.189  0.4017 -0.0592  0.0963
 6667TIP3   OH241491   2.051   3.066  12.210 -0.0304  0.0205 -0.3367
 6667TIP3    H141492   2.038   2.971  12.211  0.0171  0.0158  0.0874
 6667TIP3    H241493   1.984   3.099  12.150 -1.1171 -0.1342  0.7528
 6668TIP3   OH241494   5.897   0.059   6.087 -0.1095  0.0469  0.3066
 6668TIP3    H141495   5.986   0.028   6.106 -0.9421 -0.7829  3.2765
 6668TIP3    H241496   5.855   0.065   6.172 -3.1007 -0.0675 -1.0488
 6669TIP3   OH241497   0.454   1.620   4.992 -0.1598  0.0309 -0.3421
 6669TIP3    H141498   0.471   1.694   5.050 -1.5746 -0.6813  1.0642
 6669TIP3    H241499   0.430   1.660   4.909  4.0494  1.1029 -1.3241
 6670TIP3   OH241500   1.836   4.163  16.175  0.3757 -0.2278 -0.3636
 6670TIP3    H141501   1.916   4.190  16.130  0.3622 -1.1000 -0.9507
 6670TIP3    H241502   1.767   4.219  16.140  0.4869 -0.4525 -0.9497
 6671TIP3   OH241503   1.349   6.215  12.704 -0.0253 -0.3162  0.6747
 6671TIP3    H141504   1.423   6.207  12.644  2.0871 -1.1461  3.1837
 6671TIP3    H241505   1.358   6.303  12.740 -0.9107 -0.0479  0.2636
 6672TIP3   OH241506   1.396   6.053   2.268  0.2538 -0.6004 -0.0376
 6672TIP3    H141507   1.375   5.984   2.332 -3.5682  1.2255  0.9638
 6672TIP3    H241508   1.391   6.008   2.184  0.2959 -2.0266  0.6730
 6673TIP3   OH241509   3.178   0.475  13.635 -0.3802  0.3130 -0.1092
 6673TIP3    H141510   3.119   0.543  13.666 -0.2993  0.4991 -0.3572
 6673TIP3    H241511   3.131   0.393  13.651 -1.5283  0.5475 -2.0147
 6674TIP3   OH241512   3.193   1.239  12.641 -0.3355  0.5977 -0.3112
 6674TIP3    H141513   3.130   1.174  12.674  0.1297 -0.0417 -0.6650
 6674TIP3    H241514   3.138   1.310  12.608 -0.8594  0.3486 -0.0051
 6675TIP3   OH241515   5.041   1.081   4.635 -0.1325 -0.7003  0.2173
 6675TIP3    H141516   4.998   1.110   4.554  0.3533  1.4318  0.6644
 6675TIP3    H241517   5.008   0.993   4.649 -0.7374 -0.8850 -1.9484
 6676TIP3   OH241518   3.822   0.122   2.565 -0.3510 -0.4069 -0.3991
 6676TIP3    H141519   3.746   0.141   2.510  1.1226 -1.5401 -3.0005
 6676TIP3    H241520   3.873   0.059   2.514  3.4636  1.9768  0.1226
 6677TIP3   OH241521   4.529   3.972   0.021 -0.1769 -0.2163  0.2585
 6677TIP3    H141522   4.604   3.952   0.077  0.1403  1.2881  0.4210
 6677TIP3    H241523   4.471   3.897   0.031  1.4379 -1.6150 -0.1597
 6678TIP3   OH241524   1.685   2.680   3.018  0.6414  0.5645 -0.6121
 6678TIP3    H141525   1.695   2.714   3.107  3.1905 -1.5492  0.0460
 6678TIP3    H241526   1.747   2.730   2.966  0.7267  0.3294 -0.7357
 6679TIP3   OH241527   4.832   4.641   5.261 -0.1399 -0.9028  0.7725
 6679TIP3    H141528   4.801   4.649   5.171  2.7674 -0.4728 -0.3108
 6679TIP3    H241529   4.753   4.625   5.313 -1.9769 -0.5765 -1.7509
 6680TIP3   OH241530   3.335   0.440   4.416 -0.0538  0.1417  0.0868
 6680TIP3    H141531   3.378   0.402   4.492 -0.3109  0.7107  0.5233
 6680TIP3    H241532   3.407   0.465   4.358  0.1256 -0.7356 -0.0807
 6681TIP3   OH241533   2.164   6.462  11.963  0.0014  0.3076  0.3593
 6681TIP3    H141534   2.217   6.464  11.883  0.0260  1.8715  0.3824
 6681TIP3    H241535   2.150   6.554  11.985  0.1589 -0.0847  2.2760
 6682TIP3   OH241536   6.328   5.621   5.065 -0.1809  0.1464  0.2181
 6682TIP3    H141537   6.408   5.650   5.111  0.5012 -0.4796 -0.5336
 6682TIP3    H241538   6.257   5.646   5.123  0.6640 -0.8086  1.7638
 6683TIP3   OH241539   2.081   6.770   5.330  0.5886 -0.2714 -0.7661
 6683TIP3    H141540   2.141   6.761   5.404  1.8282 -0.2391 -1.7439
 6683TIP3    H241541   2.070   6.865   5.319 -0.3889 -0.2719 -0.0420
 6684TIP3   OH241542   6.634   0.976   3.170 -0.5650 -0.2409  0.3144
 6684TIP3    H141543   6.585   0.976   3.252 -0.9388  1.5623  0.1227
 6684TIP3    H241544   6.574   1.014   3.105  1.4691  3.5638  0.3972
 6685TIP3   OH241545   5.710   1.191   0.112 -0.1358 -0.5410 -0.4897
 6685TIP3    H141546   5.665   1.191   0.028  0.9143  0.6871 -1.0777
 6685TIP3    H241547   5.801   1.171   0.091  0.4163  1.1139  0.1640
 6686TIP3   OH241548   2.219   4.988   5.161  0.1948  0.6603 -0.1986
 6686TIP3    H141549   2.186   5.072   5.194  1.2318  1.4533 -1.0823
 6686TIP3    H241550   2.272   5.012   5.084  1.5087 -0.6835  0.2414
 6687TIP3   OH241551   3.762   0.923  14.950 -0.1171  0.4294  0.3361
 6687TIP3    H141552   3.796   0.862  15.015  1.5588  1.6017  0.6133
 6687TIP3    H241553   3.718   0.991  15.001 -2.2248 -0.6051  0.0160
 6688TIP3   OH241554   6.450   2.685   4.186  0.1010 -0.2091 -0.1361
 6688TIP3    H141555   6.491   2.676   4.100 -2.0134 -1.0658 -1.1221
 6688TIP3    H241556   6.356   2.686   4.168 -0.4235 -0.8469  2.2145
 6689TIP3   OH241557   3.871   3.764  14.352 -0.1875 -0.0109 -0.4195
 6689TIP3    H141558   3.849   3.851  14.386 -0.9909 -0.4107  0.1200
 6689TIP3    H241559   3.966   3.766  14.339 -0.0122  0.5157  0.8457
 6690TIP3   OH241560   2.396   0.145   2.451 -0.2072  0.3424 -0.1944
 6690TIP3    H141561   2.442   0.106   2.377 -0.6050  0.1664 -0.3542
 6690TIP3    H241562   2.382   0.073   2.511 -2.6926 -0.2455 -1.3593
 6691TIP3   OH241563   6.467   6.276   4.409 -0.5432 -0.3758 -0.5909
 6691TIP3    H141564   6.471   6.275   4.505 -0.2188  1.0774 -0.5704
 6691TIP3    H241565   6.515   6.197   4.383 -0.6740 -0.8203  0.4344
 6692TIP3   OH241566   3.785   0.042  15.731  0.2283  0.1942 -0.0496
 6692TIP3    H141567   3.754  -0.040  15.695  1.4870  0.0724 -0.9325
 6692TIP3    H241568   3.724   0.063  15.801 -1.3036 -0.4297 -1.1589
 6693TIP3   OH241569   0.152   2.427   1.153 -0.5410 -0.7166 -0.6183
 6693TIP3    H141570   0.059   2.409   1.141 -0.4074 -2.1879  0.2580
 6693TIP3    H241571   0.195   2.343   1.138  0.3496 -0.7689  1.8164
 6694TIP3   OH241572   1.441   1.796  11.634  0.6262 -0.3002 -0.0597
 6694TIP3    H141573   1.481   1.731  11.575 -0.2396  1.9842 -3.4823
 6694TIP3    H241574   1.508   1.862  11.646 -0.0766  0.5936 -0.8591
 6695TIP3   OH241575   5.841   0.193   5.217 -0.0736  0.4680 -0.0816
 6695TIP3    H141576   5.815   0.179   5.308 -0.9780  0.8741 -0.2704
 6695TIP3    H241577   5.760   0.185   5.167  0.4916 -0.2506 -0.9163
 6696TIP3   OH241578   5.433   0.865  17.036 -0.2369 -0.5284  0.1228
 6696TIP3    H141579   5.407   0.797  16.975  1.9276  0.8784 -2.6059
 6696TIP3    H241580   5.385   0.943  17.008  1.1427  0.2575 -0.1895
 6697TIP3   OH241581   3.289   6.743   2.225 -0.5580  0.1494 -0.7744
 6697TIP3    H141582   3.245   6.794   2.157 -2.2958 -0.9574 -0.5557
 6697TIP3    H241583   3.226   6.674   2.248 -0.5670  1.1248  2.7886
 6698TIP3   OH241584   3.825   0.320   1.693  0.1772  0.0573 -0.2438
 6698TIP3    H141585   3.867   0.270   1.623 -1.5564 -1.9624  0.0212
 6698TIP3    H241586   3.732   0.318   1.670 -0.1717  1.4336  0.9039
 6699TIP3   OH241587   5.900   0.942  15.397 -0.3218 -0.0716  0.3105
 6699TIP3    H141588   5.867   0.907  15.314  0.3620 -1.4969  0.6133
 6699TIP3    H241589   5.822   0.967  15.446 -0.8082 -0.8505 -0.0683
 6700TIP3   OH241590   0.495   6.246   1.153 -0.0958 -0.0721 -0.6252
 6700TIP3    H141591   0.451   6.304   1.215  0.2237 -0.2060 -0.2654
 6700TIP3    H241592   0.458   6.159   1.172 -0.1816 -0.0726 -0.7950
 6701TIP3   OH241593   5.135   1.701   3.503 -0.4427 -0.2986 -0.1007
 6701TIP3    H141594   5.172   1.746   3.579 -1.2959 -1.6594  1.1761
 6701TIP3    H241595   5.041   1.721   3.507 -0.4107  0.1241 -1.1727
 6702TIP3   OH241596   2.268   1.510   2.814 -0.0696  0.1222  0.1592
 6702TIP3    H141597   2.293   1.470   2.731 -1.3653 -1.5183  0.5124
 6702TIP3    H241598   2.213   1.585   2.788  2.9281  2.2959 -0.5193
 6703TIP3   OH241599   4.563   0.667   2.062 -0.7477  0.7366  0.0470
 6703TIP3    H141600   4.509   0.674   1.983 -0.6574  1.9631  0.0714
 6703TIP3    H241601   4.601   0.580   2.058  1.5744  1.7235 -2.8062
 6704TIP3   OH241602   1.649   1.357  11.529 -0.3025 -0.1601 -0.5045
 6704TIP3    H141603   1.593   1.293  11.573  0.7425 -1.3346 -0.8181
 6704TIP3    H241604   1.722   1.369  11.589 -0.3435  0.5222 -0.5895
 6705TIP3   OH241605   0.700   2.796   1.458  0.0779 -0.0218  0.4108
 6705TIP3    H141606   0.683   2.801   1.364 -1.5908  0.5758  0.7244
 6705TIP3    H241607   0.794   2.817   1.466 -0.0469  1.2528 -0.9964
 6706TIP3   OH241608   4.582   3.683  14.581  0.6187  0.6109 -0.0260
 6706TIP3    H141609   4.659   3.736  14.602  0.4117  0.6654  0.6260
 6706TIP3    H241610   4.538   3.671  14.665  0.0161  0.4206 -0.3655
 6707TIP3   OH241611   6.134   3.554   6.187 -0.0684  0.1819  0.1525
 6707TIP3    H141612   6.192   3.544   6.263 -0.7879  1.2804  0.8753
 6707TIP3    H241613   6.109   3.646   6.188  0.2320  0.3244 -1.6876
 6708TIP3   OH241614   6.371   4.169  16.510  0.1309 -0.1542 -0.0622
 6708TIP3    H141615   6.396   4.139  16.597  2.2247 -0.7062 -0.8043
 6708TIP3    H241616   6.401   4.260  16.507  0.7150 -0.3541 -0.4354
 6709TIP3   OH241617   5.452   2.996  16.362 -0.1040 -0.3310  0.8763
 6709TIP3    H141618   5.456   2.925  16.426  0.4794 -0.1385  1.0588
 6709TIP3    H241619   5.526   3.052  16.384 -0.9128  0.6825  1.1374
 6710TIP3   OH241620   0.332   5.712   0.594  0.0300 -0.0180  0.3826
 6710TIP3    H141621   0.290   5.629   0.570 -0.4373  0.2693  0.1955
 6710TIP3    H241622   0.278   5.779   0.553 -0.1902  0.4351  1.3779
 6711TIP3   OH241623   3.548   5.808   5.228 -0.0853  0.4639  0.4344
 6711TIP3    H141624   3.610   5.872   5.263  0.4250 -0.6686  1.7261
 6711TIP3    H241625   3.463   5.852   5.232  0.2200  0.9838  1.5462
 6712TIP3   OH241626   2.777   4.339  11.291 -1.2786 -0.4411 -0.6632
 6712TIP3    H141627   2.849   4.356  11.231 -0.9134  1.1878  0.1689
 6712TIP3    H241628   2.702   4.383  11.250 -0.8668  1.3107  0.3553
 6713TIP3   OH241629   1.862   5.645   1.569  0.3394  0.0221 -0.2214
 6713TIP3    H141630   1.795   5.640   1.638  0.0962  2.1288 -0.2458
 6713TIP3    H241631   1.900   5.557   1.567 -0.6366 -0.5073  1.6010
 6714TIP3   OH241632   1.130   5.559  12.819 -0.6686  0.3131  0.1991
 6714TIP3    H141633   1.221   5.584  12.833 -0.3008 -0.1937 -1.0795
 6714TIP3    H241634   1.127   5.466  12.839 -1.1460  0.5334  1.1986
 6715TIP3   OH241635   3.365   2.015  15.716 -0.1919  0.2402  0.6217
 6715TIP3    H141636   3.438   1.954  15.714  0.8654  1.4443 -1.6805
 6715TIP3    H241637   3.370   2.056  15.802  1.6154 -0.0106  0.6710
 6716TIP3   OH241638   5.545   0.680  13.767  0.0525 -0.1087  0.0511
 6716TIP3    H141639   5.500   0.621  13.828  0.9448  1.3242  2.1859
 6716TIP3    H241640   5.629   0.637  13.750  0.8097  0.6126  1.8069
 6717TIP3   OH241641   1.279   0.897   0.945  0.3406 -0.6626  0.1666
 6717TIP3    H141642   1.256   0.988   0.960  0.3320 -0.8761  1.5448
 6717TIP3    H241643   1.373   0.898   0.927  0.8731 -0.6063  2.6917
 6718TIP3   OH241644   1.346   3.740   4.962  0.0184  0.4317  0.1280
 6718TIP3    H141645   1.289   3.803   4.918  0.0205  0.0996 -0.3590
 6718TIP3    H241646   1.435   3.770   4.941  0.0208  0.6271  0.4189
 6719TIP3   OH241647   0.928   5.696   0.098 -0.3838 -0.0784  0.0258
 6719TIP3    H141648   0.892   5.638   0.165 -1.5562  1.1188  0.4921
 6719TIP3    H241649   1.018   5.666   0.086  0.3352  0.4299  3.1088
 6720TIP3   OH241650   4.727   6.252   0.619 -0.0231  0.9082  0.3740
 6720TIP3    H141651   4.690   6.329   0.662  0.0313  0.5780  1.0191
 6720TIP3    H241652   4.679   6.246   0.536 -0.4199  1.3068  0.5707
 6721TIP3   OH241653   1.708   6.242   6.390 -0.1928 -0.1048 -0.1110
 6721TIP3    H141654   1.628   6.244   6.442  0.4001 -0.4672  0.8466
 6721TIP3    H241655   1.700   6.165   6.334 -0.3105 -0.4095  0.3224
 6722TIP3   OH241656   1.235   2.010   2.711 -0.5785  0.2632 -0.1690
 6722TIP3    H141657   1.314   1.970   2.672 -2.1808 -3.4273 -0.0920
 6722TIP3    H241658   1.165   1.989   2.649 -2.0257  0.5684  1.3106
 6723TIP3   OH241659   5.651   5.645  16.244 -0.3560  0.4225 -0.0848
 6723TIP3    H141660   5.591   5.616  16.175  1.1238 -0.3738 -1.0974
 6723TIP3    H241661   5.735   5.656  16.199  0.2221  1.7789  1.2254
 6724TIP3   OH241662   4.235   5.110   1.836  0.0256  0.2274  0.7320
 6724TIP3    H141663   4.145   5.089   1.862  0.0664 -2.0003 -0.6556
 6724TIP3    H241664   4.282   5.027   1.844  1.9921  1.3346  1.4083
 6725TIP3   OH241665   5.607   2.433   2.336 -0.2533  0.2355 -0.3679
 6725TIP3    H141666   5.667   2.382   2.391  0.4986 -1.1720 -2.3751
 6725TIP3    H241667   5.629   2.524   2.355 -1.0597 -0.0759  2.7092
 6726TIP3   OH241668   5.969   1.381   5.433 -0.0261  0.1640 -0.7405
 6726TIP3    H141669   6.024   1.306   5.411  0.9444  0.6672 -0.0654
 6726TIP3    H241670   6.010   1.420   5.510 -0.1018  1.8032 -1.4813
 6727TIP3   OH241671   2.891   2.026  14.498  0.2170  0.5926 -0.6100
 6727TIP3    H141672   2.934   1.967  14.435  1.6147  1.2643 -0.3263
 6727TIP3    H241673   2.837   2.083  14.443  0.6521  0.5272 -1.1244
 6728TIP3   OH241674   4.696   5.539   6.181  0.0379 -0.5279  0.0052
 6728TIP3    H141675   4.628   5.472   6.173  1.0095 -1.3045 -2.5461
 6728TIP3    H241676   4.718   5.562   6.091  0.0241  2.9946  0.7775
 6729TIP3   OH241677   2.297   0.567   5.162 -0.1754  0.3340 -0.0118
 6729TIP3    H141678   2.296   0.574   5.067 -0.5147 -0.9679 -0.1187
 6729TIP3    H241679   2.229   0.503   5.183 -0.6024  1.1250  1.1665
 6730TIP3   OH241680   4.512   0.867   5.717 -0.2624  0.1296  0.4528
 6730TIP3    H141681   4.498   0.954   5.755  2.0369 -0.2735  2.4996
 6730TIP3    H241682   4.488   0.806   5.787 -1.5240 -0.9355 -0.8366
 6731TIP3   OH241683   2.279   5.460   3.520 -0.0737 -1.0310 -0.1410
 6731TIP3    H141684   2.352   5.479   3.578  0.2631  0.2601 -0.9349
 6731TIP3    H241685   2.312   5.478   3.432 -1.0773 -1.2650 -0.5859
 6732TIP3   OH241686   6.163   0.784   2.034 -0.3687  0.1577  0.1578
 6732TIP3    H141687   6.212   0.726   2.092 -0.7218 -0.7560 -0.4370
 6732TIP3    H241688   6.205   0.774   1.949 -1.0370  0.0508 -0.1601
 6733TIP3   OH241689   2.159   3.331  12.373  0.1305  0.0029  0.0254
 6733TIP3    H141690   2.194   3.313  12.286  0.8905  1.6538 -0.0545
 6733TIP3    H241691   2.127   3.247  12.405 -0.5592 -0.5527 -2.0150
 6734TIP3   OH241692   4.430   1.719   5.772 -0.5898 -0.2670 -0.5131
 6734TIP3    H141693   4.511   1.721   5.824 -1.1828 -1.5072  0.5003
 6734TIP3    H241694   4.392   1.633   5.789 -1.6558 -0.0637 -1.7187
 6735TIP3   OH241695   6.174   2.524   5.178  0.1623  0.3859  0.2413
 6735TIP3    H141696   6.209   2.592   5.236 -3.1655  1.4397  1.2459
 6735TIP3    H241697   6.139   2.572   5.103  1.4090 -0.6851 -1.0912
 6736TIP3   OH241698   0.165   6.631   3.832  0.1507  0.3773  0.1742
 6736TIP3    H141699   0.146   6.701   3.893  2.3797  0.3512  0.9863
 6736TIP3    H241700   0.258   6.641   3.811  0.7310 -2.6558  0.8088
 6737TIP3   OH241701   5.216   1.953  10.891 -0.0146  0.4814 -0.0912
 6737TIP3    H141702   5.144   1.930  10.832 -0.3041  2.0887 -0.4015
 6737TIP3    H241703   5.282   1.993  10.834  0.9964 -0.6404  0.2465
 6738TIP3   OH241704   1.729   6.248   1.437  0.1282 -0.3466  0.6389
 6738TIP3    H141705   1.739   6.333   1.480  0.7619 -0.9646  1.7574
 6738TIP3    H241706   1.636   6.228   1.445 -0.2185  0.6334 -0.4604
 6739TIP3   OH241707   3.023   6.576   0.300  0.1411  0.3102  0.3550
 6739TIP3    H141708   2.942   6.626   0.290 -0.5729 -0.9832 -0.6148
 6739TIP3    H241709   3.039   6.574   0.394 -0.2247  1.6896  0.4706
 6740TIP3   OH241710   0.310   1.242   3.918 -0.1806 -0.1117 -0.5197
 6740TIP3    H141711   0.358   1.299   3.978  0.4641 -0.2212 -0.9185
 6740TIP3    H241712   0.239   1.296   3.885 -1.4208 -0.4642  1.4037
 6741TIP3   OH241713   4.022   1.729   4.011  0.1423  0.2786 -0.0722
 6741TIP3    H141714   4.112   1.757   4.021 -0.0882  0.9709  0.0970
 6741TIP3    H241715   4.000   1.686   4.094  0.4227 -0.2017 -0.2459
 6742TIP3   OH241716   1.880   5.155   4.221 -0.1285 -0.5066  0.2785
 6742TIP3    H141717   1.822   5.214   4.173 -1.0015 -1.0516  0.6247
 6742TIP3    H241718   1.968   5.178   4.192 -0.4054  1.2368  0.7079
 6743TIP3   OH241719   1.032   1.074   2.654  0.1229 -0.1764  0.4610
 6743TIP3    H141720   1.004   1.063   2.745 -0.1900  0.8937  0.5033
 6743TIP3    H241721   0.950   1.083   2.605  0.3287  2.1221  0.4705
 6744TIP3   OH241722   0.035   3.779   2.170 -0.0356 -0.0683 -0.2021
 6744TIP3    H141723   0.065   3.832   2.244  0.3049 -0.4564 -0.0581
 6744TIP3    H241724  -0.032   3.723   2.207 -0.4465  0.3063 -0.3705
 6745TIP3   OH241725   5.047   6.086   2.875  0.0212 -0.4422 -0.1363
 6745TIP3    H141726   5.083   6.054   2.792  0.1307  0.5156 -0.4664
 6745TIP3    H241727   5.113   6.064   2.940  0.0495 -0.9673 -0.3388
 6746TIP3   OH241728   4.177   1.003  10.327 -0.6247 -0.7454 -0.1948
 6746TIP3    H141729   4.092   1.018  10.368 -1.0423 -0.3985 -1.1578
 6746TIP3    H241730   4.232   1.075  10.358 -1.4708  0.5912 -1.6540
 6747TIP3   OH241731   3.840   1.541   1.298 -0.0332  0.8349  0.6689
 6747TIP3    H141732   3.872   1.623   1.260  1.1269  0.2725  0.3933
 6747TIP3    H241733   3.747   1.538   1.274  0.4437  0.9365 -1.3806
 6748TIP3   OH241734   0.001   4.476  11.709 -0.5897  0.0596 -0.0925
 6748TIP3    H141735   0.055   4.462  11.631 -0.8891 -1.5439 -0.0531
 6748TIP3    H241736   0.052   4.537  11.763 -0.3079  1.0729 -1.4505
 6749TIP3   OH241737   1.896   5.057   1.480 -0.3287 -0.5981  0.0173
 6749TIP3    H141738   1.814   5.018   1.509  0.9329 -2.4899  1.2559
 6749TIP3    H241739   1.961   5.028   1.544  1.5849 -0.3378 -1.6963
 6750TIP3   OH241740   4.913   4.880   3.609  0.5406  0.5207 -0.1112
 6750TIP3    H141741   4.862   4.938   3.667  0.4924  0.7151 -0.3465
 6750TIP3    H241742   4.991   4.931   3.587  1.2877 -0.1089  0.9647
 6751TIP3   OH241743   3.648   6.106  15.391  0.2504 -0.6678 -0.4014
 6751TIP3    H141744   3.629   6.118  15.298  1.2971 -2.0611 -0.8319
 6751TIP3    H241745   3.727   6.159  15.407  0.9050 -1.5581 -0.6592
 6752TIP3   OH241746   6.708   4.806  12.863 -0.0974  0.0243  0.4858
 6752TIP3    H141747   6.746   4.887  12.831 -1.1623  0.6274  0.6863
 6752TIP3    H241748   6.631   4.792  12.808 -1.6214  0.7577  2.3281
 6753TIP3   OH241749   2.597   2.413  11.320 -0.0243  0.1248  0.1427
 6753TIP3    H141750   2.563   2.450  11.238  2.0217 -0.8006 -1.2028
 6753TIP3    H241751   2.555   2.327  11.325  0.2180 -0.0177 -0.2095
 6754TIP3   OH241752   4.949   1.532   5.737  0.8864  0.4208  0.9128
 6754TIP3    H141753   4.905   1.491   5.812  0.9567  1.9116  1.8256
 6754TIP3    H241754   4.933   1.473   5.664  1.4836 -1.4992  2.2567
 6755TIP3   OH241755   5.415   3.492  11.102  0.0781 -0.6140  0.9115
 6755TIP3    H141756   5.363   3.572  11.099 -0.6986 -1.0160 -3.5855
 6755TIP3    H241757   5.351   3.422  11.097  0.8579 -1.2943  0.0902
 6756TIP3   OH241758   1.653   4.523   3.667 -0.0498 -0.1297  0.4225
 6756TIP3    H141759   1.686   4.596   3.720  0.7737 -1.0103  1.1626
 6756TIP3    H241760   1.655   4.448   3.726 -0.4887 -0.8407 -0.4462
 6757TIP3   OH241761   3.601   5.701  17.170 -0.2378  0.6999 -0.1928
 6757TIP3    H141762   3.596   5.611  17.137 -0.7006  0.5163  0.3743
 6757TIP3    H241763   3.515   5.719  17.207 -0.2112  1.4479 -0.4635
 6758TIP3   OH241764   4.164   3.167  11.830 -0.5335  0.0693  0.6241
 6758TIP3    H141765   4.125   3.115  11.900 -0.2214 -1.4136 -0.2700
 6758TIP3    H241766   4.258   3.148  11.835 -0.6949 -1.4050 -1.2400
 6759TIP3   OH241767   1.089   0.980   4.532  0.4086 -0.2969  0.2620
 6759TIP3    H141768   1.170   0.967   4.482  0.0606 -0.5306 -0.2415
 6759TIP3    H241769   1.041   0.898   4.524  0.3211 -0.3205  0.9415
 6760TIP3   OH241770   1.156   1.313  14.201 -0.1991 -0.3371 -0.0536
 6760TIP3    H141771   1.195   1.398  14.222 -1.9919  0.7544 -0.9371
 6760TIP3    H241772   1.116   1.325  14.115 -0.2319 -2.1924 -0.3429
 6761TIP3   OH241773   3.741   6.457   4.680  0.8301 -0.2614 -1.1493
 6761TIP3    H141774   3.720   6.395   4.610 -1.0113 -0.4790 -0.4506
 6761TIP3    H241775   3.834   6.443   4.697  0.6094 -2.4303 -1.4196
 6762TIP3   OH241776   0.202   6.718   6.189 -0.0177  0.3337  0.5185
 6762TIP3    H141777   0.126   6.693   6.241  0.1700 -0.7772  0.2865
 6762TIP3    H241778   0.271   6.658   6.216  0.4025  0.4736 -0.2025
 6763TIP3   OH241779   2.346   4.262  12.423 -0.1646  0.3778  0.0339
 6763TIP3    H141780   2.375   4.203  12.493  0.3255 -1.1497 -1.3850
 6763TIP3    H241781   2.426   4.287  12.377 -0.6852 -2.0215 -2.4843
 6764TIP3   OH241782   6.174   1.281  14.186  0.6344  0.3469  0.0105
 6764TIP3    H141783   6.135   1.324  14.262  1.0672  0.9300 -0.0870
 6764TIP3    H241784   6.117   1.206  14.169 -0.0003  0.7420  0.3359
 6765TIP3   OH241785   1.048   3.724  15.757  0.1549  0.0008  0.1435
 6765TIP3    H141786   1.025   3.807  15.800  0.4649 -0.9585  2.2910
 6765TIP3    H241787   1.121   3.746  15.699 -0.5679  1.4395 -0.2712
 6766TIP3   OH241788   5.229   0.234   2.110  0.6509 -0.2117  0.0321
 6766TIP3    H141789   5.280   0.270   2.182  1.9678 -3.1926  0.7619
 6766TIP3    H241790   5.158   0.186   2.152  0.5692 -0.7566 -0.6918
 6767TIP3   OH241791   0.790   2.771   3.532  0.1276  0.0786  0.5216
 6767TIP3    H141792   0.837   2.714   3.471 -1.1658 -1.4902  0.9202
 6767TIP3    H241793   0.847   2.777   3.609  0.1255 -0.9914  0.6131
 6768TIP3   OH241794   3.729   4.053   5.953 -0.2873 -0.1311  0.1100
 6768TIP3    H141795   3.810   4.102   5.971 -1.0921  0.9701  0.8681
 6768TIP3    H241796   3.697   4.028   6.040  0.0607 -1.9840 -0.2524
 6769TIP3   OH241797   1.664   0.215  12.724 -0.3552  0.3772  0.2078
 6769TIP3    H141798   1.616   0.286  12.681 -0.7364 -0.2807 -0.4933
 6769TIP3    H241799   1.753   0.221  12.689 -0.8901 -0.7582 -1.5300
 6770TIP3   OH241800   4.503   1.021  10.874 -0.1095  0.6855 -0.1381
 6770TIP3    H141801   4.573   1.017  10.809  1.5082  1.7628  1.4608
 6770TIP3    H241802   4.422   1.022  10.822  1.0046 -0.8832 -2.0216
 6771TIP3   OH241803   0.969   4.729   6.455 -0.1164  0.0348  0.0932
 6771TIP3    H141804   0.938   4.638   6.455 -0.7592  0.2040 -2.1266
 6771TIP3    H241805   1.064   4.722   6.446  0.0652 -0.4027  1.9209
 6772TIP3   OH241806   2.087   3.208   5.724  0.3279 -0.0861 -0.1219
 6772TIP3    H141807   2.163   3.266   5.720  0.2014  0.0894 -0.0109
 6772TIP3    H241808   2.029   3.250   5.788 -1.1284  1.3090 -2.2429
 6773TIP3   OH241809   6.194   0.417  15.791 -0.0075  0.4127  0.6021
 6773TIP3    H141810   6.223   0.507  15.775 -0.0932  0.5745  1.3291
 6773TIP3    H241811   6.275   0.370  15.812 -0.1040  0.6154  1.5007
 6774TIP3   OH241812   1.690   6.509  17.002 -0.0900 -0.7853  0.5079
 6774TIP3    H141813   1.755   6.558  16.952 -0.2488  0.4861  1.4941
 6774TIP3    H241814   1.610   6.513  16.948  0.0945 -0.5762  0.2497
 6775TIP3   OH241815   6.078   4.296   1.221 -0.6297 -0.0499 -0.3623
 6775TIP3    H141816   6.132   4.338   1.288  0.3930 -0.3213 -1.0006
 6775TIP3    H241817   6.120   4.212   1.205 -0.7289  0.1074 -1.5125
 6776TIP3   OH241818   2.114   6.440  14.840 -0.1958  0.0998 -0.2997
 6776TIP3    H141819   2.109   6.493  14.760  1.3448 -0.8372 -1.0737
 6776TIP3    H241820   2.149   6.501  14.906  0.8496  0.2839 -0.9889
 6777TIP3   OH241821   5.111   3.408  13.470  0.2054 -0.3072  0.4816
 6777TIP3    H141822   5.159   3.489  13.489  0.5304 -0.1670 -0.8364
 6777TIP3    H241823   5.029   3.438  13.431  0.1263 -0.6038  0.4246
 6778TIP3   OH241824   4.649   6.784   1.116  0.5135 -0.0027 -0.1652
 6778TIP3    H141825   4.663   6.867   1.072  0.6468  0.5540  0.8880
 6778TIP3    H241826   4.698   6.720   1.064 -1.5583  0.0718 -2.4252
 6779TIP3   OH241827   5.474   6.577   0.125  0.2329 -0.5301  0.7020
 6779TIP3    H141828   5.555   6.628   0.121  0.0838 -0.3263  0.2595
 6779TIP3    H241829   5.473   6.541   0.214  0.8604 -0.6217  0.6779
 6780TIP3   OH241830   4.507   0.628  17.267  0.1646  1.1596  0.3449
 6780TIP3    H141831   4.489   0.539  17.297  1.9042  0.4122 -0.6602
 6780TIP3    H241832   4.449   0.641  17.193  0.5710  0.4597 -0.1166
 6781TIP3   OH241833   4.152   2.457   5.763  0.4735  0.0235 -0.3184
 6781TIP3    H141834   4.075   2.485   5.715  1.6800 -0.6093 -2.8058
 6781TIP3    H241835   4.127   2.374   5.803 -0.3232  0.1513 -0.5452
 6782TIP3   OH241836   5.047   2.382  15.020 -0.0524  0.2927  0.1216
 6782TIP3    H141837   5.049   2.394  14.925  0.3638 -0.7702 -0.0197
 6782TIP3    H241838   5.069   2.468  15.055  1.4173  0.3110 -0.7687
 6783TIP3   OH241839   0.771   6.204   1.149 -0.3372  0.1400  0.4037
 6783TIP3    H141840   0.691   6.254   1.133 -0.7947 -0.4836  0.7264
 6783TIP3    H241841   0.754   6.156   1.230 -0.2195 -1.1907 -0.3366
 6784TIP3   OH241842   6.629   3.297  17.034  0.1630  0.0898  0.0022
 6784TIP3    H141843   6.643   3.243  16.956  1.2502 -1.9205  1.4944
 6784TIP3    H241844   6.543   3.271  17.066  0.2180  0.0598  0.1229
 6785TIP3   OH241845   2.679   1.459  14.997 -0.4776 -0.3934 -0.3078
 6785TIP3    H141846   2.728   1.513  15.059 -1.7496 -2.3060  2.6217
 6785TIP3    H241847   2.613   1.518  14.960  0.0993  0.7516  0.4303
 6786TIP3   OH241848   6.732   3.046  16.606 -0.0308 -0.0706 -0.1696
 6786TIP3    H141849   6.653   3.039  16.553  0.3687 -0.3117 -0.7396
 6786TIP3    H241850   6.781   2.965  16.588  0.8269  0.5309 -0.6158
 6787TIP3   OH241851   2.936   0.696   1.126 -0.3161 -0.2819 -0.8357
 6787TIP3    H141852   3.005   0.689   1.192  0.7082  3.6509 -1.2627
 6787TIP3    H241853   2.976   0.663   1.046 -0.1063 -1.0691 -0.4211
 6788TIP3   OH241854   1.429   2.669  16.140 -0.2391  0.2531  0.1003
 6788TIP3    H141855   1.461   2.719  16.215  0.0029 -0.1235  0.2509
 6788TIP3    H241856   1.335   2.687  16.138 -0.3705 -0.2831  0.9180
 6789TIP3   OH241857   3.517   4.315   1.368  0.5772  0.2216  0.2288
 6789TIP3    H141858   3.495   4.297   1.460  0.6711 -1.6518 -0.0781
 6789TIP3    H241859   3.523   4.229   1.328  1.2852  0.9881 -1.3836
 6790TIP3   OH241860   5.213   6.240  12.135 -0.1279 -0.1424  0.2522
 6790TIP3    H141861   5.297   6.265  12.097 -0.1294 -0.1739  0.2286
 6790TIP3    H241862   5.168   6.324  12.147 -0.4494 -0.1872 -0.5699
 6791TIP3   OH241863   0.774   2.480  14.220  0.2105 -0.2925 -0.3241
 6791TIP3    H141864   0.844   2.421  14.248 -0.0123 -0.6612 -0.5428
 6791TIP3    H241865   0.694   2.440  14.254  0.0900  0.0551 -0.1940
 6792TIP3   OH241866   2.163   0.179   3.840  0.5155  0.5648  0.2598
 6792TIP3    H141867   2.236   0.138   3.794  0.4411  2.4098 -1.6441
 6792TIP3    H241868   2.129   0.110   3.897  2.7526 -0.8025  0.0505
 6793TIP3   OH241869   2.886   2.827   0.392 -0.9441 -0.3461 -0.1753
 6793TIP3    H141870   2.805   2.833   0.441  0.3440 -1.2320  2.2138
 6793TIP3    H241871   2.899   2.915   0.355 -2.0777  0.3103  0.9259
 6794TIP3   OH241872   6.663   1.521  12.073  0.2151  0.6844 -0.1783
 6794TIP3    H141873   6.614   1.446  12.107 -0.9056  0.5429 -1.9448
 6794TIP3    H241874   6.622   1.597  12.114  0.9762  0.3889  1.1775
 6795TIP3   OH241875   2.675   4.576  16.700  0.6254 -0.2047  0.0237
 6795TIP3    H141876   2.653   4.511  16.634  1.0628  1.0862 -1.4383
 6795TIP3    H241877   2.613   4.648  16.685  0.8448  0.1882  0.9092
 6796TIP3   OH241878   1.667   0.810  14.429 -0.2015  0.2749  0.3507
 6796TIP3    H141879   1.685   0.878  14.493 -0.6048 -0.5829  1.3957
 6796TIP3    H241880   1.575   0.787  14.441 -0.3365  0.2167 -0.6580
 6797TIP3   OH241881   1.673   6.809  12.876 -0.0355  0.2173 -1.2867
 6797TIP3    H141882   1.673   6.886  12.820  1.1779  0.3764 -1.0875
 6797TIP3    H241883   1.764   6.798  12.903 -0.5957  0.2326  0.7811
 6798TIP3   OH241884   1.878   5.622  11.264  0.1368 -0.1095  0.4187
 6798TIP3    H141885   1.932   5.546  11.283 -0.8822 -0.8967  0.2428
 6798TIP3    H241886   1.790   5.587  11.252  0.1015  0.7076 -2.5011
 6799TIP3   OH241887   0.860   5.716   5.737  0.1375 -0.0243 -0.3213
 6799TIP3    H141888   0.875   5.731   5.831 -0.3947 -0.5673 -0.1379
 6799TIP3    H241889   0.942   5.741   5.695 -0.2258  2.0293  0.0735
 6800TIP3   OH241890   2.735   5.576  11.895 -0.1159 -0.7407 -0.6003
 6800TIP3    H141891   2.730   5.492  11.940 -0.1246 -0.3685  0.0956
 6800TIP3    H241892   2.689   5.560  11.812  0.1063 -1.4896 -0.5936
 6801TIP3   OH241893   3.187   4.903  11.694 -0.6052  0.2003  0.2296
 6801TIP3    H141894   3.149   4.822  11.728 -0.6089  0.3535  0.5972
 6801TIP3    H241895   3.165   4.903  11.601 -0.6373 -0.2015  0.2377
 6802TIP3   OH241896   3.692   1.139   0.712 -0.6215 -0.1822  0.7338
 6802TIP3    H141897   3.651   1.134   0.626  0.5886  0.2580  0.1005
 6802TIP3    H241898   3.624   1.112   0.773 -1.4419 -0.6959 -0.3781
 6803TIP3   OH241899   0.692   2.943  15.708 -0.0286 -0.1671  0.1218
 6803TIP3    H141900   0.729   2.893  15.780  2.0908 -0.5328 -1.1380
 6803TIP3    H241901   0.686   3.033  15.741  1.5410 -0.1956  0.5626
 6804TIP3   OH241902   0.390   5.387   2.355  0.6979 -0.0758  0.2042
 6804TIP3    H141903   0.313   5.444   2.361 -1.7507 -3.0161 -0.3159
 6804TIP3    H241904   0.372   5.332   2.278  4.1349  0.1132 -0.8717
 6805TIP3   OH241905   5.180   6.219  13.034  0.2267  0.1763  0.8169
 6805TIP3    H141906   5.255   6.206  13.093  1.4351  0.2345 -0.6325
 6805TIP3    H241907   5.150   6.130  13.014  0.3701  0.1241  0.8300
 6806TIP3   OH241908   3.929   3.422   5.743  0.1487  0.3461  0.5206
 6806TIP3    H141909   3.935   3.466   5.828  0.3341 -0.3040  0.8521
 6806TIP3    H241910   3.863   3.472   5.695  1.4969  1.9971  0.2579
 6807TIP3   OH241911   1.243   5.466  16.896 -0.0711 -0.4078 -0.3882
 6807TIP3    H141912   1.243   5.419  16.980 -0.4573  0.5594  0.1662
 6807TIP3    H241913   1.324   5.517  16.898  0.2709 -0.9150 -0.9244
 6808TIP3   OH241914   6.418   4.777  13.159 -0.6383 -0.3515 -0.4034
 6808TIP3    H141915   6.453   4.854  13.204  0.2636  1.4496 -3.7910
 6808TIP3    H241916   6.495   4.731  13.126 -1.2292 -0.7649 -1.2646
 6809TIP3   OH241917   0.817   2.249   0.132 -0.0414 -0.3253  0.0224
 6809TIP3    H141918   0.817   2.186   0.061  2.0641  1.0708 -1.3210
 6809TIP3    H241919   0.805   2.334   0.089  1.0995  0.5365  1.3114
 6810TIP3   OH241920   5.152   2.062  16.093 -0.2794 -0.3326  0.2681
 6810TIP3    H141921   5.093   2.135  16.074  0.8473  0.2950 -0.9395
 6810TIP3    H241922   5.158   2.060  16.188  1.3030  2.5488  0.3464
 6811TIP3   OH241923   4.222   2.841  16.202  0.1886  0.1701 -0.3070
 6811TIP3    H141924   4.137   2.808  16.232  1.1970 -1.3940  0.9838
 6811TIP3    H241925   4.259   2.770  16.150  0.6588  0.9047 -1.0015
 6812TIP3   OH241926   4.667   0.251   1.064 -0.6457 -0.4084 -0.1263
 6812TIP3    H141927   4.639   0.340   1.087 -0.4301 -0.2074 -0.6214
 6812TIP3    H241928   4.763   0.256   1.062 -0.6148 -0.7776  0.3275
 6813TIP3   OH241929   2.204   0.384   4.038  0.4730  0.3086  0.5423
 6813TIP3    H141930   2.205   0.290   4.060 -1.4989  0.3359  0.9327
 6813TIP3    H241931   2.295   0.404   4.014  0.6576 -2.0442 -1.0490
 6814TIP3   OH241932   4.456   2.857   0.461  0.0989  0.1602 -0.2164
 6814TIP3    H141933   4.381   2.912   0.437  1.5488  2.9209  1.1652
 6814TIP3    H241934   4.528   2.889   0.406  1.0757 -0.1527  0.8500
 6815TIP3   OH241935   0.490   0.882   0.964  0.0883 -0.4184  0.6781
 6815TIP3    H141936   0.424   0.916   0.904  0.0692 -0.3858  0.7174
 6815TIP3    H241937   0.472   0.925   1.047  1.4646  1.2084  0.1824
 6816TIP3   OH241938   6.663   5.227   2.773  0.3407 -0.3194 -0.1685
 6816TIP3    H141939   6.593   5.282   2.738 -0.4002 -1.7537 -1.0429
 6816TIP3    H241940   6.696   5.178   2.697  0.8045 -1.2488  0.6007
 6817TIP3   OH241941   2.760   5.255   4.340 -0.3280  0.3756  0.4168
 6817TIP3    H141942   2.678   5.215   4.367 -1.1743  1.0727 -1.0191
 6817TIP3    H241943   2.826   5.214   4.396 -1.5311 -0.8283  1.0108
 6818TIP3   OH241944   6.159   4.941   4.870  0.1236 -0.3390  0.2084
 6818TIP3    H141945   6.135   4.871   4.809  1.1177 -0.5551  0.0455
 6818TIP3    H241946   6.224   4.993   4.823  1.9450 -1.2997  1.5444
 6819TIP3   OH241947   4.655   5.497  12.919  0.0564 -0.4295  0.2874
 6819TIP3    H141948   4.630   5.575  12.870 -0.2718  0.8884  2.3947
 6819TIP3    H241949   4.629   5.424  12.864  0.4826  0.9252 -1.8163
 6820TIP3   OH241950   1.339   6.543   5.423  0.1339 -0.7248  0.2227
 6820TIP3    H141951   1.373   6.629   5.401 -0.5314 -0.0428  1.7144
 6820TIP3    H241952   1.416   6.491   5.446  0.5310 -0.5179 -0.6311
 6821TIP3   OH241953   0.053   1.655  16.043  0.4582  0.1669  0.2086
 6821TIP3    H141954   0.042   1.750  16.044 -0.5707  0.0970 -0.8300
 6821TIP3    H241955  -0.005   1.624  16.113 -0.6678  0.2237 -0.6621
 6822TIP3   OH241956   0.547   6.023  14.981 -0.7815  0.3446 -0.5723
 6822TIP3    H141957   0.530   5.930  14.994 -0.6979  0.5936  1.5870
 6822TIP3    H241958   0.525   6.064  15.065 -0.2925  2.2023 -1.3023
 6823TIP3   OH241959   1.948   5.789   2.834 -0.3645  0.2409  0.2648
 6823TIP3    H141960   2.006   5.822   2.765  0.5857 -1.4988  0.1774
 6823TIP3    H241961   2.006   5.743   2.894 -1.7125 -2.1585 -0.1706
 6824TIP3   OH241962   3.741   5.842  14.624 -0.7637 -0.0230  0.0094
 6824TIP3    H141963   3.688   5.813  14.551 -1.6489  0.0504  0.6063
 6824TIP3    H241964   3.701   5.925  14.652 -0.3245  0.0498  0.4467
 6825TIP3   OH241965   5.720   2.283   5.909 -0.5944  0.0947  0.2543
 6825TIP3    H141966   5.679   2.354   5.859 -1.5238  0.0597  0.9289
 6825TIP3    H241967   5.712   2.312   6.000  1.9337  0.6201  0.3724
 6826TIP3   OH241968   3.858   1.954   2.282 -0.0761 -0.2639  0.4687
 6826TIP3    H141969   3.767   1.950   2.312  0.5353 -1.3462  2.3831
 6826TIP3    H241970   3.860   1.899   2.204 -1.2705  0.6949 -0.2693
 6827TIP3   OH241971   2.296   3.781  13.161 -0.3064 -0.2485  0.3002
 6827TIP3    H141972   2.208   3.807  13.187 -0.8526 -2.5379  0.9546
 6827TIP3    H241973   2.347   3.784  13.242  0.5022  1.8255 -0.2066
 6828TIP3   OH241974   3.017   5.702   4.057 -0.1357 -0.1341  0.9704
 6828TIP3    H141975   2.993   5.734   4.144  0.5931 -0.4443  1.3040
 6828TIP3    H241976   2.950   5.637   4.036 -1.4531  1.3679  0.4084
 6829TIP3   OH241977   1.666   3.974  13.918 -0.1378  0.5145 -0.4984
 6829TIP3    H141978   1.613   3.925  13.981  0.6473 -0.8199 -0.8330
 6829TIP3    H241979   1.603   4.006  13.853 -0.6606 -0.1595 -0.3279
 6830TIP3   OH241980   2.694   0.822  14.007  0.0291  0.0771  0.0404
 6830TIP3    H141981   2.683   0.770  13.927 -1.5712 -0.0248  0.2817
 6830TIP3    H241982   2.741   0.764  14.067  0.5145 -0.1436 -0.5396
 6831TIP3   OH241983   3.471   2.196  13.764 -0.0623 -0.2629 -0.2281
 6831TIP3    H141984   3.468   2.118  13.708  0.7061  0.2111 -0.9407
 6831TIP3    H241985   3.552   2.240  13.739 -0.4175  0.6885  0.2843
 6832TIP3   OH241986   0.199   4.560   1.827 -0.1532 -0.3039  0.3486
 6832TIP3    H141987   0.199   4.619   1.903 -0.5355  0.2152 -0.0506
 6832TIP3    H241988   0.168   4.477   1.862  0.0325 -0.1687  0.8413
 6833TIP3   OH241989   5.415   4.921  17.144  0.0211  0.1754 -0.2261
 6833TIP3    H141990   5.376   4.975  17.074 -0.7247 -0.9381 -0.7032
 6833TIP3    H241991   5.490   4.972  17.175 -0.7913  1.5972 -0.4859
 6834TIP3   OH241992   4.701   4.189   5.631  0.0014  0.2187 -0.7760
 6834TIP3    H141993   4.772   4.191   5.567  0.4019  0.6611 -0.3347
 6834TIP3    H241994   4.644   4.262   5.607  1.1585  1.5870  0.4615
 6835TIP3   OH241995   6.414   3.686  13.046  0.3695  0.3753  0.1193
 6835TIP3    H141996   6.353   3.759  13.034  0.8473  0.9092  0.8495
 6835TIP3    H241997   6.463   3.709  13.125  0.4050 -0.8266  0.4627
 6836TIP3   OH241998   6.172   1.699   0.100 -0.0451  0.1625  0.0670
 6836TIP3    H141999   6.205   1.619   0.058  2.9515  0.8558  0.8643
 6836TIP3    H242000   6.114   1.668   0.169  0.2994 -1.2665 -0.2603
 6837TIP3   OH242001   5.651   2.443  11.632  0.9007 -0.2045  0.0836
 6837TIP3    H142002   5.673   2.375  11.696  0.5429  0.0534  0.4841
 6837TIP3    H242003   5.585   2.496  11.675  2.5300  1.5544  0.5456
 6838TIP3   OH242004   4.250   6.063  12.580  0.0995 -0.1510 -0.2274
 6838TIP3    H142005   4.312   6.095  12.515 -0.3062 -0.6497 -0.8719
 6838TIP3    H242006   4.290   5.983  12.614  0.6907  0.5348  0.7332
 6839TIP3   OH242007   2.178   4.251   6.293 -0.4067 -0.4061 -0.8125
 6839TIP3    H142008   2.191   4.158   6.313 -2.3662 -0.7431 -0.8817
 6839TIP3    H242009   2.104   4.252   6.233  0.0475  1.1740 -1.3893
 6840TIP3   OH242010   1.983   4.761   3.250  0.0848 -0.1183  0.5594
 6840TIP3    H142011   1.922   4.814   3.301 -0.4725 -0.5500  0.3506
 6840TIP3    H242012   1.978   4.674   3.290  1.4987  0.1382  1.3332
 6841TIP3   OH242013   4.165   3.699  15.414 -0.2197 -0.5755 -0.7034
 6841TIP3    H142014   4.155   3.605  15.402  0.1339 -0.8350  0.8188
 6841TIP3    H242015   4.119   3.718  15.496  0.3281  0.4433 -0.6110
 6842TIP3   OH242016   6.652   5.140   1.158 -0.1467 -0.2161  0.4653
 6842TIP3    H142017   6.727   5.173   1.207  1.6564 -2.8030 -0.2875
 6842TIP3    H242018   6.637   5.052   1.193 -1.6611 -0.4590 -0.6600
 6843TIP3   OH242019   0.366   1.844   0.698  0.9799  0.7836  0.1193
 6843TIP3    H142020   0.412   1.841   0.615 -0.7645  0.2004 -0.8874
 6843TIP3    H242021   0.435   1.842   0.765  2.3586 -1.0744 -1.2685
 6844TIP3   OH242022   3.418   5.852   2.870  0.4746 -0.1935  0.5665
 6844TIP3    H142023   3.442   5.881   2.782  0.9015  1.3670  1.1653
 6844TIP3    H242024   3.338   5.901   2.890  0.9552  0.2345  1.4430
 6845TIP3   OH242025   1.366   1.155  13.346 -1.1850  0.0523 -0.0043
 6845TIP3    H142026   1.398   1.186  13.431  0.2960  0.3730 -0.6432
 6845TIP3    H242027   1.323   1.230  13.307  0.3062  0.6674 -0.5455
 6846TIP3   OH242028   0.734   4.844  14.435  0.6276  0.0089  0.2941
 6846TIP3    H142029   0.655   4.894  14.454 -0.0151 -1.1257  0.7335
 6846TIP3    H242030   0.805   4.898  14.470 -0.0265  0.6674  0.6440
 6847TIP3   OH242031   3.718   2.476   0.381  0.2076  0.0841  0.5956
 6847TIP3    H142032   3.739   2.383   0.395  0.3856 -0.2733 -1.7476
 6847TIP3    H242033   3.686   2.480   0.291  3.0891  2.7323 -0.4836
 6848TIP3   OH242034   3.587   1.408  11.416  0.4681 -0.3263  0.1912
 6848TIP3    H142035   3.583   1.399  11.321  0.7023 -0.5421  0.2019
 6848TIP3    H242036   3.657   1.472  11.431 -0.1099  0.3218  0.1862
 6849TIP3   OH242037   6.313   3.709   1.527 -0.3379 -0.6485 -0.0651
 6849TIP3    H142038   6.361   3.706   1.610  0.4651 -1.4656 -0.5397
 6849TIP3    H242039   6.331   3.796   1.492 -0.4195 -0.4154  0.4700
 6850TIP3   OH242040   1.541   0.686  14.761 -0.2351 -0.2385 -0.2368
 6850TIP3    H142041   1.468   0.637  14.723  0.4696 -1.2959 -0.2774
 6850TIP3    H242042   1.619   0.648  14.721  0.3208  1.3679 -0.7451
 6851TIP3   OH242043   2.603   0.751  14.372 -0.2927 -0.2422  0.5207
 6851TIP3    H142044   2.651   0.763  14.454 -0.9282  1.1909  0.7108
 6851TIP3    H242045   2.670   0.739  14.306  0.2762  0.0190  1.0412
 6852TIP3   OH242046   6.791   0.390  11.737  0.3746 -0.5290 -0.3266
 6852TIP3    H142047   6.886   0.395  11.750  0.2769  0.0454  0.2517
 6852TIP3    H242048   6.757   0.363  11.823 -0.1076  0.8446 -0.0633
 6853TIP3   OH242049   5.369   4.862   0.623 -0.7597  0.0388  0.3567
 6853TIP3    H142050   5.357   4.843   0.530 -2.8046  0.7402  0.4327
 6853TIP3    H242051   5.394   4.954   0.625  0.6519 -0.3251  0.4574
 6854TIP3   OH242052   3.453   4.000   5.751  0.3086 -0.3041 -0.0474
 6854TIP3    H142053   3.485   3.944   5.822  0.4596 -1.6503 -1.1239
 6854TIP3    H242054   3.440   3.940   5.678 -0.3462  0.9610 -1.0067
 6855TIP3   OH242055   0.762   6.528  15.296  0.1112 -0.3498 -0.0836
 6855TIP3    H142056   0.851   6.530  15.260  0.2049 -0.0641  0.1581
 6855TIP3    H242057   0.754   6.611  15.343 -0.1961 -0.4881  0.1051
 6856TIP3   OH242058   1.315   3.048   0.256  0.3366  0.6226 -0.3749
 6856TIP3    H142059   1.337   2.978   0.318 -0.7370  1.9412  1.6216
 6856TIP3    H242060   1.380   3.116   0.274  0.9873  0.4473 -1.8722
 6857TIP3   OH242061   0.755   3.024   0.547  0.4847 -0.0784 -0.2174
 6857TIP3    H142062   0.738   2.991   0.636 -2.5451  0.3885 -0.5236
 6857TIP3    H242063   0.730   2.951   0.490  0.8536  0.1879 -0.7157
 6858TIP3   OH242064   0.820   0.777   0.414  0.1554 -0.0811 -0.0454
 6858TIP3    H142065   0.808   0.703   0.354 -0.7814 -1.1706  1.4067
 6858TIP3    H242066   0.899   0.820   0.383 -0.5190 -0.3364 -2.2989
 6859TIP3   OH242067   0.115   2.746   1.760  0.2151 -0.3839  0.4222
 6859TIP3    H142068   0.102   2.833   1.798  0.9431  0.1869 -0.5806
 6859TIP3    H242069   0.027   2.716   1.738 -0.0394  0.1207  0.7295
 6860TIP3   OH242070   3.956   5.457   3.214  0.3199  0.1122  0.2531
 6860TIP3    H142071   3.901   5.387   3.251 -0.5389  0.4773 -0.3000
 6860TIP3    H242072   3.992   5.502   3.291 -0.4734  0.1033  0.6462
 6861TIP3   OH242073   4.824   6.146   5.494  0.0338 -0.3199  0.4727
 6861TIP3    H142074   4.754   6.101   5.541 -0.1753 -0.7896 -0.2806
 6861TIP3    H242075   4.895   6.153   5.558 -0.9538  0.8492  1.5005
 6862TIP3   OH242076   0.088   3.046   5.959 -0.3662 -0.5079 -0.3715
 6862TIP3    H142077   0.023   3.115   5.947 -1.1108 -1.1301  0.0168
 6862TIP3    H242078   0.133   3.040   5.875 -1.9864 -1.2592 -1.2259
 6863TIP3   OH242079   6.473   1.721  12.227  0.1483  0.0712 -0.2366
 6863TIP3    H142080   6.415   1.735  12.153 -0.6281  0.4031  0.4124
 6863TIP3    H242081   6.495   1.809  12.257  1.5188 -0.0389 -0.8639
 6864TIP3   OH242082   1.586   3.565   6.575 -0.6294 -0.3048  0.2791
 6864TIP3    H142083   1.631   3.484   6.552 -1.6459 -0.9659  0.5211
 6864TIP3    H242084   1.598   3.622   6.499  1.4276 -0.0763  0.7314
 6865TIP3   OH242085   2.242   6.462   0.973 -0.0888  0.0926 -0.1832
 6865TIP3    H142086   2.308   6.450   0.904  1.1230 -1.4005  1.1339
 6865TIP3    H242087   2.207   6.550   0.958  0.1138 -0.1765 -2.6682
 6866TIP3   OH242088   3.033   6.176  14.444 -0.2277 -0.3357  0.3931
 6866TIP3    H142089   3.045   6.086  14.475  0.1055  0.5130  2.9837
 6866TIP3    H242090   3.117   6.218  14.460 -0.7678  0.7627  0.4419
 6867TIP3   OH242091   2.331   2.411   3.998 -0.2079  0.3829  0.0532
 6867TIP3    H142092   2.249   2.445   3.963 -0.0386  1.7074  0.8556
 6867TIP3    H242093   2.385   2.393   3.921 -0.8072  0.7036 -0.4467
 6868TIP3   OH242094   2.876   2.256  14.175  0.0677  0.2284 -0.2317
 6868TIP3    H142095   2.967   2.262  14.205 -0.0109 -0.5448  0.1962
 6868TIP3    H242096   2.878   2.192  14.104  0.1630  1.6676 -1.5529
 6869TIP3   OH242097   2.331   0.347  13.280  0.3657  0.5771  0.2181
 6869TIP3    H142098   2.398   0.377  13.342 -1.1786  1.0861  1.7110
 6869TIP3    H242099   2.356   0.257  13.260  1.6780  0.8585  0.4454
 6870TIP3   OH242100   4.553   3.434  12.430 -0.3642 -0.2319  0.0457
 6870TIP3    H142101   4.568   3.465  12.341  0.7164 -1.7541 -0.3445
 6870TIP3    H242102   4.458   3.439  12.442 -0.3954  1.2850 -0.6683
 6871TIP3   OH242103   6.192   6.643   1.139  0.4065  0.1174 -0.9760
 6871TIP3    H142104   6.109   6.685   1.157  0.6155 -0.5936  2.0744
 6871TIP3    H242105   6.189   6.625   1.044 -2.1846  1.5070 -1.2503
 6872TIP3   OH242106   1.348   1.040  14.736 -0.5247 -0.0096 -0.0069
 6872TIP3    H142107   1.303   1.117  14.700  0.0301 -0.2475 -1.2276
 6872TIP3    H242108   1.332   0.970  14.673  2.9836  0.3171 -1.4850
 6873TIP3   OH242109   1.483   2.603  12.385  0.5544  0.2045 -0.1047
 6873TIP3    H142110   1.568   2.631  12.351 -0.0777  2.3729 -0.0380
 6873TIP3    H242111   1.492   2.608  12.480  0.4760 -0.0149 -0.0836
 6874TIP3   OH242112   3.906   5.545   5.038  0.0574  0.3240  0.2315
 6874TIP3    H142113   3.954   5.500   5.108 -1.8463 -0.1901  1.2744
 6874TIP3    H242114   3.969   5.551   4.966  1.8669  0.2628  1.7297
 6875TIP3   OH242115   2.365   0.361  12.820  0.0645  0.4455 -0.3746
 6875TIP3    H142116   2.432   0.319  12.765  0.8101 -0.5494  1.2410
 6875TIP3    H242117   2.298   0.294  12.832 -1.3917  1.4789 -2.1033
 6876TIP3   OH242118   5.738   2.933  14.168  0.9354 -0.1185  0.8511
 6876TIP3    H142119   5.829   2.962  14.178  0.0897  2.6959  1.1980
 6876TIP3    H242120   5.717   2.890  14.251  1.1920  1.6159  1.8631
 6877TIP3   OH242121   2.312   5.835  12.109  0.1016  0.0036 -0.2806
 6877TIP3    H142122   2.283   5.802  12.024 -2.8952 -2.1989  1.4234
 6877TIP3    H242123   2.376   5.771  12.140 -0.6148 -0.5149  0.1352
 6878TIP3   OH242124   3.227   4.374   5.336 -0.2134  0.8033 -0.6839
 6878TIP3    H142125   3.202   4.367   5.244 -1.5903  2.1032 -0.4664
 6878TIP3    H242126   3.176   4.449   5.368  0.4487  0.5475  1.0649
 6879TIP3   OH242127   6.100   3.026   3.623 -0.5693  0.0007  0.1479
 6879TIP3    H142128   6.188   3.007   3.590 -0.7913 -0.7083 -0.0537
 6879TIP3    H242129   6.042   2.996   3.554 -1.0103 -0.6047  0.7684
 6880TIP3   OH242130   2.178   4.357  17.265 -0.1969  0.2113 -0.2980
 6880TIP3    H142131   2.247   4.326  17.323  0.6762  0.6642 -1.0605
 6880TIP3    H242132   2.178   4.295  17.192  0.3369  0.9371 -0.9484
 6881TIP3   OH242133   4.467   5.440  11.855  0.3467 -0.5514  0.1193
 6881TIP3    H142134   4.460   5.370  11.920  0.7774 -0.3815  0.3519
 6881TIP3    H242135   4.520   5.403  11.785 -0.8497 -1.0404 -0.5620
 6882TIP3   OH242136   0.195   2.678   1.031  0.2405  0.2860 -0.0044
 6882TIP3    H142137   0.196   2.583   1.037  0.1656  0.3124  0.4077
 6882TIP3    H242138   0.240   2.708   1.110  0.5983  0.5852 -0.3174
 6883TIP3   OH242139   0.881   6.578   5.821  0.2367 -0.3335  0.0161
 6883TIP3    H142140   0.919   6.621   5.897 -1.8139 -0.2142  1.0444
 6883TIP3    H242141   0.840   6.499   5.857 -0.3351 -0.5322 -1.0481
 6884TIP3   OH242142   4.667   3.631  16.750  0.4344 -0.0197 -0.1524
 6884TIP3    H142143   4.737   3.585  16.703  0.7246  0.2728 -0.0043
 6884TIP3    H242144   4.700   3.720  16.762  0.5932 -0.2252  1.0790
 6885TIP3   OH242145   5.485   3.116  16.067  0.0539  0.5511  0.1547
 6885TIP3    H142146   5.521   3.032  16.094  0.3740  0.5105 -0.3823
 6885TIP3    H242147   5.492   3.172  16.145  0.7587  0.3740  0.2252
 6886TIP3   OH242148   3.537   0.474   4.218  0.2619 -0.5150 -0.1433
 6886TIP3    H142149   3.560   0.501   4.129  0.3626 -0.3255 -0.0620
 6886TIP3    H242150   3.565   0.383   4.224 -0.2108 -0.6892 -0.4704
 6887TIP3   OH242151   3.064   2.315  13.053 -0.5992 -0.0719  0.4904
 6887TIP3    H142152   3.151   2.319  13.091 -0.7823  0.3471  0.8829
 6887TIP3    H242153   3.077   2.277  12.966 -0.0782 -0.3519  0.6885
 6888TIP3   OH242154   6.214   1.801  15.689 -0.3329  0.1765 -0.3312
 6888TIP3    H142155   6.211   1.711  15.658 -2.9533  0.4510 -1.1087
 6888TIP3    H242156   6.179   1.798  15.778  0.5050  0.3169  0.0122
 6889TIP3   OH242157   1.405   3.818  13.959 -0.3079  0.7475  0.2808
 6889TIP3    H142158   1.390   3.726  13.980  1.1458  1.0744  3.3258
 6889TIP3    H242159   1.326   3.845  13.912 -0.9190 -1.9165 -0.4051
 6890TIP3   OH242160   1.883   4.746   2.972 -0.0414  0.0527  0.9075
 6890TIP3    H142161   1.921   4.659   2.962  1.0716  0.6219 -0.0080
 6890TIP3    H242162   1.927   4.782   3.049  0.4054  0.2611  0.5577
 6891TIP3   OH242163   6.795   1.848  14.872  0.2461 -0.2283  0.3441
 6891TIP3    H142164   6.736   1.822  14.943 -1.6101  1.9004 -0.3227
 6891TIP3    H242165   6.741   1.845  14.793  1.2793  0.9247 -0.4350
 6892TIP3   OH242166   0.427   3.412   1.780 -0.4244  0.2034  0.3190
 6892TIP3    H142167   0.460   3.356   1.850 -0.0949  1.4903  1.2431
 6892TIP3    H242168   0.490   3.403   1.709  0.2984  0.3630  0.9331
 6893TIP3   OH242169   0.338   3.866   3.489  0.2352  0.5818 -0.2353
 6893TIP3    H142170   0.285   3.944   3.508  0.1188  0.6347 -0.7753
 6893TIP3    H242171   0.426   3.889   3.519  0.0259  0.6069  0.3862
 6894TIP3   OH242172   3.366   4.423  15.568  0.0040  0.4320 -0.0277
 6894TIP3    H142173   3.279   4.408  15.530  0.8152 -0.7462 -1.5567
 6894TIP3    H242174   3.387   4.513  15.544 -0.2026  0.2418 -0.9588
 6895TIP3   OH242175   5.102   5.842  14.086 -0.4819 -0.1471  0.1335
 6895TIP3    H142176   5.095   5.747  14.070 -1.1158 -0.0929  0.0357
 6895TIP3    H242177   5.195   5.861  14.079 -0.0909 -1.1097  2.1822
 6896TIP3   OH242178   6.046   2.823   2.645 -0.0929 -0.5846 -0.0827
 6896TIP3    H142179   6.114   2.890   2.636 -1.3581  0.9753  1.1923
 6896TIP3    H242180   6.021   2.802   2.555  0.4992  0.5128 -0.5266
 6897TIP3   OH242181   3.354   3.973  11.951  0.3199 -0.1165 -0.1777
 6897TIP3    H142182   3.359   3.891  11.900  2.0954  0.2900 -0.7298
 6897TIP3    H242183   3.338   4.041  11.886 -0.0575  0.1132  0.1487
 6898TIP3   OH242184   4.391   0.786  14.603 -0.0082  0.4451  0.4912
 6898TIP3    H142185   4.434   0.832  14.676 -1.0360 -1.5615  2.4770
 6898TIP3    H242186   4.306   0.828  14.595  0.3008  1.0083  0.0596
 6899TIP3   OH242187   4.214   2.595  12.648 -0.8485 -0.5582  0.1404
 6899TIP3    H142188   4.237   2.551  12.731  0.5723 -0.5351 -0.2175
 6899TIP3    H242189   4.284   2.569  12.588 -0.8907  0.8671 -0.5465
 6900TIP3   OH242190   1.392   6.111   2.855  0.3935 -0.2702 -0.3240
 6900TIP3    H142191   1.341   6.116   2.773  0.0641 -0.2065 -0.1163
 6900TIP3    H242192   1.354   6.179   2.911 -0.7094 -1.6054  0.6197
 6901TIP3   OH242193   6.271   2.809   5.330  0.2188  0.1799  0.3579
 6901TIP3    H142194   6.303   2.879   5.387  0.1544  0.4629  0.0486
 6901TIP3    H242195   6.182   2.791   5.362 -0.1190  0.8942 -0.1568
 6902TIP3   OH242196   1.667   1.019   3.464 -0.0198 -0.1952 -0.1883
 6902TIP3    H142197   1.655   1.104   3.421 -1.1480 -0.7164 -0.9420
 6902TIP3    H242198   1.705   0.964   3.396  3.5808  0.4182  1.0987
 6903TIP3   OH242199   0.553   4.015  12.913 -0.5334 -0.3368 -0.2715
 6903TIP3    H142200   0.528   3.942  12.857 -0.2366 -0.8619  0.2627
 6903TIP3    H242201   0.476   4.030  12.968 -0.0948 -1.2279  0.6205
 6904TIP3   OH242202   5.326   2.377   3.899 -0.2869 -0.2778 -0.5101
 6904TIP3    H142203   5.253   2.316   3.887 -0.8527  0.3139 -0.1483
 6904TIP3    H242204   5.316   2.440   3.828 -0.6403  0.2988  0.0450
 6905TIP3   OH242205   2.043   0.951  13.734  0.1092 -0.0673  0.4063
 6905TIP3    H142206   2.033   0.924  13.643  0.0202  0.9706  0.0959
 6905TIP3    H242207   2.122   0.907  13.764 -0.6648 -1.5916  0.2836
 6906TIP3   OH242208   3.988   3.482  17.142 -0.3287 -0.2472 -0.1150
 6906TIP3    H142209   4.012   3.541  17.070  0.7214  0.8670  1.1012
 6906TIP3    H242210   4.058   3.492  17.206 -1.0513 -1.4969  0.9169
 6907TIP3   OH242211   3.962   0.107  14.550 -0.2889 -0.3407  0.0183
 6907TIP3    H142212   4.030   0.051  14.511 -0.3262 -0.3524 -0.0314
 6907TIP3    H242213   3.980   0.105  14.644  0.5108  0.6319 -0.0965
 6908TIP3   OH242214   2.104   4.705  14.406  0.1221  0.1098  0.1943
 6908TIP3    H142215   2.042   4.692  14.478  0.2523  1.1692  0.5138
 6908TIP3    H242216   2.190   4.705  14.448  0.4680 -2.4757 -0.3844
 6909TIP3   OH242217   5.525   1.899   4.742 -0.6010  0.7831 -0.5303
 6909TIP3    H142218   5.479   1.959   4.683  0.3412  1.4571 -0.5999
 6909TIP3    H242219   5.590   1.953   4.785 -1.0365  0.2163  0.8917
 6910TIP3   OH242220   5.937   1.289  11.702 -0.0077 -0.1626  0.3425
 6910TIP3    H142221   5.931   1.216  11.639  1.0440  0.1491 -0.1366
 6910TIP3    H242222   5.934   1.246  11.788 -0.9027 -0.6411  0.0872
 6911TIP3   OH242223   3.309   1.480   0.107 -0.0194 -0.6531 -0.4201
 6911TIP3    H142224   3.266   1.546   0.053  3.3290  1.8259 -0.3991
 6911TIP3    H242225   3.400   1.479   0.076  1.4667 -1.0152  3.3538
 6912TIP3   OH242226   4.324   5.444   1.496 -0.2343 -0.0317 -0.0486
 6912TIP3    H142227   4.287   5.493   1.422 -1.0893 -0.8606 -0.1796
 6912TIP3    H242228   4.255   5.383   1.521  0.3179 -0.2398  0.9916
 6913TIP3   OH242229   3.872   4.410   3.214 -0.4135  0.3787  0.4864
 6913TIP3    H142230   3.896   4.468   3.287 -0.2478  1.1178 -0.1461
 6913TIP3    H242231   3.950   4.359   3.196 -0.3707  0.3861  0.6520
 6914TIP3   OH242232   2.790   4.037  11.175  0.4143 -0.2795 -0.1945
 6914TIP3    H142233   2.709   4.085  11.192  1.0000  0.7615 -0.2725
 6914TIP3    H242234   2.815   4.063  11.086  0.5272 -1.0436 -0.3895
 6915TIP3   OH242235   3.349   5.501  15.176  0.0217  0.0156  0.2247
 6915TIP3    H142236   3.415   5.432  15.179 -1.0685 -1.0336  1.6599
 6915TIP3    H242237   3.360   5.549  15.257 -0.9112 -0.1306  0.4564
 6916TIP3   OH242238   5.447   3.431   3.726  0.0349  0.4293  0.3128
 6916TIP3    H142239   5.453   3.424   3.821 -0.9444  0.8216  0.4166
 6916TIP3    H242240   5.526   3.478   3.699  0.7863 -0.5149  0.8255
 6917TIP3   OH242241   5.861   5.629   2.324 -0.0862  0.3276  0.4843
 6917TIP3    H142242   5.912   5.641   2.244 -0.2884  2.0740  0.5639
 6917TIP3    H242243   5.918   5.579   2.383 -0.2717 -1.7683 -1.0271
 6918TIP3   OH242244   2.316   1.438  11.989  0.7828 -0.8972 -0.2051
 6918TIP3    H142245   2.306   1.508  11.924  0.1608 -1.2739 -0.5303
 6918TIP3    H242246   2.241   1.380  11.973  0.4237 -0.8238  1.0724
 6919TIP3   OH242247   3.217   2.567   3.391 -0.3542 -0.3506  0.0225
 6919TIP3    H142248   3.175   2.528   3.315  0.7339 -2.6603  0.5095
 6919TIP3    H242249   3.183   2.516   3.465  0.0094  0.6287  0.8807
 6920TIP3   OH242250   3.514   1.885  16.358 -0.1089 -0.0486 -0.1228
 6920TIP3    H142251   3.527   1.795  16.387  0.6846  0.0197 -0.2445
 6920TIP3    H242252   3.431   1.911  16.398  0.4863 -0.2661  1.3215
 6921TIP3   OH242253   0.268   5.227   1.803  0.3423 -0.0706  0.1824
 6921TIP3    H142254   0.213   5.295   1.841  0.4016  0.6250 -0.9308
 6921TIP3    H242255   0.223   5.145   1.825 -1.5053  0.5137 -1.1923
 6922TIP3   OH242256   0.069   2.682  13.797  0.2015 -1.1233  0.3610
 6922TIP3    H142257  -0.012   2.714  13.755  0.1297 -0.8742  0.6901
 6922TIP3    H242258   0.124   2.653  13.723 -1.2987 -4.0171  0.2146
 6923TIP3   OH242259   2.146   5.132  12.475 -0.5311 -0.4904 -0.7569
 6923TIP3    H142260   2.090   5.206  12.501  0.4465 -0.4399  1.4255
 6923TIP3    H242261   2.084   5.062  12.455 -1.4238  0.2349 -0.6180
 6924TIP3   OH242262   2.137   5.375  14.508  0.5563  0.2406  0.0143
 6924TIP3    H142263   2.227   5.372  14.473  1.2177 -0.1712  1.6823
 6924TIP3    H242264   2.097   5.449  14.462  1.6981  0.3595 -0.8570
 6925TIP3   OH242265   5.950   1.187   6.505  0.4895  0.1745  0.9490
 6925TIP3    H142266   5.901   1.109   6.480 -0.0626  0.6680  0.4389
 6925TIP3    H242267   5.902   1.259   6.465  1.9796  0.6393 -0.0980
 6926TIP3   OH242268   6.708   2.053  17.001 -0.1476  0.8219  0.0225
 6926TIP3    H142269   6.783   1.997  16.981  0.8045  2.3583 -0.9728
 6926TIP3    H242270   6.666   2.066  16.916 -2.0231 -0.6086  0.6783
 6927TIP3   OH242271   3.322   6.671   3.206  0.2313  0.3522  0.3495
 6927TIP3    H142272   3.375   6.697   3.131 -1.3136  0.2075 -0.8379
 6927TIP3    H242273   3.290   6.754   3.243 -2.0902  0.4000 -1.5115
 6928TIP3   OH242274   1.507   4.142   1.182 -0.0513 -0.1304  0.3899
 6928TIP3    H142275   1.595   4.119   1.151 -0.2029  0.4606 -0.5185
 6928TIP3    H242276   1.452   4.137   1.104 -0.7055  0.1217  0.8261
 6929TIP3   OH242277   3.891   4.705   3.580 -0.2212 -0.1415  0.1364
 6929TIP3    H142278   3.890   4.775   3.515 -1.4990  0.4105  0.7112
 6929TIP3    H242279   3.961   4.730   3.641 -0.2336  0.2996 -0.0250
 6930TIP3   OH242280   1.552   0.219   6.327 -0.0564 -0.5848  0.3160
 6930TIP3    H142281   1.600   0.300   6.307  0.0918 -1.2208 -2.2912
 6930TIP3    H242282   1.608   0.173   6.389  0.6360  0.5724  0.5942
 6931TIP3   OH242283   3.957   4.884   5.977  0.0223  0.2370 -0.1201
 6931TIP3    H142284   3.931   4.889   6.069 -1.3990  1.9118 -0.5562
 6931TIP3    H242285   4.039   4.932   5.972  1.0799 -1.4390  0.5553
 6932TIP3   OH242286   6.109   0.151   4.963  0.3452  0.1340 -0.7408
 6932TIP3    H142287   6.067   0.161   5.048  1.6550  0.7379 -0.1278
 6932TIP3    H242288   6.203   0.150   4.983  0.6679 -3.2084 -1.8144
 6933TIP3   OH242289   1.108   6.722  14.265  0.1079  0.2726  0.1804
 6933TIP3    H142290   1.015   6.748  14.263  0.4660  1.7655  1.1255
 6933TIP3    H242291   1.107   6.633  14.301 -0.9829  0.0936 -0.2387
 6934TIP3   OH242292   5.338   0.967   5.644 -0.6932 -0.1786 -0.2419
 6934TIP3    H142293   5.304   0.894   5.592  0.2602  0.0396 -1.2005
 6934TIP3    H242294   5.404   0.927   5.700 -2.6647 -0.6724  1.8955
 6935TIP3   OH242295   1.712   5.235   1.747  0.4167  0.1713 -0.6090
 6935TIP3    H142296   1.782   5.188   1.700 -0.3412 -0.7194 -0.8775
 6935TIP3    H242297   1.634   5.219   1.695 -0.0772  0.8105 -0.0765
 6936TIP3   OH242298   6.356   4.009   0.064  0.1351  0.5521 -0.6109
 6936TIP3    H142299   6.410   4.084   0.042 -0.2482  0.8856 -0.4221
 6936TIP3    H242300   6.266   4.041   0.059 -0.0130  0.2741  0.0650
 6937TIP3   OH242301   3.155   3.628  13.814  0.2829 -0.1662 -0.2623
 6937TIP3    H142302   3.097   3.659  13.744 -2.0935 -0.8020  1.3026
 6937TIP3    H242303   3.131   3.536  13.827 -0.3329  0.2684  2.2232
 6938TIP3   OH242304   6.346   4.119  14.930 -0.5574  0.4702 -0.0569
 6938TIP3    H142305   6.363   4.147  15.020  1.3874  0.1533 -0.2935
 6938TIP3    H242306   6.364   4.025  14.931 -0.0938  0.5496 -0.8783
 6939TIP3   OH242307   0.400   4.771   4.893 -0.9121  0.2827  0.5046
 6939TIP3    H142308   0.404   4.692   4.840 -2.6344  0.4381  0.0805
 6939TIP3    H242309   0.340   4.829   4.846  1.7548  2.6828 -0.2275
 6940TIP3   OH242310   2.158   6.195  16.279  0.1615  0.3826  0.5277
 6940TIP3    H142311   2.090   6.238  16.331 -1.3237 -0.8245 -0.3261
 6940TIP3    H242312   2.199   6.266  16.230 -0.5438  1.1281  0.9814
 6941TIP3   OH242313   5.118   1.933  12.628  0.6007 -0.1715  0.6391
 6941TIP3    H142314   5.095   2.022  12.653  0.9560 -0.3163  1.5281
 6941TIP3    H242315   5.194   1.911  12.682 -0.2152 -1.4273  1.3458
 6942TIP3   OH242316   2.994   4.210  10.515 -0.3840  0.2912 -0.2621
 6942TIP3    H142317   3.073   4.194  10.462  0.0830  0.6262  0.3239
 6942TIP3    H242318   3.023   4.201  10.605 -1.1191  0.0067 -0.0459
 6943TIP3   OH242319   4.660   1.735  12.187 -0.7020  0.1957  0.2011
 6943TIP3    H142320   4.648   1.812  12.243  0.6202  1.4507 -1.1185
 6943TIP3    H242321   4.678   1.772  12.100  1.7366 -1.5232 -0.1321
 6944TIP3   OH242322   2.374   1.605   1.402  0.3196  0.4954 -0.8656
 6944TIP3    H142323   2.453   1.579   1.451 -0.8263  0.4898  1.0636
 6944TIP3    H242324   2.396   1.586   1.311  2.6113  0.6408 -0.4091
 6945TIP3   OH242325   6.786   4.193  12.346 -0.1343 -0.2328 -0.5211
 6945TIP3    H142326   6.727   4.201  12.271 -1.8240  0.3920  0.8241
 6945TIP3    H242327   6.832   4.277  12.349 -0.8116  0.1327 -0.2632
 6946TIP3   OH242328   5.237   5.192  12.431  0.1727 -0.5452 -0.0462
 6946TIP3    H142329   5.250   5.220  12.341  1.9467 -0.4038  0.2347
 6946TIP3    H242330   5.266   5.266  12.484  0.7507 -1.2631  0.6596
 6947TIP3   OH242331   5.436   0.724   1.975 -0.1437 -0.1304  0.1435
 6947TIP3    H142332   5.523   0.726   2.017  0.0869 -0.5932 -0.3055
 6947TIP3    H242333   5.377   0.694   2.044  0.1503 -0.3798  0.2902
 6948TIP3   OH242334   2.779   1.058  11.562  0.2123 -0.4658 -0.4398
 6948TIP3    H142335   2.758   1.131  11.620 -1.7875 -1.9771  0.8898
 6948TIP3    H242336   2.742   0.981  11.606 -0.6948 -1.8242 -3.3326
 6949TIP3   OH242337   1.945   3.896  11.237 -0.2175 -0.3322  0.5220
 6949TIP3    H142338   1.905   3.873  11.320  1.1233 -0.7363  1.0730
 6949TIP3    H242339   2.034   3.863  11.242  0.4456  1.1611 -0.3822
 6950TIP3   OH242340   1.521   2.485  14.910  0.0564  0.2746  0.1044
 6950TIP3    H142341   1.524   2.422  14.983 -1.0931  2.0960  1.8262
 6950TIP3    H242342   1.585   2.451  14.847  1.7753 -0.9297  2.3294
 6951TIP3   OH242343   5.926   2.536  12.984  0.1620 -0.2294  0.6630
 6951TIP3    H142344   5.972   2.485  13.050 -0.3370 -0.4938  0.8133
 6951TIP3    H242345   5.834   2.513  12.996  0.1947 -1.4940 -1.1435
 6952TIP3   OH242346   3.232   4.900   4.713 -0.3252 -0.0955  0.8370
 6952TIP3    H142347   3.327   4.902   4.720  0.3672 -2.3029 -3.9333
 6952TIP3    H242348   3.205   4.826   4.766  0.9765 -1.0303  0.2335
 6953TIP3   OH242349   3.555   4.168   6.375  0.2194 -0.1679  0.3178
 6953TIP3    H142350   3.478   4.224   6.363  0.9642  0.8148 -0.0427
 6953TIP3    H242351   3.588   4.192   6.461  0.0622 -0.6675  0.5185
 6954TIP3   OH242352   1.159   6.189   1.771 -0.3962  0.3167  0.0175
 6954TIP3    H142353   1.236   6.135   1.751 -1.8072 -1.6058 -0.5969
 6954TIP3    H242354   1.137   6.167   1.861 -0.1127  1.0342  0.2666
 6955TIP3   OH242355   0.710   2.625   2.435  0.2766 -0.3222 -0.6318
 6955TIP3    H142356   0.751   2.614   2.520 -1.6663  0.2059  0.4236
 6955TIP3    H242357   0.633   2.568   2.438 -0.4922  0.6337 -1.5677
 6956TIP3   OH242358   3.781   2.160  10.467 -0.4338  0.0877  0.1172
 6956TIP3    H142359   3.752   2.099  10.399 -0.0594  0.5802 -0.4881
 6956TIP3    H242360   3.738   2.242  10.445  0.2092  0.4231  0.0935
 6957TIP3   OH242361   0.072   6.083   5.313  0.0145 -0.1929  0.3619
 6957TIP3    H142362   0.113   6.010   5.268  0.1253 -1.5274  2.5122
 6957TIP3    H242363   0.145   6.138   5.341  0.1417 -0.7822  1.2223
 6958TIP3   OH242364   4.583   1.574  13.222 -0.1018  0.5111  0.7323
 6958TIP3    H142365   4.511   1.516  13.195  0.0560 -1.4418  3.9391
 6958TIP3    H242366   4.641   1.577  13.146 -2.4244  0.3607 -1.1849
 6959TIP3   OH242367   0.253   2.990  13.412 -0.3885  0.0161  0.3265
 6959TIP3    H142368   0.189   2.921  13.430 -1.0641  0.7762  0.9128
 6959TIP3    H242369   0.337   2.954  13.441  0.0310 -2.1077 -2.9619
 6960TIP3   OH242370   5.944   2.380  14.992 -0.3874  0.7049  0.0884
 6960TIP3    H142371   5.954   2.328  14.913  0.0838  0.8505  0.0475
 6960TIP3    H242372   5.950   2.317  15.064  0.1324  0.6888  0.0364
 6961TIP3   OH242373   2.252   6.026  11.158 -0.2376 -0.0204 -0.0702
 6961TIP3    H142374   2.289   6.084  11.225  3.7035 -0.4360 -1.6167
 6961TIP3    H242375   2.200   6.084  11.102  2.2148  1.8007 -0.6008
 6962TIP3   OH242376   3.928   5.349   1.530  0.3838  0.2724 -0.0182
 6962TIP3    H142377   3.880   5.267   1.548 -0.9846  1.3849  1.8089
 6962TIP3    H242378   4.018   5.329   1.554  0.1774 -0.8550 -0.1050
 6963TIP3   OH242379   3.812   6.023   3.630 -0.0660 -0.3475  0.2051
 6963TIP3    H142380   3.832   5.933   3.655  0.2091 -0.2122  0.4786
 6963TIP3    H242381   3.767   6.060   3.706  0.8359  0.0857  0.5542
 6964TIP3   OH242382   4.211   0.523  10.268 -0.7099 -0.1291 -0.2491
 6964TIP3    H142383   4.134   0.578  10.283 -1.8776 -1.5802 -0.7320
 6964TIP3    H242384   4.231   0.486  10.354 -0.5874  0.1943 -0.1367
 6965TIP3   OH242385   5.712   6.363   0.422 -0.2245  0.1958 -0.1260
 6965TIP3    H142386   5.743   6.296   0.361 -0.7680  1.0237 -1.3444
 6965TIP3    H242387   5.693   6.315   0.503 -0.2714 -1.0547 -0.8585
 6966TIP3   OH242388   6.601   4.287  15.768 -0.3010  0.8054  0.6378
 6966TIP3    H142389   6.593   4.194  15.749 -2.5145  1.2225 -0.8695
 6966TIP3    H242390   6.599   4.293  15.863 -0.1892 -0.6814  0.7485
 6967TIP3   OH242391   1.964   3.938   5.733 -0.2436 -0.0220 -0.2424
 6967TIP3    H142392   1.880   3.901   5.706  0.2607 -0.4109 -1.3602
 6967TIP3    H242393   1.997   3.982   5.654 -0.1749  1.6235  0.6664
 6968TIP3   OH242394   5.039   3.013  13.828 -0.1616  0.1732 -0.3228
 6968TIP3    H142395   5.068   3.063  13.752 -0.5630 -0.5766 -0.9857
 6968TIP3    H242396   5.107   2.947  13.841  0.0119  0.4382  0.0974
 6969TIP3   OH242397   2.657   6.158   3.822 -0.0779  0.1752  0.2558
 6969TIP3    H142398   2.683   6.091   3.884 -0.8835  1.3957  1.9843
 6969TIP3    H242399   2.655   6.239   3.873 -0.6781  1.2452 -1.3769
 6970TIP3   OH242400   2.889   4.481  13.836 -0.4541 -0.1842  0.6984
 6970TIP3    H142401   2.812   4.433  13.867  0.1741 -0.7850  1.3499
 6970TIP3    H242402   2.916   4.534  13.912  0.0493 -0.3264  0.6169
 6971TIP3   OH242403   4.242   5.291   5.712  0.0763  0.2103 -0.2867
 6971TIP3    H142404   4.241   5.386   5.698  0.3956  0.2649  0.0448
 6971TIP3    H242405   4.258   5.254   5.626 -1.1125  0.4105 -0.6167
 6972TIP3   OH242406   5.409   2.064  12.127  0.6890 -0.3573  0.2757
 6972TIP3    H142407   5.482   2.046  12.066  1.1308 -0.6635  0.8858
 6972TIP3    H242408   5.346   1.994  12.110  0.9844 -0.6627  0.4349
 6973TIP3   OH242409   5.922   1.473   3.039 -0.2725  0.2517 -0.0256
 6973TIP3    H142410   6.010   1.463   3.003 -0.2743  0.3549 -0.0588
 6973TIP3    H242411   5.884   1.386   3.034 -0.6685  0.4737 -1.3014
 6974TIP3   OH242412   5.430   1.836  14.955  0.1577  0.1144  0.4341
 6974TIP3    H142413   5.341   1.802  14.943  0.1347  0.0508  0.7723
 6974TIP3    H242414   5.418   1.912  15.012  0.4006 -0.3093  1.0553
 6975TIP3   OH242415   0.136   2.060  14.966  0.1935 -0.2226 -0.2370
 6975TIP3    H142416   0.077   1.997  14.927 -0.6517  1.7983 -2.4296
 6975TIP3    H242417   0.107   2.068  15.057 -1.4752 -0.9022 -0.6913
 6976TIP3   OH242418   3.998   2.675   3.506 -0.0816  0.4988  0.4440
 6976TIP3    H142419   3.940   2.695   3.579 -0.8468 -0.6785  0.1883
 6976TIP3    H242420   3.940   2.669   3.430  0.4980  0.1851  0.0177
 6977TIP3   OH242421   2.835   1.289  14.187  0.6116 -0.4753  0.1057
 6977TIP3    H142422   2.819   1.197  14.166 -1.4760  0.3444 -2.3334
 6977TIP3    H242423   2.748   1.327  14.197  1.4395  1.1828  1.5876
 6978TIP3   OH242424   6.450   2.518   1.962  0.5276  0.3326  0.2221
 6978TIP3    H142425   6.400   2.599   1.975 -0.3031 -0.1538  0.1115
 6978TIP3    H242426   6.395   2.450   2.000  1.3566 -0.1512  0.5764
 6979TIP3   OH242427   2.129   5.311   5.512 -0.5053  0.8507 -0.1805
 6979TIP3    H142428   2.156   5.220   5.515  0.1492  1.0401 -0.2486
 6979TIP3    H242429   2.156   5.348   5.596  1.4651  1.5824 -1.0714
 6980TIP3   OH242430   5.400   6.745  13.375 -0.0143  0.2373 -0.4076
 6980TIP3    H142431   5.403   6.825  13.429  1.9455 -0.4860  0.6712
 6980TIP3    H242432   5.376   6.676  13.436  2.0308 -0.5586 -0.4122
 6981TIP3   OH242433   6.170   3.082  14.391  0.4118  0.1680  0.1166
 6981TIP3    H142434   6.148   3.175  14.383 -1.3917 -0.0837  1.5640
 6981TIP3    H242435   6.086   3.036  14.381  0.9762 -1.1898  1.2426
 6982TIP3   OH242436   2.625   6.727   3.856 -0.3324  0.4287 -0.3984
 6982TIP3    H142437   2.719   6.737   3.870 -0.4579 -0.1403  1.0041
 6982TIP3    H242438   2.585   6.749   3.941 -1.4936  0.9748 -1.0526
 6983TIP3   OH242439   2.471   1.424  13.431 -0.4644 -0.6493 -0.4518
 6983TIP3    H142440   2.539   1.419  13.363  0.7775  0.1863  0.6723
 6983TIP3    H242441   2.397   1.465  13.387  0.9570  1.6463 -0.8566
 6984TIP3   OH242442   5.676   0.906  10.878  1.1304  0.5408  0.1150
 6984TIP3    H142443   5.758   0.954  10.889  0.9013  0.8699  0.4229
 6984TIP3    H242444   5.680   0.871  10.789  1.4609  0.8348  0.0130
 6985TIP3   OH242445   1.568   4.469  14.599  0.1234 -0.4323  0.4816
 6985TIP3    H142446   1.591   4.384  14.562  0.3429 -0.3486  0.4239
 6985TIP3    H242447   1.502   4.504  14.539  0.2101 -0.4567  0.3712
 6986TIP3   OH242448   6.249   1.665   3.675 -0.0406  0.0149  0.0032
 6986TIP3    H142449   6.298   1.598   3.722 -1.0529  1.1099  2.8482
 6986TIP3    H242450   6.315   1.719   3.632  0.8923 -1.4288 -0.4263
 6987TIP3   OH242451   3.500   5.104   3.829  0.1260 -0.2651  0.0375
 6987TIP3    H142452   3.563   5.087   3.898 -0.8411 -0.1597  0.9634
 6987TIP3    H242453   3.429   5.043   3.845  0.4381 -1.1500 -1.6420
 6988TIP3   OH242454   3.300   2.409  12.690  0.1522 -0.4081 -0.1581
 6988TIP3    H142455   3.238   2.482  12.699 -0.8977 -1.0767 -1.6551
 6988TIP3    H242456   3.378   2.449  12.650 -0.3414 -0.0678 -0.7932
 6989TIP3   OH242457   5.945   5.354  12.556  0.2271  0.3231  0.3107
 6989TIP3    H142458   5.934   5.333  12.463 -2.0082  1.6081  0.2042
 6989TIP3    H242459   5.856   5.355  12.591  0.9074  1.2106  2.1563
 6990TIP3   OH242460   3.944   5.735  12.053 -0.1335 -0.4471 -0.6954
 6990TIP3    H142461   3.962   5.828  12.038  1.3461 -0.7895 -1.2209
 6990TIP3    H242462   3.919   5.701  11.967 -0.2696 -0.6178 -0.5891
 6991TIP3   OH242463   0.066   5.334  13.823 -0.6891 -0.2110 -0.0680
 6991TIP3    H142464   0.118   5.276  13.767  0.3341  1.2837 -0.7420
 6991TIP3    H242465  -0.024   5.302  13.814 -0.3945 -0.6865 -1.7315
 6992TIP3   OH242466   1.607   6.310  14.735 -0.3537  0.3001  0.3448
 6992TIP3    H142467   1.546   6.293  14.807 -1.3904  0.7522 -0.4068
 6992TIP3    H242468   1.644   6.224  14.715 -2.3776 -0.3973 -0.6212
 6993TIP3   OH242469   0.501   5.043  16.916  0.5777 -0.6360 -0.1865
 6993TIP3    H142470   0.500   4.958  16.873  0.3623 -0.7780  0.0909
 6993TIP3    H242471   0.412   5.077  16.906  1.1298  0.4128 -1.9388
 6994TIP3   OH242472   2.609   4.774  13.509 -0.6710 -0.5678  0.3426
 6994TIP3    H142473   2.654   4.739  13.431  0.5872 -3.5589  2.2155
 6994TIP3    H242474   2.516   4.763  13.490 -0.3869 -1.2108 -0.7632
 6995TIP3   OH242475   6.683   2.475  15.073  0.5925  0.5701 -0.5306
 6995TIP3    H142476   6.642   2.426  15.002  2.0763 -0.6845 -0.5793
 6995TIP3    H242477   6.773   2.490  15.043  0.9789  0.8127  0.7005
 6996TIP3   OH242478   6.348   1.050  10.840  0.3026  0.3443 -0.7695
 6996TIP3    H142479   6.419   1.114  10.826  0.9457 -0.1967 -0.0942
 6996TIP3    H242480   6.281   1.074  10.777  0.2607  2.0940 -0.1238
 6997TIP3   OH242481   6.752   0.278  12.972 -0.3479 -0.2415 -0.6843
 6997TIP3    H142482   6.840   0.243  12.961  0.5469  0.6598  2.4440
 6997TIP3    H242483   6.753   0.362  12.926  0.5410 -0.1104 -0.4348
 6998TIP3   OH242484   3.298   6.106  14.276  0.0031 -0.1160  0.1228
 6998TIP3    H142485   3.391   6.109  14.296  0.2674 -1.6528 -0.7844
 6998TIP3    H242486   3.278   6.194  14.244  0.8257  0.6349  1.5790
 6999TIP3   OH242487   3.306   4.303  11.086 -0.4781 -0.2735  0.1471
 6999TIP3    H142488   3.238   4.235  11.085  2.0276 -2.9864 -0.7048
 6999TIP3    H242489   3.312   4.332  10.995 -1.0880  0.6787  0.3943
 7000TIP3   OH242490   4.854   0.706  11.111  0.2243 -0.1936  0.2336
 7000TIP3    H142491   4.894   0.670  11.032 -0.4674 -1.3291  0.3713
 7000TIP3    H242492   4.907   0.783  11.132  0.6410 -0.0868 -1.1179
 7001TIP3   OH242493   2.017   3.502   1.980 -0.1919 -0.3154 -0.1283
 7001TIP3    H142494   2.034   3.596   1.991 -2.6056 -0.0230  2.0897
 7001TIP3    H242495   1.990   3.494   1.889 -1.4074  1.4516  0.0175
 7002TIP3   OH242496   0.833   4.286  12.137  0.1885 -0.4358 -0.4671
 7002TIP3    H142497   0.784   4.208  12.111  1.3925 -0.1993 -3.9950
 7002TIP3    H242498   0.899   4.253  12.199 -1.0131 -1.6899  0.1835
 7003TIP3   OH242499   1.782   1.535  11.928 -0.5394  0.1817 -0.1039
 7003TIP3    H142500   1.798   1.523  12.022 -0.4060  0.8568 -0.0355
 7003TIP3    H242501   1.798   1.628  11.913 -2.8505  0.5990 -0.3461
 7004TIP3   OH242502   1.178   0.708  13.420 -0.0540 -0.2581 -0.0606
 7004TIP3    H142503   1.150   0.694  13.511 -1.3223 -0.1227 -0.4119
 7004TIP3    H242504   1.241   0.638  13.403 -0.0450 -0.4759  0.8220
 7005TIP3   OH242505   5.137   6.371  11.473 -0.3406 -0.5946 -0.1704
 7005TIP3    H142506   5.135   6.456  11.516 -0.0420  0.0281 -1.3465
 7005TIP3    H242507   5.229   6.347  11.472 -0.3022 -0.4354 -0.7709
 7006TIP3   OH242508   6.719   0.643   0.042  0.3112 -1.4141 -0.1686
 7006TIP3    H142509   6.706   0.627  -0.052  2.8292 -0.5596 -0.7366
 7006TIP3    H242510   6.697   0.736   0.053  1.3931 -1.1397 -0.2316
 7007TIP3   OH242511   3.232   1.331   6.067  0.3358  0.0741 -0.0372
 7007TIP3    H142512   3.321   1.365   6.060  1.2492 -2.2124 -0.3851
 7007TIP3    H242513   3.209   1.307   5.977  0.0842 -0.9853  0.2971
 7008TIP3   OH242514   1.700   3.390   4.560  0.2919  0.1268 -0.2553
 7008TIP3    H142515   1.695   3.355   4.649  0.0683 -1.1253 -0.7364
 7008TIP3    H242516   1.692   3.485   4.570 -0.8011 -0.0805  0.9736
 7009TIP3   OH242517   5.890   4.384   4.121 -0.0275 -0.4462  0.3421
 7009TIP3    H142518   5.819   4.354   4.177  1.7106  0.0771  3.0025
 7009TIP3    H242519   5.865   4.473   4.097 -0.0740 -0.0616  1.7191
 7010TIP3   OH242520   4.854   2.496   4.908  0.1246 -0.9313 -0.5611
 7010TIP3    H142521   4.770   2.514   4.865  0.0785  0.2482 -0.0156
 7010TIP3    H242522   4.914   2.560   4.869  0.1455 -0.0248  0.8923
 7011TIP3   OH242523   3.631   0.858   3.951 -0.3153 -0.0689  0.3403
 7011TIP3    H142524   3.574   0.935   3.949 -1.2878 -0.7101  1.6229
 7011TIP3    H242525   3.712   0.887   3.908 -1.0246  1.3407 -0.1289
 7012TIP3   OH242526   4.212   0.182   0.573  0.1811  0.0223 -0.3139
 7012TIP3    H142527   4.235   0.095   0.541  2.0065  0.7853 -1.2594
 7012TIP3    H242528   4.200   0.171   0.667 -0.4336 -1.3877 -0.5338
 7013TIP3   OH242529   1.231   2.521   0.201 -0.3019  0.4497  0.0503
 7013TIP3    H142530   1.138   2.509   0.216 -0.2841  0.6703  0.3546
 7013TIP3    H242531   1.261   2.574   0.276  0.3053 -0.6567  0.6214
 7014TIP3   OH242532   0.319   0.677   2.843 -0.0158 -0.4232  0.4115
 7014TIP3    H142533   0.389   0.709   2.785 -1.5620 -3.3816 -3.5569
 7014TIP3    H242534   0.351   0.595   2.878 -1.5813 -2.2845 -2.1740
 7015TIP3   OH242535   3.096   4.370  12.684  0.5438 -0.5060  0.0706
 7015TIP3    H142536   3.162   4.301  12.684  2.2236  1.0223  0.1807
 7015TIP3    H242537   3.102   4.410  12.597 -1.5972 -1.5149 -0.6040
 7016TIP3   OH242538   1.039   3.431  13.187  0.1551 -0.0273  0.1909
 7016TIP3    H142539   1.098   3.494  13.227  1.0253 -0.7565  0.0863
 7016TIP3    H242540   1.016   3.470  13.102 -0.4864  0.8087  0.7275
 7017TIP3   OH242541   6.805   2.606  16.050  0.1767  0.3470 -0.5465
 7017TIP3    H142542   6.780   2.642  16.135  1.1798 -1.6459  0.6713
 7017TIP3    H242543   6.727   2.557  16.022  1.1067 -2.4337  1.2895
 7018TIP3   OH242544   3.121   2.170  13.646 -0.1139 -0.0995  0.2670
 7018TIP3    H142545   3.129   2.211  13.733  1.2164 -0.0304  0.1323
 7018TIP3    H242546   3.187   2.101  13.646  0.5816  0.5306 -1.0251
 7019TIP3   OH242547   2.620   6.375  12.917  0.1364 -0.9020  0.6583
 7019TIP3    H142548   2.699   6.365  12.864 -1.8586 -0.7534 -2.5910
 7019TIP3    H242549   2.611   6.469  12.929 -0.6324 -0.7583 -0.8546
 7020TIP3   OH242550   0.325   3.917  16.833  0.2491  0.1707  0.3649
 7020TIP3    H142551   0.239   3.874  16.838 -0.0628  0.8478  1.1006
 7020TIP3    H242552   0.348   3.913  16.740 -1.0706  0.9199 -0.0294
 7021TIP3   OH242553   5.496   4.108   4.453  0.0278 -0.1411 -0.3542
 7021TIP3    H142554   5.477   4.032   4.398 -1.8104  1.1654 -1.6563
 7021TIP3    H242555   5.498   4.182   4.392 -1.0994  1.2402  1.1788
 7022TIP3   OH242556   5.886   6.672  13.774  0.2897  0.2030  0.7352
 7022TIP3    H142557   5.826   6.679  13.699  1.6040 -0.8070 -0.4823
 7022TIP3    H242558   5.829   6.678  13.851 -1.1473  1.0283 -0.3344
 7023TIP3   OH242559   0.202   4.425   1.407  0.0521  0.3372 -0.2016
 7023TIP3    H142560   0.169   4.481   1.337  1.7000  1.3513 -0.2283
 7023TIP3    H242561   0.297   4.439   1.405  0.4980 -2.1978  0.0218
 7024TIP3   OH242562   3.406   0.043  13.744  0.2785  0.0020  0.3042
 7024TIP3    H142563   3.352   0.005  13.814  1.2959 -0.7221  0.7272
 7024TIP3    H242564   3.370   0.005  13.664 -1.4185  1.4620  0.3161
 7025TIP3   OH242565   3.606   6.730   0.784 -0.3682  0.4168 -0.3706
 7025TIP3    H142566   3.642   6.683   0.709  0.0848  0.1555  0.0135
 7025TIP3    H242567   3.558   6.663   0.834  0.1536  0.3903  0.0973
 7026TIP3   OH242568   0.721   4.590   0.758  0.0521 -0.0878  0.5055
 7026TIP3    H142569   0.680   4.509   0.789  0.8191 -1.0189 -0.7399
 7026TIP3    H242570   0.799   4.600   0.813  0.1589 -0.4288  0.4229
 7027TIP3   OH242571   4.190   2.817  15.759 -0.1821 -0.0612 -0.3433
 7027TIP3    H142572   4.231   2.829  15.674 -1.4512  1.8406 -0.7676
 7027TIP3    H242573   4.258   2.781  15.815  1.4725  1.1275 -1.5073
 7028TIP3   OH242574   1.424   1.905   2.989 -0.3840  0.0382  0.4054
 7028TIP3    H142575   1.342   1.912   3.038 -0.6549 -0.9396  0.1111
 7028TIP3    H242576   1.425   1.815   2.956  0.0965  0.4887 -0.8674
 7029TIP3   OH242577   1.010   3.973  15.092  0.2199 -0.2305 -0.2064
 7029TIP3    H142578   1.091   3.936  15.056  0.3593 -0.2930  0.1564
 7029TIP3    H242579   1.021   3.963  15.187 -1.6695 -3.3648 -0.1856
 7030TIP3   OH242580   1.210   0.616   6.357 -0.3222 -0.0644  0.2085
 7030TIP3    H142581   1.264   0.666   6.417 -0.6155 -0.3670  0.7337
 7030TIP3    H242582   1.251   0.529   6.355 -0.6058 -0.2038  0.3699
 7031TIP3   OH242583   0.537   5.220  14.161  0.4437  0.2740  0.3981
 7031TIP3    H142584   0.553   5.296  14.105 -0.3221  1.3384  1.5494
 7031TIP3    H242585   0.608   5.222  14.225 -0.0518  0.5627  0.9573
 7032TIP3   OH242586   2.351   1.425  17.188  0.4035  0.2817 -0.3427
 7032TIP3    H142587   2.421   1.411  17.124  0.0688  0.4169 -0.7381
 7032TIP3    H242588   2.374   1.367  17.261  2.3587  2.2113  0.6808
 7033TIP3   OH242589   3.307   0.972  12.021  0.1048 -0.2393 -0.2936
 7033TIP3    H142590   3.227   1.019  11.996  0.1991 -0.4017 -0.9153
 7033TIP3    H242591   3.349   1.030  12.085 -0.2361  0.1031 -0.3722
 7034TIP3   OH242592   5.942   2.220   5.765 -0.0877  0.3632 -0.3714
 7034TIP3    H142593   6.010   2.280   5.796  0.3421  0.3535 -1.2689
 7034TIP3    H242594   5.881   2.214   5.838  0.7493  0.5612  0.3617
 7035TIP3   OH242595   6.810   2.236   1.410  0.8139  0.4103  0.6227
 7035TIP3    H142596   6.887   2.183   1.430  0.9653  1.1176  2.0144
 7035TIP3    H242597   6.838   2.326   1.427  0.5183  0.9638 -1.5752
 7036TIP3   OH242598   6.751   0.294  17.036  0.0209 -0.2325 -0.0932
 7036TIP3    H142599   6.825   0.257  17.084  0.1680 -1.4214 -1.1898
 7036TIP3    H242600   6.673   0.255  17.077  0.1253 -0.8339 -0.4444
 7037TIP3   OH242601   6.338   0.770  15.300 -0.2535 -0.2532  0.7590
 7037TIP3    H142602   6.298   0.753  15.386  1.0062 -0.1075  1.3983
 7037TIP3    H242603   6.366   0.861  15.305  0.0622 -0.3246  0.2900
 7038TIP3   OH242604   4.433   1.917  11.698 -0.3719 -0.3903 -0.0984
 7038TIP3    H142605   4.431   1.822  11.709 -1.7769 -0.6290 -1.9162
 7038TIP3    H242606   4.387   1.951  11.775 -2.4929 -1.4053 -0.8529
 7039TIP3   OH242607   6.351   6.284   2.135  0.2820  0.1344 -0.1579
 7039TIP3    H142608   6.406   6.243   2.202 -1.9475 -0.9376  1.1364
 7039TIP3    H242609   6.359   6.226   2.059 -1.8587 -2.2238  1.2506
 7040TIP3   OH242610   4.915   6.562   1.412  0.3435 -0.4887  0.1547
 7040TIP3    H142611   4.990   6.504   1.429 -0.0779 -1.1295 -0.1405
 7040TIP3    H242612   4.875   6.575   1.498 -1.2408 -2.9752 -0.1227
 7041TIP3   OH242613   2.157   2.705  16.160  0.4204  0.0005  0.5800
 7041TIP3    H142614   2.152   2.615  16.128  1.6586 -0.6744  2.1621
 7041TIP3    H242615   2.104   2.755  16.098 -0.9852 -1.9314  0.1399
 7042TIP3   OH242616   3.886   0.943  12.027 -0.7720  0.1887  0.0209
 7042TIP3    H142617   3.978   0.971  12.028 -0.1549 -1.5871 -1.2739
 7042TIP3    H242618   3.837   1.019  12.058  0.7911  2.4582 -2.6368
 7043TIP3   OH242619   6.620   3.868   6.015 -0.3052 -0.4205 -0.5963
 7043TIP3    H142620   6.665   3.926   6.077 -0.3792 -1.7383  0.7441
 7043TIP3    H242621   6.660   3.889   5.930 -0.4783  1.7072 -0.2170
 7044TIP3   OH242622   4.205   1.121   2.199  0.0541 -0.2382 -0.0121
 7044TIP3    H142623   4.212   1.052   2.266 -1.5024  0.0473  0.4931
 7044TIP3    H242624   4.291   1.163   2.199  0.6178 -1.3312  0.6067
 7045TIP3   OH242625   2.127   2.784  15.355 -0.1126 -0.3089 -0.4053
 7045TIP3    H142626   2.093   2.706  15.310  0.3083  0.2349 -1.6986
 7045TIP3    H242627   2.102   2.857  15.299  0.5961  0.3724  0.1506
 7046TIP3   OH242628   6.540   4.762   0.200 -0.4164 -0.1669 -0.1101
 7046TIP3    H142629   6.610   4.745   0.263 -0.7723 -1.7112 -0.0915
 7046TIP3    H242630   6.541   4.857   0.187 -0.0926  0.1365  1.9306
 7047TIP3   OH242631   2.670   0.561   5.882  0.3429  0.4342  0.4962
 7047TIP3    H142632   2.634   0.627   5.823 -0.1822 -0.4085 -0.1480
 7047TIP3    H242633   2.764   0.560   5.863  0.2153  0.3471 -0.1510
 7048TIP3   OH242634   0.864   3.001   4.639  0.1050 -0.5360  0.0466
 7048TIP3    H142635   0.896   3.033   4.555  1.1317  0.5362  0.8184
 7048TIP3    H242636   0.856   3.079   4.693  0.5649 -1.3268  1.2975
 7049TIP3   OH242637   5.850   2.536  14.590 -0.1858 -0.3468  0.3976
 7049TIP3    H142638   5.835   2.442  14.579 -0.6336 -0.3590  1.1033
 7049TIP3    H242639   5.831   2.573  14.503  2.2464 -1.1557 -0.5753
 7050TIP3   OH242640   5.341   1.632  16.378 -0.2243  0.2373  0.0159
 7050TIP3    H142641   5.315   1.676  16.298 -0.4394  0.8265  0.4046
 7050TIP3    H242642   5.419   1.582  16.354 -0.7026 -0.1745 -0.7330
 7051TIP3   OH242643   4.005   1.026   1.224 -0.6336  0.1302 -0.5509
 7051TIP3    H142644   3.935   1.083   1.192 -0.9719  0.4958  0.7554
 7051TIP3    H242645   4.046   1.075   1.294  0.5420 -0.3461 -0.8897
 7052TIP3   OH242646   0.277   4.521  11.014 -0.0704  0.1882 -0.0464
 7052TIP3    H142647   0.208   4.580  11.044  0.1084 -0.0618  0.8803
 7052TIP3    H242648   0.320   4.569  10.943 -0.5843  0.7368  0.0034
 7053TIP3   OH242649   4.358   3.093  16.411 -0.2028 -0.1972 -0.2552
 7053TIP3    H142650   4.298   3.070  16.482  1.3902  0.1352  1.2642
 7053TIP3    H242651   4.411   3.014  16.397 -1.0595 -0.5592 -1.7288
 7054TIP3   OH242652   2.780   3.399   3.990 -0.0625 -0.0790 -0.4642
 7054TIP3    H142653   2.790   3.323   4.048  0.7970 -1.1256 -1.9145
 7054TIP3    H242654   2.825   3.470   4.035  2.5161 -1.4011 -0.7519
 7055TIP3   OH242655   1.891   1.585  16.289 -0.0872  0.4302 -0.1860
 7055TIP3    H142656   1.824   1.516  16.287 -1.4703  1.6850  0.5889
 7055TIP3    H242657   1.884   1.622  16.377  4.0073 -1.5561  1.1930
 7056TIP3   OH242658   6.587   4.863   5.356  0.2161 -0.4156  0.6764
 7056TIP3    H142659   6.671   4.908   5.351 -0.3132  0.5011 -0.5972
 7056TIP3    H242660   6.527   4.928   5.391 -0.2307 -0.6313  0.3281
 7057TIP3   OH242661   6.142   3.748  12.961 -0.0793 -0.7282  0.0184
 7057TIP3    H142662   6.103   3.672  13.004  3.2234 -1.0086  2.8936
 7057TIP3    H242663   6.164   3.807  13.032  0.5341  1.4498 -1.8752
 7058TIP3   OH242664   1.624   5.862   0.816 -0.1724 -1.1103  0.6234
 7058TIP3    H142665   1.564   5.792   0.841 -0.8904 -0.4225  0.8638
 7058TIP3    H242666   1.597   5.937   0.868  0.8504 -0.7557  0.6760
 7059TIP3   OH242667   1.028   2.150  15.213 -0.0832  0.3198  0.6274
 7059TIP3    H142668   0.971   2.222  15.240 -1.6257 -1.0165  1.1262
 7059TIP3    H242669   0.967   2.078  15.192  1.3338 -0.4925 -0.9610
 7060TIP3   OH242670   2.208   6.589  14.433  0.2960  0.2942 -0.0794
 7060TIP3    H142671   2.299   6.610  14.451 -0.0048  0.1435  1.7842
 7060TIP3    H242672   2.184   6.647  14.361  1.9900 -0.0185 -0.9459
 7061TIP3   OH242673   2.925   0.927   3.679  0.2555  0.7780 -0.1091
 7061TIP3    H142674   2.863   0.928   3.606 -0.2750 -0.9628  0.2812
 7061TIP3    H242675   3.002   0.974   3.645 -0.4323  1.0662 -1.3525
 7062TIP3   OH242676   0.071   3.832  11.963 -0.1003  0.5138  0.2683
 7062TIP3    H142677   0.063   3.811  12.056 -0.0133  0.1729  0.1997
 7062TIP3    H242678   0.024   3.761  11.918 -1.2157  1.3268  0.1028
 7063TIP3   OH242679   4.714   5.463   6.623  0.6293  0.2928 -0.1057
 7063TIP3    H142680   4.630   5.439   6.585  0.5449 -1.6207  1.1098
 7063TIP3    H242681   4.693   5.528   6.690 -0.0592 -0.8618  0.8433
 7064TIP3   OH242682   3.599   2.606  15.290  0.1419 -0.6518  0.5306
 7064TIP3    H142683   3.563   2.562  15.213 -1.2210 -2.1454  1.9607
 7064TIP3    H242684   3.571   2.697  15.280 -0.5693 -0.9549 -0.4084
 7065TIP3   OH242685   6.468   1.256  14.539  0.2260 -0.3159  0.3512
 7065TIP3    H142686   6.412   1.278  14.614  0.1664  2.4660 -0.4087
 7065TIP3    H242687   6.555   1.286  14.564  0.4835 -0.6282 -0.1536
 7066TIP3   OH242688   5.988   3.732   3.570  0.3528 -0.0123  0.1629
 7066TIP3    H142689   5.902   3.773   3.574  0.4565  0.2192  0.0410
 7066TIP3    H242690   6.040   3.779   3.635  0.2468 -0.4910  0.5993
 7067TIP3   OH242691   3.766   3.333  12.922  0.0871  0.6679 -0.0658
 7067TIP3    H142692   3.688   3.287  12.893  0.4934 -0.5595  0.6822
 7067TIP3    H242693   3.744   3.367  13.009  0.7108 -0.6446  0.6351
 7068TIP3   OH242694   3.178   4.664  11.006  0.3420 -0.1192  0.2888
 7068TIP3    H142695   3.268   4.683  11.032  0.1897 -1.2906  1.7972
 7068TIP3    H242696   3.184   4.584  10.955  0.0188 -1.1685  1.8241
 7069TIP3   OH242697   4.570   6.696  10.886 -0.0926 -1.0084 -0.3662
 7069TIP3    H142698   4.607   6.613  10.917  0.7613 -0.2922  0.5865
 7069TIP3    H242699   4.638   6.733  10.831 -0.8125 -1.3222 -1.4950
 7070TIP3   OH242700   2.918   0.065  16.682 -0.4396 -0.1311 -0.7120
 7070TIP3    H142701   2.870   0.075  16.599  0.4527  0.9666 -1.1190
 7070TIP3    H242702   2.971   0.144  16.688 -0.8541  0.0396  1.1707
 7071TIP3   OH242703   4.065   5.655   4.019 -0.4295  0.1260  0.8508
 7071TIP3    H142704   4.156   5.686   4.029 -0.3880  0.1781  0.3293
 7071TIP3    H242705   4.030   5.708   3.948 -0.3015 -1.1712 -0.2002
 7072TIP3   OH242706   2.022   4.084   6.702 -0.2063  0.1985 -0.5199
 7072TIP3    H142707   1.961   4.149   6.668  0.8435  1.8704  0.6574
 7072TIP3    H242708   2.000   4.077   6.795  1.4932  1.0318 -0.0074
 7073TIP3   OH242709   3.079   1.344  13.408 -0.5902 -0.0189 -0.5357
 7073TIP3    H142710   3.103   1.270  13.464  0.8141  1.3147  0.7359
 7073TIP3    H242711   3.006   1.385  13.453 -0.2113  0.3791 -0.2699
 7074TIP3   OH242712   4.960   6.448  13.704  0.2462 -0.1691  0.1280
 7074TIP3    H142713   4.930   6.538  13.721  0.2616 -0.1722  0.1716
 7074TIP3    H242714   4.917   6.396  13.772  2.0101  0.1248  1.5590
 7075TIP3   OH242715   3.975   3.197   3.024  0.1281 -0.6262 -0.2939
 7075TIP3    H142716   3.916   3.265   2.992  0.1652 -0.6619 -0.4369
 7075TIP3    H242717   4.027   3.241   3.092  2.2722  0.3831 -2.4166
 7076TIP3   OH242718   2.336   5.172  11.712 -0.2100  0.3031 -0.0982
 7076TIP3    H142719   2.329   5.212  11.625  0.1725 -0.4755 -0.4918
 7076TIP3    H242720   2.426   5.140  11.717 -0.7472 -1.2836 -0.1413
 7077TIP3   OH242721   6.394   1.170   0.676 -0.5589  0.0058 -0.6194
 7077TIP3    H142722   6.478   1.139   0.710 -1.3154  0.0165  1.3610
 7077TIP3    H242723   6.414   1.198   0.586  1.0029 -2.3425 -1.0918
 7078TIP3   OH242724   3.694   4.185   4.868 -0.1800  0.5196  0.1049
 7078TIP3    H142725   3.745   4.197   4.948  0.8310 -0.4623 -0.3791
 7078TIP3    H242726   3.733   4.245   4.805  0.0444  0.1376 -0.1190
 7079TIP3   OH242727   4.798   0.405  14.200  0.2636 -0.0568 -0.1109
 7079TIP3    H142728   4.820   0.410  14.107  3.2981 -0.1755  0.5248
 7079TIP3    H242729   4.859   0.465  14.242 -0.9660 -0.1125  1.8523
 7080TIP3   OH242730   6.319   0.466   1.179  0.5027 -0.2086 -0.5447
 7080TIP3    H142731   6.282   0.420   1.103 -0.3586  1.0376 -0.9034
 7080TIP3    H242732   6.378   0.531   1.141  0.1278  0.3712 -0.1533
 7081TIP3   OH242733   1.470   3.411   2.659 -0.0889  0.8206  0.6268
 7081TIP3    H142734   1.462   3.473   2.731  0.8432  0.8248  0.7392
 7081TIP3    H242735   1.381   3.400   2.627 -0.5876  0.4884  2.0478
 7082TIP3   OH242736   0.678   0.701   1.476  0.1613  0.4560  0.0199
 7082TIP3    H142737   0.770   0.680   1.462  0.0676 -0.7051  0.9328
 7082TIP3    H242738   0.671   0.720   1.570 -0.5071  0.6294 -0.0551
 7083TIP3   OH242739   5.977   1.284  15.481 -0.8492  0.3184  0.1544
 7083TIP3    H142740   5.992   1.222  15.552 -1.4275  0.6832  0.5958
 7083TIP3    H242741   6.016   1.242  15.404  0.7736  0.3985  0.8842
 7084TIP3   OH242742   2.393   2.809   5.009  0.7704  0.3445  0.1200
 7084TIP3    H142743   2.422   2.900   5.003 -0.6364  0.9829  2.0440
 7084TIP3    H242744   2.336   2.807   5.086  1.8562 -2.4838  0.9488
 7085TIP3   OH242745   1.983   5.892  13.240  0.0011 -0.0337 -0.0625
 7085TIP3    H142746   2.076   5.882  13.261  0.4057  2.6036 -0.2024
 7085TIP3    H242747   1.939   5.896  13.324  0.4377  1.4373  0.1399
 7086TIP3   OH242748   4.536   6.408  15.659 -0.1867 -0.0550 -0.2744
 7086TIP3    H142749   4.520   6.403  15.753 -0.2135  0.4983 -0.2455
 7086TIP3    H242750   4.596   6.335  15.641  1.8515  1.2760  0.6272
 7087TIP3   OH242751   1.778   2.116  11.880 -0.0216  0.2145 -0.3033
 7087TIP3    H142752   1.801   2.175  11.808  0.0403  1.7345  0.9029
 7087TIP3    H242753   1.861   2.100  11.925  0.1779 -1.7929 -1.2737
 7088TIP3   OH242754   6.144   6.460   5.514  0.0420  0.0504 -0.4745
 7088TIP3    H142755   6.228   6.476   5.556  0.1803 -2.3097  0.2918
 7088TIP3    H242756   6.109   6.383   5.558 -1.9703  0.2389 -1.6064
 7089TIP3   OH242757   3.529   0.872   1.417  0.3710  0.2977  0.5580
 7089TIP3    H142758   3.458   0.914   1.465 -0.1552 -0.2215  0.2498
 7089TIP3    H242759   3.573   0.943   1.371 -1.8281  0.3189 -1.7104
 7090TIP3   OH242760   3.751   5.415   3.700 -0.4304 -0.1148 -1.0242
 7090TIP3    H142761   3.779   5.405   3.791 -0.9432  0.6243 -0.7773
 7090TIP3    H242762   3.797   5.493   3.670 -2.9147  1.7506 -0.2961
 7091TIP3   OH242763   5.408   4.332  12.921  0.0753 -0.4407 -0.1954
 7091TIP3    H142764   5.313   4.320  12.918 -0.0794  0.6330 -0.1845
 7091TIP3    H242765   5.431   4.358  12.832  0.2060  0.2478  0.0306
 7092TIP3   OH242766   5.961   1.128  12.582 -0.0904  0.2761  0.2881
 7092TIP3    H142767   5.985   1.055  12.525 -0.9558 -0.7360  1.1727
 7092TIP3    H242768   6.042   1.154  12.625 -0.0382 -1.2113  1.1263
 7093TIP3   OH242769   3.590   0.907  11.402 -0.2966  0.3852  0.0808
 7093TIP3    H142770   3.513   0.856  11.381 -0.1079  0.6726 -1.3943
 7093TIP3    H242771   3.638   0.854  11.466 -0.3808 -1.0441 -0.9914
 7094TIP3   OH242772   1.435   3.174  11.851 -0.4489  0.5264 -0.3402
 7094TIP3    H142773   1.512   3.227  11.830 -0.7170  1.7337  1.4610
 7094TIP3    H242774   1.454   3.137  11.937 -1.5722  0.2353 -0.2014
 7095TIP3   OH242775   1.275   4.230   2.467 -0.7193 -0.1736 -0.0676
 7095TIP3    H142776   1.203   4.198   2.413  0.4327  0.7241 -2.2471
 7095TIP3    H242777   1.258   4.323   2.478 -0.3833 -0.1466  0.2610
 7096TIP3   OH242778   3.592   4.023   3.670 -0.2315 -0.3458  0.1967
 7096TIP3    H142779   3.578   4.029   3.764 -0.7610  0.2655  0.0872
 7096TIP3    H242780   3.686   4.013   3.660 -0.1740 -0.4094  0.7870
 7097TIP3   OH242781   5.305   2.001  16.329 -0.5080  0.4993 -0.1617
 7097TIP3    H142782   5.315   2.048  16.411 -0.3330 -1.1317  0.7958
 7097TIP3    H242783   5.369   2.041  16.270  0.2844  0.8305  0.8981
 7098TIP3   OH242784   3.427   1.208  17.058 -0.0122 -0.4017 -0.0680
 7098TIP3    H142785   3.470   1.261  17.126 -0.9188 -0.3162  0.4514
 7098TIP3    H242786   3.347   1.256  17.037 -0.2424 -0.9518 -0.4674
 7099TIP3   OH242787   5.402   1.842  17.277 -0.2028  0.9633  0.1013
 7099TIP3    H142788   5.456   1.920  17.261  0.7169  0.0913 -1.2095
 7099TIP3    H242789   5.465   1.771  17.291 -1.0270  0.4053  1.1619
 7100TIP3   OH242790   5.412   3.953   0.189 -0.6725 -1.0909 -0.6386
 7100TIP3    H142791   5.362   4.028   0.221  0.1613 -0.5320 -0.5878
 7100TIP3    H242792   5.436   3.905   0.268  0.7953 -0.0922 -0.4327
 7101TIP3   OH242793   5.918   0.122  13.623 -0.5967 -0.2484 -0.2075
 7101TIP3    H142794   5.999   0.170  13.605  0.1996 -1.1242  0.8593
 7101TIP3    H242795   5.852   0.165  13.570  0.5910  0.4360 -1.1843
 7102TIP3   OH242796   0.175   4.196  16.914 -0.2884 -0.0194 -0.1080
 7102TIP3    H142797   0.206   4.247  16.989  0.7324  1.6049 -1.5670
 7102TIP3    H242798   0.248   4.138  16.893  0.6907  1.6779 -1.6680
 7103TIP3   OH242799   5.780   3.300  14.392  0.1395 -0.0647 -0.4202
 7103TIP3    H142800   5.803   3.212  14.422 -0.0771  0.0023 -0.0497
 7103TIP3    H242801   5.719   3.332  14.458  0.5727  0.5357 -0.3075
 7104TIP3   OH242802   4.409   5.195   3.648 -0.7429 -0.2138 -0.1788
 7104TIP3    H142803   4.427   5.277   3.696  2.8885 -1.8913  1.7773
 7104TIP3    H242804   4.341   5.151   3.700 -0.3337  0.1437  0.6851
 7105TIP3   OH242805   4.703   4.671   3.899  0.6881  0.1139  0.5305
 7105TIP3    H142806   4.632   4.608   3.887  1.6938 -1.0454  0.4869
 7105TIP3    H242807   4.709   4.684   3.993  0.0430  0.6664  0.4995
 7106TIP3   OH242808   6.301   0.576   4.330 -0.3144 -0.0082  0.6341
 7106TIP3    H142809   6.352   0.602   4.253  0.0457  0.0724  0.8985
 7106TIP3    H242810   6.277   0.485   4.312 -1.3699  0.4134 -0.1770
 7107TIP3   OH242811   5.294   5.532   1.500 -0.8908 -0.4240  0.0454
 7107TIP3    H142812   5.367   5.475   1.476 -0.9737 -0.5269  0.0370
 7107TIP3    H242813   5.252   5.487   1.573 -0.5241 -0.0195  0.5121
 7108TIP3   OH242814   5.969   2.130  15.580  0.2363 -0.4018  0.2003
 7108TIP3    H142815   6.023   2.207  15.592 -0.9394  0.3166  1.0600
 7108TIP3    H242816   5.988   2.075  15.656  0.9788 -0.9279 -0.3472
 7109TIP3   OH242817   4.042   6.344  10.974  0.5721 -0.3692  0.6193
 7109TIP3    H142818   4.114   6.281  10.975  0.1641 -0.8337  1.2344
 7109TIP3    H242819   3.981   6.310  10.909  1.1574  0.3253 -0.3182
 7110TIP3   OH242820   4.018   3.064   5.374  0.6403 -0.2628  0.1207
 7110TIP3    H142821   4.042   2.989   5.429  0.7126 -1.7409 -1.8152
 7110TIP3    H242822   3.937   3.037   5.332  1.7711 -0.2138 -2.2426
 7111TIP3   OH242823   1.412   5.431  14.181 -0.9277  0.2228 -0.5571
 7111TIP3    H142824   1.483   5.447  14.119 -0.8257 -0.5039 -0.6343
 7111TIP3    H242825   1.455   5.431  14.267 -0.9312  0.3858 -0.5552
 7112TIP3   OH242826   3.269   0.270  12.562 -0.4043  0.4820  0.2982
 7112TIP3    H142827   3.188   0.247  12.607 -1.2571  1.6460 -0.5773
 7112TIP3    H242828   3.298   0.188  12.521 -1.3000  0.1239  0.3629
 7113TIP3   OH242829   3.044   5.241   3.184 -0.4085 -0.0764  0.7347
 7113TIP3    H142830   3.109   5.270   3.121  0.1270  1.3835  1.9075
 7113TIP3    H242831   3.087   5.170   3.233 -0.0433  0.2266  0.8586
 7114TIP3   OH242832   3.936   5.880   3.948  0.6448  0.0140  0.4234
 7114TIP3    H142833   3.921   5.918   4.035 -0.1757 -0.2152  0.3911
 7114TIP3    H242834   3.856   5.830   3.930  0.8552 -0.0267 -0.4153
 7115TIP3   OH242835   5.573   0.638  15.808 -0.1901 -0.2155 -0.1916
 7115TIP3    H142836   5.480   0.654  15.826 -0.1131  0.5636 -0.4301
 7115TIP3    H242837   5.612   0.726  15.806  0.4926 -0.5206 -0.3903
 7116TIP3   OH242838   6.061   1.544  12.244 -0.0008 -0.2028 -0.4111
 7116TIP3    H142839   6.147   1.521  12.211  0.5876  1.1188  0.1279
 7116TIP3    H242840   6.067   1.534  12.339  0.1675  1.6370 -0.1808
 7117TIP3   OH242841   4.028   5.936  13.401 -0.0519  0.0149  0.2019
 7117TIP3    H142842   4.027   5.929  13.497 -1.0943 -2.8527  0.0629
 7117TIP3    H242843   3.936   5.938  13.376  0.2140  0.3279 -0.7684
 7118TIP3   OH242844   5.675   1.519   1.671  0.1918 -0.1799 -0.7073
 7118TIP3    H142845   5.591   1.553   1.702  0.3689 -0.2273 -0.1733
 7118TIP3    H242846   5.729   1.597   1.656  0.4915 -0.2047  0.2119
 7119TIP3   OH242847   2.482   5.186   0.128  0.4330  0.0556 -0.2470
 7119TIP3    H142848   2.573   5.162   0.148  0.2730 -0.2065  0.1667
 7119TIP3    H242849   2.458   5.128   0.056  0.4712 -0.1240 -0.1143
 7120TIP3   OH242850   0.841   4.423  14.999 -0.6576  0.1747  0.3148
 7120TIP3    H142851   0.910   4.359  14.983  0.1219  1.4538 -1.9705
 7120TIP3    H242852   0.783   4.416  14.923 -1.4898  1.0241  0.8384
 7121TIP3   OH242853   3.174   6.679   4.972  0.1219  0.1492  0.6832
 7121TIP3    H142854   3.252   6.624   4.979  0.0715 -0.1688 -0.9041
 7121TIP3    H242855   3.102   6.624   5.002  0.2030 -0.3544 -0.0227
 7122TIP3   OH242856   0.278   4.009   4.499  0.0920 -0.2466  0.5616
 7122TIP3    H142857   0.209   4.060   4.541  0.2224 -0.7998  1.4762
 7122TIP3    H242858   0.346   4.073   4.478 -0.1991  0.1189  0.7191
 7123TIP3   OH242859   3.579   4.263   1.966  0.6595 -0.1417 -0.1962
 7123TIP3    H142860   3.657   4.313   1.992  1.7472 -1.5648 -0.6009
 7123TIP3    H242861   3.578   4.189   2.027 -0.7333  0.1625  0.1753
 7124TIP3   OH242862   0.526   6.671  16.163 -0.2237  0.0058 -0.1211
 7124TIP3    H142863   0.580   6.608  16.211 -0.4276 -0.1074 -0.0413
 7124TIP3    H242864   0.584   6.705  16.095 -0.7789 -1.9952 -1.7117
 7125TIP3   OH242865   3.748   3.360  12.535  0.5494 -0.2276 -1.3696
 7125TIP3    H142866   3.712   3.420  12.470 -1.4522  0.7326  0.5188
 7125TIP3    H242867   3.801   3.415  12.593  1.9541 -0.9966 -1.8552
 7126TIP3   OH242868   6.740   2.158  11.284 -0.2461  0.4511  0.3744
 7126TIP3    H142869   6.676   2.092  11.312  0.0699 -0.3820 -0.8104
 7126TIP3    H242870   6.820   2.137  11.333  0.3325 -1.0547 -1.1411
 7127TIP3   OH242871   3.149   1.237   1.170  0.4096 -0.5144  0.4173
 7127TIP3    H142872   3.155   1.206   1.260 -0.4345 -2.0392 -0.0215
 7127TIP3    H242873   3.238   1.265   1.148  1.3959 -3.1567  0.6878
 7128TIP3   OH242874   2.265   0.793   5.979 -0.1053 -0.5681  0.3936
 7128TIP3    H142875   2.349   0.782   6.023  1.1871  0.1200 -1.7712
 7128TIP3    H242876   2.270   0.736   5.903 -0.7374  0.9846 -0.8699
 7129TIP3   OH242877   4.974   3.274  15.277 -0.6034  0.0199 -0.0760
 7129TIP3    H142878   4.997   3.223  15.200  1.0516 -0.5960  0.7828
 7129TIP3    H242879   5.053   3.275  15.331 -1.5045  0.9808  1.3241
 7130TIP3   OH242880   3.406   6.010  13.911  0.7247  0.5885  0.4027
 7130TIP3    H142881   3.348   5.980  13.981  1.5302 -0.0807  0.7929
 7130TIP3    H242882   3.418   6.103  13.929 -1.4768  1.1352 -0.5897
 7131TIP3   OH242883   5.093   2.317   3.020 -0.1622  0.2067 -0.0814
 7131TIP3    H142884   5.003   2.305   2.989  0.1015  1.4813 -1.4653
 7131TIP3    H242885   5.083   2.340   3.113 -1.3632  1.4026 -0.4710
 7132TIP3   OH242886   3.384   3.318  14.811 -0.0361 -0.4861 -0.0704
 7132TIP3    H142887   3.400   3.407  14.780  0.2317 -0.6157 -0.3165
 7132TIP3    H242888   3.290   3.305  14.798 -0.1538 -0.0942  0.3631
 7133TIP3   OH242889   4.897   2.128  17.105  0.2553 -0.3538 -0.0396
 7133TIP3    H142890   4.981   2.121  17.059  0.5648 -1.0430  0.6200
 7133TIP3    H242891   4.841   2.063  17.062  0.6574 -1.2630  0.7721
 7134TIP3   OH242892   6.700   0.505  12.800  0.0350  0.3600  0.0787
 7134TIP3    H142893   6.642   0.557  12.744 -1.1953  0.4524  1.3624
 7134TIP3    H242894   6.786   0.510  12.759 -0.8762  0.1617 -1.9515
 7135TIP3   OH242895   1.421   5.147   5.410  0.5064  0.9317  0.0127
 7135TIP3    H142896   1.343   5.091   5.407  1.0132  0.2599 -1.2658
 7135TIP3    H242897   1.466   5.120   5.490  1.0851 -1.0020 -0.9084
 7136TIP3   OH242898   3.339   4.658   2.393  0.1012  0.0851  0.0866
 7136TIP3    H142899   3.299   4.691   2.313  1.3973  2.3277  0.2951
 7136TIP3    H242900   3.403   4.593   2.363  0.4021  0.7223 -0.6798
 7137TIP3   OH242901   5.473   1.373   0.034 -0.4177  0.7970  0.2809
 7137TIP3    H142902   5.488   1.330   0.118 -0.5351 -0.0878 -0.1426
 7137TIP3    H242903   5.380   1.359   0.016 -0.0738 -0.3541 -0.7076
 7138TIP3   OH242904   5.452   1.634  17.002 -0.5441  0.0621 -0.2508
 7138TIP3    H142905   5.498   1.594  17.075  0.4543  2.6101  0.6002
 7138TIP3    H242906   5.435   1.561  16.942  3.4482 -1.2774 -0.0434
 7139TIP3   OH242907   3.501   4.064  10.481 -0.0448  0.1973 -0.3397
 7139TIP3    H142908   3.515   4.126  10.552 -2.6584  0.1075  0.3846
 7139TIP3    H242909   3.583   4.017  10.472  1.3676  2.3710  0.4438
 7140TIP3   OH242910   3.379   6.603  14.286 -0.1568 -0.1923 -0.1723
 7140TIP3    H142911   3.344   6.682  14.245 -0.3227  0.4905  1.2240
 7140TIP3    H242912   3.344   6.605  14.375  2.9528  0.2341  1.1595
 7141TIP3   OH242913   1.396   3.634  14.545 -0.5900  0.2631  0.5061
 7141TIP3    H142914   1.357   3.606  14.462  0.0292 -0.9403  0.5994
 7141TIP3    H242915   1.380   3.729  14.548 -0.2752  0.3991 -1.1720
 7142TIP3   OH242916   2.014   3.501  11.194 -0.1140 -0.4049  0.0516
 7142TIP3    H142917   2.032   3.491  11.100  0.8846  0.0728  0.1775
 7142TIP3    H242918   1.956   3.578  11.199 -2.7014 -2.1831 -0.3915
 7143TIP3   OH242919   0.093   6.780  17.218 -0.4099  0.4235  0.8066
 7143TIP3    H142920   0.118   6.868  17.190  0.5731 -0.1429 -0.2087
 7143TIP3    H242921   0.018   6.793  17.275  0.0328  1.9547  1.0816
 7144TIP3   OH242922   2.389   1.923  14.441 -0.1246 -0.5813  0.1881
 7144TIP3    H142923   2.462   1.967  14.484 -1.5037  1.3263  0.7270
 7144TIP3    H242924   2.315   1.983  14.452 -1.7212 -2.3008 -0.5631
 7145TIP3   OH242925   0.158   4.165  16.621 -0.1489 -0.3457 -0.0294
 7145TIP3    H142926   0.210   4.185  16.543  0.2177  0.1157  0.3286
 7145TIP3    H242927   0.217   4.180  16.695 -0.8903  0.5627  0.4046
 7146TIP3   OH242928   3.103   0.062  14.463 -0.1804  0.1576 -0.1462
 7146TIP3    H142929   3.162   0.016  14.523 -1.3143  0.1542  0.9997
 7146TIP3    H242930   3.115   0.155  14.484  0.8391  0.3096 -1.2763
 7147TIP3   OH242931   4.350   0.150  11.841 -0.5173  0.3364  0.2130
 7147TIP3    H142932   4.426   0.091  11.843  0.3277  1.4017  1.3601
 7147TIP3    H242933   4.344   0.176  11.750  0.4597  0.1663  0.0787
 7148TIP3   OH242934   0.034   5.701   3.104  0.1688  0.3421  0.2187
 7148TIP3    H142935  -0.007   5.760   3.041 -1.4716 -0.3539  0.5860
 7148TIP3    H242936   0.116   5.674   3.061 -0.1507  1.0840 -0.9183
 7149TIP3   OH242937   3.483   5.999  16.450 -0.2996  0.5063  0.5054
 7149TIP3    H142938   3.416   6.055  16.492 -0.3134  2.3328 -1.7637
 7149TIP3    H242939   3.563   6.016  16.500 -1.2793 -1.1846  2.8273
 7150TIP3   OH242940   5.467   1.145   3.489 -0.0639 -0.2513  0.2857
 7150TIP3    H142941   5.465   1.228   3.537  1.4085 -0.3585  0.5477
 7150TIP3    H242942   5.415   1.163   3.410 -2.4049 -0.0256  1.7521
 7151TIP3   OH242943   0.803   5.795  16.786 -0.5462  0.1702 -0.2451
 7151TIP3    H142944   0.771   5.881  16.814 -1.7075 -0.1731 -0.4529
 7151TIP3    H242945   0.874   5.774  16.847 -1.1740  0.6627  0.6661
 7152TIP3   OH242946   1.440   5.402   0.873 -0.2119 -0.3127 -0.0030
 7152TIP3    H142947   1.375   5.355   0.923 -0.1794 -0.0893  0.2515
 7152TIP3    H242948   1.401   5.413   0.786  0.0531 -1.3860 -0.2667
 7153TIP3   OH242949   2.820   3.495  14.450  0.2966 -0.2450 -0.1737
 7153TIP3    H142950   2.865   3.497  14.366 -0.1276  0.1618 -0.3956
 7153TIP3    H242951   2.798   3.403  14.463  2.0736 -0.6355  0.4301
 7154TIP3   OH242952   2.983   5.746  12.657 -0.1002 -0.3381  0.6392
 7154TIP3    H142953   2.977   5.780  12.746  0.0289  0.1126  0.4731
 7154TIP3    H242954   3.069   5.773  12.626  0.5618 -1.9122  0.9632
 7155TIP3   OH242955   5.039   4.576  11.516 -0.3158 -0.1497 -0.2728
 7155TIP3    H142956   4.972   4.509  11.526  0.8729 -1.2098  0.8800
 7155TIP3    H242957   5.002   4.636  11.451 -1.2390 -2.1152 -1.6681
 7156TIP3   OH242958   3.546   5.535  11.992  0.1995 -0.1937 -0.7994
 7156TIP3    H142959   3.614   5.577  11.939  0.0468  0.0063 -0.8394
 7156TIP3    H242960   3.593   5.472  12.046  0.5368  0.5511 -0.2019
 7157TIP3   OH242961   0.677   2.372   5.283 -0.2904 -0.1028  0.1525
 7157TIP3    H142962   0.735   2.416   5.345 -1.6917 -0.2868  1.6431
 7157TIP3    H242963   0.650   2.441   5.223  0.6906  0.1862  0.0289
 7158TIP3   OH242964   3.494   5.109  16.335 -0.2933  0.2736 -0.6828
 7158TIP3    H142965   3.522   5.017  16.342  0.8614  0.6815  0.4897
 7158TIP3    H242966   3.416   5.106  16.280 -0.9855 -1.5634  0.3050
 7159TIP3   OH242967   1.454   0.881  16.882 -0.5546 -0.1834 -0.5228
 7159TIP3    H142968   1.525   0.818  16.873  0.2619  0.6952 -0.4016
 7159TIP3    H242969   1.374   0.831  16.864  0.1439 -1.0244 -1.3398
 7160TIP3   OH242970   4.728   5.005   0.687 -0.0635  0.4319 -0.6220
 7160TIP3    H142971   4.633   5.006   0.676 -0.0432  0.5352 -0.7962
 7160TIP3    H242972   4.760   5.069   0.624  0.1072  0.5572 -0.4116
 7161TIP3   OH242973   5.839   4.639  13.423 -0.3016  0.3565 -0.1937
 7161TIP3    H142974   5.841   4.586  13.343 -1.2523  0.1875 -0.1216
 7161TIP3    H242975   5.928   4.635  13.457 -0.1171 -0.3617 -0.7371
 7162TIP3   OH242976   1.592   3.201  12.630  0.7675  0.0356  0.3743
 7162TIP3    H142977   1.539   3.239  12.701  0.0323  1.1452 -0.7100
 7162TIP3    H242978   1.681   3.231  12.647  0.2784  1.9979 -0.2027
 7163TIP3   OH242979   4.627   1.785   1.549  0.4824  0.5779  0.0584
 7163TIP3    H142980   4.537   1.781   1.518  0.2269  1.5109  0.6192
 7163TIP3    H242981   4.647   1.696   1.579 -0.1568  0.3039 -0.3203
 7164TIP3   OH242982   2.914   3.938   1.703 -0.3090  0.1594  0.3472
 7164TIP3    H142983   2.944   3.847   1.693 -0.1717  0.1880  0.4961
 7164TIP3    H242984   2.833   3.932   1.754 -0.4467  0.0979  0.1201
 7165TIP3   OH242985   5.412   4.535   1.154  0.2546 -0.0732 -0.3021
 7165TIP3    H142986   5.445   4.468   1.093  0.0816  0.6009 -1.1643
 7165TIP3    H242987   5.473   4.608   1.143 -0.4489  0.4873 -0.5239
 7166TIP3   OH242988   3.566   0.088  16.754  0.4595 -0.3118 -0.2885
 7166TIP3    H142989   3.642   0.029  16.749  0.4175 -0.3196 -0.9356
 7166TIP3    H242990   3.491   0.030  16.759  0.2235 -0.4269 -3.3147
 7167TIP3   OH242991   5.846   4.558  15.098 -0.6768 -0.0321  0.0037
 7167TIP3    H142992   5.802   4.602  15.025 -0.6186  1.3025  0.7501
 7167TIP3    H242993   5.911   4.621  15.128  2.0969 -2.0390 -1.2858
 7168TIP3   OH242994   6.228   2.255  14.893  0.4569 -0.3464 -1.1582
 7168TIP3    H142995   6.189   2.191  14.833  1.1955 -0.4379 -1.5566
 7168TIP3    H242996   6.237   2.335  14.840  0.8713 -0.3495 -1.0967
 7169TIP3   OH242997   6.045   3.163   6.750  0.1566 -0.1045  0.5876
 7169TIP3    H142998   6.100   3.101   6.798  1.1579 -0.0616 -0.4475
 7169TIP3    H242999   6.106   3.232   6.724 -0.8302  1.0588  1.2612
 7170TIP3   OH243000   2.701   3.002  11.956 -0.5423 -0.6343  0.3854
 7170TIP3    H143001   2.725   2.943  11.885  0.5444 -0.7209  0.8062
 7170TIP3    H243002   2.742   3.085  11.933 -0.8023 -0.4544  0.5588
 7171TIP3   OH243003   5.727   3.300   1.155 -0.6382 -0.4857 -0.6905
 7171TIP3    H143004   5.736   3.291   1.250 -2.6715  0.0494 -0.4088
 7171TIP3    H243005   5.790   3.369   1.132  1.5799 -2.2058 -0.1531
 7172TIP3   OH243006   1.886   6.798  14.835 -0.0146  0.2786 -0.0109
 7172TIP3    H143007   1.970   6.834  14.809 -1.0229  2.0364 -1.0446
 7172TIP3    H243008   1.877   6.718  14.784  1.5336 -0.6289  1.0503
 7173TIP3   OH243009   3.109   0.324  14.797  0.0569  0.7073 -0.0399
 7173TIP3    H143010   3.179   0.387  14.811  0.3699  0.2651  0.4549
 7173TIP3    H243011   3.114   0.302  14.704  1.7196 -0.6164  0.3173
 7174TIP3   OH243012   4.542   4.043   1.805  0.3307 -0.2529  0.2599
 7174TIP3    H143013   4.448   4.058   1.796  0.6175  1.9691  0.3226
 7174TIP3    H243014   4.550   3.950   1.826 -2.0165 -0.0586  2.5423
 7175TIP3   OH243015   2.551   2.907  11.625  0.0632  0.7553  0.6915
 7175TIP3    H143016   2.638   2.885  11.659  0.7333 -0.5039 -1.6270
 7175TIP3    H243017   2.501   2.825  11.632 -0.0216  0.6844 -0.5457
 7176TIP3   OH243018   1.868   3.241   4.843 -0.3631 -0.2055 -0.6221
 7176TIP3    H143019   1.883   3.335   4.841  0.2206 -0.2958 -0.6462
 7176TIP3    H243020   1.773   3.232   4.839 -0.3734  0.3401 -2.2406
 7177TIP3   OH243021   6.509   3.274  14.365 -0.1878  0.0964 -0.2737
 7177TIP3    H143022   6.499   3.181  14.345 -1.7699 -0.1162  1.2361
 7177TIP3    H243023   6.484   3.319  14.284 -0.3440 -0.7609 -0.7143
 7178TIP3   OH243024   5.815   0.257  13.863  0.5913  0.1169  0.2021
 7178TIP3    H143025   5.796   0.265  13.769  1.2093 -0.7174  0.0045
 7178TIP3    H243026   5.840   0.346  13.889  0.7544  0.2848 -0.4944
 7179TIP3   OH243027   6.232   0.461  16.129 -0.3798 -0.1645 -0.1942
 7179TIP3    H143028   6.257   0.380  16.085  0.3699  0.0692 -0.2023
 7179TIP3    H243029   6.239   0.529  16.061  0.0730  0.0816  0.0946
 7180TIP3   OH243030   5.632   6.462   4.653 -0.2818  0.9995  0.3918
 7180TIP3    H143031   5.691   6.517   4.705  0.5141  0.6780 -0.1537
 7180TIP3    H243032   5.646   6.373   4.686 -1.2072  1.0471  0.9394
 7181TIP3   OH243033   0.839   5.421   1.968  0.3770 -0.2042 -0.0188
 7181TIP3    H143034   0.854   5.512   1.992  0.5313  0.0533 -1.0539
 7181TIP3    H243035   0.877   5.412   1.881  0.6524 -1.3465  0.2022
 7182TIP3   OH243036   4.046   5.732   4.321  0.0800 -0.1755  0.7421
 7182TIP3    H143037   4.121   5.699   4.370  1.5409  1.6836 -0.1578
 7182TIP3    H243038   4.057   5.696   4.233  0.5497  0.9857  0.3124
 7183TIP3   OH243039   6.637   3.559   1.048 -0.6554  0.3515  0.6331
 7183TIP3    H143040   6.613   3.555   0.956  1.3358  0.4662  0.0562
 7183TIP3    H243041   6.669   3.471   1.069 -0.4778  0.5036  1.0125
 7184TIP3   OH243042   5.108   5.325  17.261  0.1869 -0.0322  0.1726
 7184TIP3    H143043   5.020   5.311  17.295  0.4672 -0.1951  0.8473
 7184TIP3    H243044   5.166   5.301  17.334  0.7709  0.6737 -0.0500
 7185TIP3   OH243045   6.626   1.737  13.257 -0.7931 -0.0405  0.6444
 7185TIP3    H143046   6.685   1.701  13.191 -1.0575  1.4264 -0.4363
 7185TIP3    H243047   6.539   1.730  13.218 -1.0072  0.3891  1.0346
 7186TIP3   OH243048   6.156   6.410  11.461 -0.8625 -0.3656  0.1243
 7186TIP3    H143049   6.238   6.377  11.499 -1.1146  1.8117  2.9047
 7186TIP3    H243050   6.182   6.452  11.380  0.7377 -0.0753  0.7472
 7187TIP3   OH243051   0.123   6.652  13.441 -0.9148  0.0752  0.4062
 7187TIP3    H143052   0.109   6.746  13.449  1.4462  0.6823 -1.4614
 7187TIP3    H243053   0.180   6.629  13.515 -1.2268  0.1423  0.6734
 7188TIP3   OH243054   3.451   5.339   5.486  0.1653 -0.1892 -0.3624
 7188TIP3    H143055   3.530   5.375   5.526  0.6845 -1.9453  0.2970
 7188TIP3    H243056   3.390   5.412   5.482  1.8413  1.2277 -0.9563
 7189TIP3   OH243057   2.865   0.644  11.421 -0.1531 -0.0689 -0.4423
 7189TIP3    H143058   2.856   0.570  11.481 -0.6793  0.2911 -0.0669
 7189TIP3    H243059   2.919   0.611  11.349  0.8489 -0.3855  0.4391
 7190TIP3   OH243060   3.518   4.523  11.911 -0.0297  0.4260  0.2382
 7190TIP3    H143061   3.590   4.575  11.877 -0.2692  0.9537  0.5272
 7190TIP3    H243062   3.556   4.437  11.927  0.8371  1.0238  1.5143
 7191TIP3   OH243063   5.607   3.911  14.639 -0.7312  0.6829  0.4725
 7191TIP3    H143064   5.543   3.850  14.676 -0.1563  1.3044  2.6608
 7191TIP3    H243065   5.645   3.954  14.715  0.0569  2.6056 -0.9313
 7192TIP3   OH243066   3.925   6.524  12.029  0.3884 -0.4418 -0.3659
 7192TIP3    H143067   4.015   6.543  12.055  0.3149  0.5393 -0.7729
 7192TIP3    H243068   3.879   6.507  12.112  0.4784  1.2045  0.0552
 7193TIP3   OH243069   5.633   3.814  14.366  0.6941  0.0852  0.2063
 7193TIP3    H143070   5.651   3.828  14.459  1.1122  0.1090  0.1273
 7193TIP3    H243071   5.645   3.720  14.353  0.1614  0.0072  0.2723
 7194TIP3   OH243072   0.843   1.879   3.394  0.4645 -0.3808  0.7821
 7194TIP3    H143073   0.829   1.786   3.410  0.1827 -0.4255  0.2977
 7194TIP3    H243074   0.768   1.906   3.341 -0.8675  0.7246  3.1190
 7195TIP3   OH243075   6.504   1.838  12.909  1.0470  0.1643  0.0433
 7195TIP3    H143076   6.535   1.919  12.950  1.9750 -0.5501  0.7898
 7195TIP3    H243077   6.573   1.774  12.927  0.7301 -0.5835 -1.2740
 7196TIP3   OH243078   0.788   2.918  12.083 -0.4159  0.0798  0.2802
 7196TIP3    H143079   0.747   2.998  12.051  0.5354  0.4892  0.0599
 7196TIP3    H243080   0.860   2.948  12.139  1.8820 -0.5008 -2.1601
 7197TIP3   OH243081   1.475   4.548   4.065  0.0281  0.2386  0.1997
 7197TIP3    H143082   1.513   4.469   4.104 -0.6928 -0.5296 -0.5990
 7197TIP3    H243083   1.431   4.517   3.985  0.2758  1.5499 -0.4798
 7198TIP3   OH243084   4.563   5.671  14.677 -0.3523  0.1373 -0.2011
 7198TIP3    H143085   4.580   5.762  14.653 -0.8477 -0.3423 -2.6999
 7198TIP3    H243086   4.467   5.665  14.680 -0.3189 -0.0355  1.2669
 7199TIP3   OH243087   4.721   2.853   0.876  0.4844 -0.3412 -0.2239
 7199TIP3    H143088   4.684   2.926   0.925 -1.5267 -1.0784 -0.5185
 7199TIP3    H243089   4.668   2.849   0.796  1.0379 -1.6321 -0.5570
 7200TIP3   OH243090   4.851   4.123   5.413 -0.2525 -0.0074  0.2017
 7200TIP3    H143091   4.766   4.128   5.368 -1.8619 -1.2027  2.8538
 7200TIP3    H243092   4.876   4.031   5.405 -0.1952 -0.0726  1.0793
 7201TIP3   OH243093   1.761   1.376  12.201 -0.1311 -0.3177 -0.0037
 7201TIP3    H143094   1.666   1.366  12.195  0.0777 -2.8117 -0.4124
 7201TIP3    H243095   1.780   1.372  12.295 -0.5045  1.5506  0.1770
 7202TIP3   OH243096   5.470   2.241  13.199 -0.1926  0.6912  0.0289
 7202TIP3    H143097   5.470   2.222  13.105  0.3362 -0.9918  0.3380
 7202TIP3    H243098   5.403   2.182  13.235  0.6116  0.2895  0.8937
 7203TIP3   OH243099   3.808   2.261   6.306  0.3092  0.3129 -0.3142
 7203TIP3    H143100   3.830   2.246   6.398  0.4486  1.3558 -0.1687
 7203TIP3    H243101   3.742   2.195   6.286 -0.2346  0.5226  0.7317
 7204TIP3   OH243102   5.876   0.183   3.711  0.2489 -0.2705 -0.4070
 7204TIP3    H143103   5.825   0.127   3.652  0.2957 -2.2683  1.3327
 7204TIP3    H243104   5.963   0.143   3.714 -0.0986 -1.0344  1.9181
 7205TIP3   OH243105   3.622   5.528   5.600  0.3361  0.0836 -0.0443
 7205TIP3    H143106   3.624   5.611   5.647  1.1339  1.2093 -1.9361
 7205TIP3    H243107   3.696   5.533   5.539  2.5044 -3.3772  1.9244
 7206TIP3   OH243108   3.894   0.898   0.997 -0.2465  0.5627 -0.2680
 7206TIP3    H143109   3.801   0.908   1.020 -0.3878 -0.0329 -0.5726
 7206TIP3    H243110   3.940   0.921   1.077 -0.6801  0.3362  0.0540
 7207TIP3   OH243111   5.379   2.380  11.024 -0.4559  0.0592  0.3362
 7207TIP3    H143112   5.411   2.439  10.956 -1.2779  2.7963  2.1639
 7207TIP3    H243113   5.293   2.352  10.993 -0.7008  1.0354  0.1211
 7208TIP3   OH243114   0.686   0.033   2.251  0.3221 -0.1601 -0.2151
 7208TIP3    H143115   0.704   0.088   2.327  1.6907 -0.7255 -0.0871
 7208TIP3    H243116   0.771   0.026   2.206  0.0054 -1.4928 -0.6640
 7209TIP3   OH243117   5.818   4.442  15.472 -0.4823  0.3528 -0.4996
 7209TIP3    H143118   5.882   4.380  15.508 -1.2644  0.5935  1.4094
 7209TIP3    H243119   5.798   4.408  15.385  1.7647 -0.0685 -0.9138
 7210TIP3   OH243120   2.730   4.482   1.343 -0.2059  0.4967 -0.4162
 7210TIP3    H143121   2.758   4.449   1.257  2.8238 -1.1293  1.0321
 7210TIP3    H243122   2.754   4.575   1.341  3.6516 -0.3147 -0.1261
 7211TIP3   OH243123   5.120   4.238  10.992 -0.1202 -0.1741  0.7306
 7211TIP3    H143124   5.126   4.303  10.922  0.4157  1.6485  2.3789
 7211TIP3    H243125   5.045   4.184  10.969  0.0511  0.3574 -1.2228
 7212TIP3   OH243126   0.707   2.466  12.673 -0.0191 -0.1401  0.1146
 7212TIP3    H143127   0.735   2.557  12.684 -2.2456  0.3406  3.4433
 7212TIP3    H243128   0.659   2.465  12.590 -0.0309  1.7589  0.0588
 7213TIP3   OH243129   4.625   4.966   2.529  0.0325 -0.0342  0.7154
 7213TIP3    H143130   4.712   4.946   2.566 -0.8910 -1.5274  2.2433
 7213TIP3    H243131   4.607   5.055   2.558  1.0047  0.2457  0.4871
 7214TIP3   OH243132   4.359   5.785   6.580  0.0916 -0.1510 -0.4927
 7214TIP3    H143133   4.314   5.701   6.569  0.7859 -0.6501  0.4301
 7214TIP3    H243134   4.449   5.769   6.551  1.2768 -0.8096  3.1023
 7215TIP3   OH243135   1.547   6.652  11.521 -0.0087 -0.0436 -0.2891
 7215TIP3    H143136   1.460   6.678  11.490 -0.1314  1.8092  1.4524
 7215TIP3    H243137   1.561   6.565  11.482 -2.5812 -0.3471 -0.6865
 7216TIP3   OH243138   1.038   1.392  13.945  0.3836 -0.0381 -0.0614
 7216TIP3    H143139   0.988   1.469  13.918  1.7445  0.3754 -1.5448
 7216TIP3    H243140   1.114   1.391  13.887  0.7338 -2.1488  0.3485
 7217TIP3   OH243141   4.729   5.658   1.048 -0.5998 -0.4050  0.1780
 7217TIP3    H143142   4.743   5.753   1.047 -1.9827 -0.1887 -0.7195
 7217TIP3    H243143   4.758   5.631   1.136  1.1879  0.5898 -0.0524
 7218TIP3   OH243144   4.038   6.803   5.296  0.0488 -0.1251 -0.5038
 7218TIP3    H143145   3.956   6.781   5.252 -0.5067  0.5038  0.2078
 7218TIP3    H243146   4.088   6.852   5.230  0.7459 -2.2424 -1.6548
 7219TIP3   OH243147   1.439   0.066   1.611  0.3597 -0.7437  0.6084
 7219TIP3    H143148   1.350   0.031   1.610 -1.0248  2.3853  0.8624
 7219TIP3    H243149   1.446   0.118   1.531  2.9802 -2.9016 -0.7435
 7220TIP3   OH243150   1.385   1.675  16.691  0.0290 -0.5228 -0.7934
 7220TIP3    H143151   1.319   1.636  16.748  1.6991 -2.2071  0.0881
 7220TIP3    H243152   1.428   1.741  16.746 -0.1054 -0.2758 -0.9812
 7221TIP3   OH243153   3.227   0.834   3.095 -0.0795 -0.0392 -0.5599
 7221TIP3    H143154   3.147   0.798   3.134  0.1223  2.4419  2.5481
 7221TIP3    H243155   3.297   0.803   3.152  0.6692  1.1350 -0.8208
 7222TIP3   OH243156   3.123   1.352  11.566 -0.1948 -0.2257  0.5842
 7222TIP3    H143157   3.096   1.308  11.647  1.4715 -1.0835  0.7269
 7222TIP3    H243158   3.213   1.321  11.551  0.5893  2.1398 -0.0530
 7223TIP3   OH243159   2.726   4.495   0.563 -0.3081 -0.0288 -0.1785
 7223TIP3    H143160   2.634   4.499   0.591 -0.0946 -0.3658  0.5964
 7223TIP3    H243161   2.761   4.418   0.608 -0.6121 -2.3114 -3.4453
 7224TIP3   OH243162   5.385   1.214  13.171 -0.6475  0.0895 -0.1838
 7224TIP3    H143163   5.295   1.189  13.189 -0.5413  1.0863  2.0790
 7224TIP3    H243164   5.400   1.293  13.224  1.2133  0.6042 -1.3683
 7225TIP3   OH243165   0.359   3.002  17.165  0.1246 -1.1283 -0.7462
 7225TIP3    H143166   0.337   2.965  17.251 -0.9160  1.8346  0.4023
 7225TIP3    H243167   0.275   3.027  17.128  0.7776  1.7164 -0.5477
 7226TIP3   OH243168   1.997   4.509  11.505  0.0536  0.3231 -0.7413
 7226TIP3    H143169   2.006   4.541  11.595  0.3932 -0.2314 -0.5769
 7226TIP3    H243170   1.920   4.555  11.472 -1.1395 -0.7385  0.4069
 7227TIP3   OH243171   3.872   6.149  12.852 -0.2440  0.3393  0.0364
 7227TIP3    H143172   3.852   6.238  12.881 -0.3760  0.0467  0.8620
 7227TIP3    H243173   3.853   6.149  12.758  0.6098  1.4221 -0.1558
 7228TIP3   OH243174   4.365   4.845   6.089  0.6398 -0.4995 -0.2041
 7228TIP3    H143175   4.445   4.856   6.140 -1.4797  0.3855  3.3555
 7228TIP3    H243176   4.321   4.770   6.130 -0.0576 -1.4614 -2.5656
 7229TIP3   OH243177   3.003   5.026  16.647 -0.1770 -0.0782  0.7359
 7229TIP3    H143178   3.048   4.995  16.569 -0.5017  2.0799 -0.3751
 7229TIP3    H243179   2.930   5.079  16.614 -1.6205 -0.8411  2.5041
 7230TIP3   OH243180   5.598   6.642  10.988 -0.1871  0.1796 -0.1221
 7230TIP3    H143181   5.593   6.701  11.064  0.7137  1.3846 -0.9439
 7230TIP3    H243182   5.637   6.562  11.022 -2.4215 -0.4081  1.2560
 7231TIP3   OH243183   3.287   3.868  13.253 -0.2593 -0.2327 -0.0127
 7231TIP3    H143184   3.200   3.899  13.228 -0.0349  0.8232  0.4480
 7231TIP3    H243185   3.312   3.923  13.327 -0.1504 -2.0833  1.3899
 7232TIP3   OH243186   4.754   0.996  16.944 -0.1183 -0.0188  0.7351
 7232TIP3    H143187   4.737   1.043  17.025 -0.1335 -0.0827  0.7697
 7232TIP3    H243188   4.698   1.039  16.879 -0.4039 -0.2176  0.8432
 7233TIP3   OH243189   5.908   0.194  15.330 -0.7750 -0.9528 -0.2967
 7233TIP3    H143190   5.933   0.212  15.421  1.5847 -2.0604 -0.6291
 7233TIP3    H243191   5.814   0.211  15.327 -0.2469  3.4926  1.2139
 7234TIP3   OH243192   6.631   1.884  11.142  0.8200  0.3985 -0.2288
 7234TIP3    H143193   6.695   1.818  11.167 -0.9375 -0.6369  1.8342
 7234TIP3    H243194   6.641   1.892  11.047  2.0328 -1.7817 -0.3469
 7235TIP3   OH243195   6.184   4.904  12.625 -0.2444  0.8774 -0.0496
 7235TIP3    H143196   6.263   4.871  12.582 -0.5944 -0.8230  0.5369
 7235TIP3    H243197   6.205   4.995  12.646  1.4346  0.5614 -0.1821
 7236TIP3   OH243198   2.790   1.552  11.540  0.1750  0.3287 -0.0858
 7236TIP3    H143199   2.877   1.538  11.502 -0.6829  1.2051 -2.5908
 7236TIP3    H243200   2.750   1.465  11.540  0.9661 -0.0500  0.9178
 7237TIP3   OH243201   4.434   4.912   2.334 -0.3776  0.1072 -0.2010
 7237TIP3    H143202   4.497   4.944   2.398 -0.2737 -1.2325  0.4082
 7237TIP3    H243203   4.414   4.823   2.363 -0.0810 -0.6659 -2.2110
 7238TIP3   OH243204   1.455   0.892  12.355 -0.0402  0.3182  0.1268
 7238TIP3    H143205   1.550   0.882  12.356 -0.1909 -1.5111  0.9174
 7238TIP3    H243206   1.427   0.861  12.441 -1.4805 -1.0470 -0.7743
 7239TIP3   OH243207   5.112   5.894  11.227  0.0692 -0.5515  0.0742
 7239TIP3    H143208   5.121   5.804  11.259  1.0738 -0.8636 -0.9739
 7239TIP3    H243209   5.099   5.947  11.305 -0.6869 -1.6202  0.6993
 7240TIP3   OH243210   2.936   1.546   6.145  0.0883  0.1025  0.4405
 7240TIP3    H143211   2.846   1.573   6.128  1.1332  2.8622 -1.3487
 7240TIP3    H243212   2.955   1.580   6.232  0.2941  2.3008 -0.4072
 7241TIP3   OH243213   0.410   4.924  10.527 -0.4124 -0.0234  1.0313
 7241TIP3    H143214   0.367   4.993  10.476  0.1864  0.5367  1.2762
 7241TIP3    H243215   0.404   4.954  10.617  0.0291 -0.1954  1.1204
 7242TIP3   OH243216   5.370   6.157   6.279  0.0371  0.2531  0.8540
 7242TIP3    H143217   5.322   6.107   6.345  0.1555  0.3775  1.0364
 7242TIP3    H243218   5.441   6.100   6.252 -0.4822 -0.1147  0.2438
 7243TIP3   OH243219   6.138   6.778  13.142  0.1244 -0.5891 -0.5323
 7243TIP3    H143220   6.166   6.714  13.207  0.4103  0.8299  0.8001
 7243TIP3    H243221   6.138   6.730  13.059  4.0341 -1.4097 -0.2512
 7244TIP3   OH243222   4.764   1.287  13.276  0.6089  0.1662  0.1487
 7244TIP3    H143223   4.719   1.347  13.216  1.0618  0.3273 -0.0369
 7244TIP3    H243224   4.834   1.340  13.315 -0.4360  0.4181  1.7782
 7245TIP3   OH243225   5.101   0.002   3.741  0.3617 -0.2006 -0.3846
 7245TIP3    H143226   5.119   0.089   3.704  1.2441 -0.7399 -1.2897
 7245TIP3    H243227   5.079  -0.052   3.665  2.5517 -1.4214 -0.2264
 7246TIP3   OH243228   1.562   6.781  15.206 -0.0880  0.2389  0.4197
 7246TIP3    H143229   1.491   6.785  15.141  0.3266 -1.1921 -0.1577
 7246TIP3    H243230   1.642   6.786  15.155  0.2719  2.0942  1.0916
 7247TIP3   OH243231   1.661   5.861  14.540 -0.2959  0.1201  0.8846
 7247TIP3    H143232   1.677   5.950  14.508 -0.9483  0.4531  1.4580
 7247TIP3    H243233   1.749   5.825  14.555 -0.0322  0.7866  0.9659
 7248TIP3   OH243234   4.818   6.385   6.011  0.6124  0.6442 -0.1884
 7248TIP3    H143235   4.853   6.416   6.095  1.1377 -0.7034  0.1113
 7248TIP3    H243236   4.854   6.297   6.001 -1.1934 -0.0719 -0.7844
 7249TIP3   OH243237   0.342   0.226  16.161 -0.6069  0.0056  0.2049
 7249TIP3    H143238   0.308   0.180  16.084  3.7380 -4.0227  0.2156
 7249TIP3    H243239   0.421   0.270  16.129 -0.8034  1.5540  1.7175
 7250TIP3   OH243240   6.062   4.293  14.594  0.3666 -0.3195 -0.3770
 7250TIP3    H143241   5.967   4.302  14.595  0.5212  1.9089 -0.2576
 7250TIP3    H243242   6.083   4.250  14.677 -0.5301 -0.5910 -0.2854
 7251TIP3   OH243243   2.968   1.827  14.303  0.2349  0.1592 -0.3201
 7251TIP3    H143244   3.010   1.767  14.365  2.3669 -0.2128 -1.9987
 7251TIP3    H243245   2.922   1.769  14.242  0.6010  0.3198 -0.7581
 7252TIP3   OH243246   3.897   5.175  16.995 -0.6005 -0.5293 -0.1639
 7252TIP3    H143247   3.941   5.092  16.977 -0.3516 -0.2337 -0.9931
 7252TIP3    H243248   3.899   5.184  17.090 -2.3218 -2.3890  0.1173
 7253TIP3   OH243249   0.977   1.881  12.303 -0.8330 -0.0134  0.3464
 7253TIP3    H143250   0.962   1.793  12.337  1.3009 -0.1696  1.0291
 7253TIP3    H243251   1.024   1.926  12.373  1.2874  0.4955 -1.2889
 7254TIP3   OH243252   2.015   5.947   0.987  0.3251 -0.0886 -0.4577
 7254TIP3    H143253   2.069   6.026   0.982  0.0164  0.0443 -1.9649
 7254TIP3    H243254   1.935   5.976   1.032  0.5390  0.2577 -0.2925
 7255TIP3   OH243255   0.714   2.783  17.170  0.5478 -0.4760  0.4426
 7255TIP3    H143256   0.757   2.815  17.090 -2.5934 -0.7782 -1.5381
 7255TIP3    H243257   0.689   2.862  17.218 -0.6953 -0.1361 -0.7209
 7256TIP3   OH243258   5.480   1.134   4.099  0.2745  0.2299 -0.4572
 7256TIP3    H143259   5.510   1.043   4.097 -0.9236 -0.1936 -0.5038
 7256TIP3    H243260   5.385   1.127   4.113  0.1036  1.4607 -0.8809
 7257TIP3   OH243261   5.649   5.619  15.563  0.0989  0.3677 -0.1168
 7257TIP3    H143262   5.597   5.618  15.483 -0.6763  2.0750  0.3158
 7257TIP3    H243263   5.607   5.556  15.621 -0.0110 -0.0505 -0.6505
 7258TIP3   OH243264   3.698   5.705  13.447  0.0730  0.3720 -0.5714
 7258TIP3    H143265   3.716   5.699  13.353 -2.4085  0.9276 -1.1425
 7258TIP3    H243266   3.698   5.799  13.466  2.8679  0.2474  0.5649
 7259TIP3   OH243267   6.085   3.916   3.262  0.2961  0.2581  0.4192
 7259TIP3    H143268   6.164   3.954   3.223 -0.8066  1.3782 -0.7984
 7259TIP3    H243269   6.103   3.916   3.356  1.4629  1.1771  0.2221
 7260TIP3   OH243270   3.180   5.637  13.530  0.3087 -0.0175  0.1889
 7260TIP3    H143271   3.110   5.605  13.473 -0.2380  1.0776  0.2145
 7260TIP3    H243272   3.153   5.726  13.553  1.8135  0.4924  0.0486
 7261TIP3   OH243273   4.564   1.103  13.298  0.5285  0.3285 -0.0168
 7261TIP3    H143274   4.583   1.022  13.251 -1.5553  0.4142 -1.1421
 7261TIP3    H243275   4.649   1.146  13.308  1.5254 -1.4618 -0.3704
 7262TIP3   OH243276   1.016   1.670   4.083 -0.4581 -0.2418  0.0099
 7262TIP3    H143277   1.082   1.740   4.092 -1.3347  0.3399  3.6992
 7262TIP3    H243278   1.066   1.589   4.090  0.0950  0.1682  1.1300
 7263TIP3   OH243279   3.058   0.632   1.509 -0.1429 -0.5782 -0.0779
 7263TIP3    H143280   3.061   0.667   1.420  0.1256 -3.1380 -1.1548
 7263TIP3    H243281   3.048   0.709   1.564  2.5813  1.4441 -2.0832
 7264TIP3   OH243282   0.407   4.287  12.387 -0.3099  0.5036  0.0239
 7264TIP3    H143283   0.494   4.308  12.421  0.7511  0.7626 -2.6560
 7264TIP3    H243284   0.423   4.240  12.305 -2.7100 -1.7159  0.6690
 7265TIP3   OH243285   4.135   1.352   4.034  0.0119  0.3024  0.3557
 7265TIP3    H143286   4.128   1.258   4.019  0.4609  0.3529 -0.1867
 7265TIP3    H243287   4.113   1.363   4.127 -0.6330 -0.2627  0.2750
 7266TIP3   OH243288   5.479   0.685  16.312  0.1990 -0.3796  0.3291
 7266TIP3    H143289   5.395   0.660  16.275  0.0659 -0.9166  0.9627
 7266TIP3    H243290   5.509   0.758  16.258 -0.6367 -0.2320  0.0492
 7267TIP3   OH243291   0.140   4.774   2.382 -0.0424  0.3079 -0.4480
 7267TIP3    H143292   0.057   4.796   2.424 -0.0779  1.7717 -1.2422
 7267TIP3    H243293   0.196   4.851   2.396  0.8906 -0.3046 -0.6872
 7268TIP3   OH243294   3.253   3.745  14.341  0.4987  0.3988 -0.0410
 7268TIP3    H143295   3.249   3.820  14.400  3.0755 -0.0042  0.7540
 7268TIP3    H243296   3.216   3.673  14.392  1.2531  0.3930  0.5087
 7269TIP3   OH243297   6.007   2.658   5.013  0.3746 -0.0347 -0.2339
 7269TIP3    H143298   6.025   2.728   5.076  2.7277 -0.2843 -0.5135
 7269TIP3    H243299   5.954   2.700   4.946 -0.2926  0.8239  0.7992
 7270TIP3   OH243300   4.778   5.968  13.484  0.1468  0.2132  0.1116
 7270TIP3    H143301   4.800   5.891  13.431  1.4238  0.9978 -0.5492
 7270TIP3    H243302   4.758   5.933  13.571 -0.9058 -1.0008 -0.5797
 7271TIP3   OH243303   1.858   0.217   1.171  1.1508  0.5963  0.3622
 7271TIP3    H143304   1.832   0.127   1.192 -1.5206  1.4850  1.3258
 7271TIP3    H243305   1.830   0.229   1.080 -0.9317  1.1520  1.0082
 7272TIP3   OH243306   2.097   4.158  12.459  0.1818  0.6271 -0.0179
 7272TIP3    H143307   2.171   4.211  12.427  1.1182 -0.2117  0.6862
 7272TIP3    H243308   2.126   4.127  12.545 -0.8253 -0.0745  0.0826
 7273TIP3   OH243309   0.394   1.792  15.235 -0.5401 -0.1079  0.0288
 7273TIP3    H143310   0.364   1.875  15.272 -0.6306  0.0315 -0.3514
 7273TIP3    H243311   0.475   1.815  15.189  0.0095 -0.4283  0.8083
 7274TIP3   OH243312   3.766   2.366   1.524  0.8525  0.2160  0.3370
 7274TIP3    H143313   3.745   2.457   1.543  0.5656  0.6535 -1.8335
 7274TIP3    H243314   3.681   2.323   1.512  0.9596 -0.5408  2.0718
 7275TIP3   OH243315   6.468   5.932   2.407  0.0343 -0.2234 -0.1130
 7275TIP3    H143316   6.523   5.855   2.398 -0.8702 -1.4032  3.0027
 7275TIP3    H243317   6.384   5.907   2.368  0.2385 -0.1990 -0.5705
 7276TIP3   OH243318   0.351   3.524  13.639  0.3297 -0.1678 -0.0992
 7276TIP3    H143319   0.286   3.516  13.569  1.1770  1.7713 -1.1955
 7276TIP3    H243320   0.323   3.601  13.689  0.6832 -0.5207  0.6549
 7277TIP3   OH243321   0.758   1.725  16.063 -0.0130 -0.7292  0.5797
 7277TIP3    H143322   0.767   1.636  16.029  0.0551 -0.2913 -0.6115
 7277TIP3    H243323   0.800   1.722  16.149  1.8510 -1.3840 -0.2806
 7278TIP3   OH243324   5.349   5.368  13.602 -0.2067  0.0433  0.2259
 7278TIP3    H143325   5.292   5.300  13.638  1.2476 -1.0962  0.4870
 7278TIP3    H243326   5.362   5.429  13.675 -1.1678  0.3949  0.1208
 7279TIP3   OH243327   1.224   4.124   2.725  0.3779  0.0993  0.1187
 7279TIP3    H143328   1.230   4.146   2.632  0.8953 -0.8166 -0.0758
 7279TIP3    H243329   1.130   4.122   2.743  0.2856  1.3093 -0.1110
 7280TIP3   OH243330   0.741   4.546   0.459  0.3471 -0.2161 -0.0284
 7280TIP3    H143331   0.672   4.604   0.426  1.5712  0.4659 -1.5415
 7280TIP3    H243332   0.742   4.562   0.554  0.9016  2.5998 -0.4124
 7281TIP3   OH243333   5.819   0.688   5.254 -0.4766  0.2430 -0.5837
 7281TIP3    H143334   5.847   0.614   5.199 -1.4945 -1.2225  0.7791
 7281TIP3    H243335   5.728   0.703   5.229  0.0647  1.8925 -1.7076
 7282TIP3   OH243336   4.085   3.603  16.253  0.3732 -0.0004  0.3626
 7282TIP3    H143337   4.039   3.532  16.207 -0.1757  0.7301 -0.2449
 7282TIP3    H243338   4.036   3.682  16.229 -1.6109  0.1719  4.2490
 7283TIP3   OH243339   2.497   0.465  13.047 -0.4022 -0.1607 -0.4954
 7283TIP3    H143340   2.446   0.429  13.120 -1.3721  3.1634  0.6644
 7283TIP3    H243341   2.451   0.437  12.969  0.4892 -3.5813  0.0330
 7284TIP3   OH243342   1.947   6.736  13.021  0.2275  0.1715  0.3431
 7284TIP3    H143343   1.954   6.822  13.061  0.6600 -0.5970  1.9983
 7284TIP3    H243344   1.965   6.674  13.092 -2.3958 -1.3712 -0.1907
 7285TIP3   OH243345   1.001   6.041  13.658  0.1174 -0.0828 -0.0577
 7285TIP3    H143346   1.024   5.958  13.617  0.4464  0.7537 -1.6803
 7285TIP3    H243347   1.068   6.054  13.725 -0.8395 -1.8315  1.3143
 7286TIP3   OH243348   6.165   0.802   3.083  0.3381  0.1067 -0.2712
 7286TIP3    H143349   6.218   0.752   3.146  0.1074 -0.9273 -0.8817
 7286TIP3    H243350   6.082   0.817   3.128  1.0707  1.7050  0.6806
 7287TIP3   OH243351   2.408   4.874   3.034  0.1621  0.0565  0.6826
 7287TIP3    H143352   2.419   4.784   3.004  0.0873 -0.0667  1.0201
 7287TIP3    H243353   2.366   4.919   2.961  0.5333 -0.0982  0.3777
 7288TIP3   OH243354   3.842   5.319   0.332 -0.1493 -0.2300 -0.0102
 7288TIP3    H143355   3.901   5.248   0.357 -0.1553  0.0987  1.0147
 7288TIP3    H243356   3.870   5.394   0.385 -1.0906  0.0972  0.0539
 7289TIP3   OH243357   0.900   2.169   6.134  0.0971  0.3279 -0.7985
 7289TIP3    H143358   0.889   2.196   6.226 -3.1718 -1.4787 -0.5040
 7289TIP3    H243359   0.948   2.087   6.140 -1.7314 -0.7733 -0.4408
 7290TIP3   OH243360   2.412   3.232   1.269 -0.2459  0.4674 -0.5878
 7290TIP3    H143361   2.469   3.222   1.345 -2.1166 -0.0341  0.8395
 7290TIP3    H243362   2.366   3.148   1.263 -1.3484  1.1012 -1.2086
 7291TIP3   OH243363   4.680   2.823  12.278 -0.1296  0.4631 -0.6777
 7291TIP3    H143364   4.626   2.779  12.212 -0.4091  1.1782 -0.9278
 7291TIP3    H243365   4.770   2.810  12.247 -0.3254  2.4674 -2.2991
 7292TIP3   OH243366   3.921   1.271   6.121 -0.4474 -0.1997  0.2000
 7292TIP3    H143367   4.004   1.299   6.160 -0.4406  0.2141 -0.1082
 7292TIP3    H243368   3.917   1.177   6.139  0.2817 -0.3007 -0.1314
 7293TIP3   OH243369   0.741   1.199  17.268  0.7140  0.0564  0.1166
 7293TIP3    H143370   0.772   1.186  17.358 -0.7838  1.4073  0.8774
 7293TIP3    H243371   0.687   1.278  17.273  0.5164  0.0941 -1.9675
 7294TIP3   OH243372   2.283   5.214  17.005 -0.3078 -0.4358 -0.9928
 7294TIP3    H143373   2.335   5.200  16.925  3.3523 -0.6375  1.2118
 7294TIP3    H243374   2.304   5.139  17.061 -2.6576 -0.2264  0.3127
 7295TIP3   OH243375   3.636   1.974  16.923 -0.5199 -0.0061  0.5217
 7295TIP3    H143376   3.589   1.954  16.841  1.9904 -0.7913 -0.8247
 7295TIP3    H243377   3.658   2.067  16.916 -0.4169 -0.0422  0.3509
 7296TIP3   OH243378   6.006   5.440   5.170  0.1600 -0.0698  0.2141
 7296TIP3    H143379   5.933   5.498   5.191 -0.0386 -0.4383  0.5480
 7296TIP3    H243380   6.004   5.433   5.074  0.7063  1.1404  0.1000
 7297TIP3   OH243381   0.895   1.320   2.528 -0.0375  0.0221  0.1861
 7297TIP3    H143382   0.928   1.386   2.589  2.4087 -0.0230 -0.9590
 7297TIP3    H243383   0.936   1.342   2.444 -0.5587 -1.9125 -0.6329
 7298TIP3   OH243384   2.108   3.933   5.173 -0.2464  0.2307 -0.1557
 7298TIP3    H143385   2.131   3.840   5.169 -0.8046  0.0884 -0.1819
 7298TIP3    H243386   2.038   3.942   5.108 -1.3180  0.3342  0.9766
 7299TIP3   OH243387   4.443   2.925   5.322 -0.0137 -0.2577 -0.0955
 7299TIP3    H143388   4.509   2.884   5.378 -2.2390 -1.6161  1.7263
 7299TIP3    H243389   4.466   2.898   5.233  0.5534 -2.7251  0.7254
 7300TIP3   OH243390   6.745   3.162   4.690 -0.0924 -0.3102 -0.3481
 7300TIP3    H143391   6.699   3.191   4.611  1.9652  0.5793 -1.3095
 7300TIP3    H243392   6.677   3.122   4.744 -1.9279  0.7403 -1.7366
 7301TIP3   OH243393   1.838   1.292   2.193 -0.0473  0.2025 -0.1380
 7301TIP3    H143394   1.822   1.197   2.193 -1.4168  0.3898 -1.6995
 7301TIP3    H243395   1.761   1.330   2.235 -0.7383  0.7436 -1.8226
 7302TIP3   OH243396   5.927   6.304  13.432  0.4563  0.1123  0.1472
 7302TIP3    H143397   5.895   6.214  13.442 -0.2589  0.2084 -1.0684
 7302TIP3    H243398   5.852   6.353  13.400  0.7937  1.2025  0.9507
 7303TIP3   OH243399   0.957   6.562  12.346  0.3799  0.0421 -0.3252
 7303TIP3    H143400   0.959   6.533  12.437 -0.8365  0.1570 -0.2479
 7303TIP3    H243401   1.031   6.622  12.338  0.8834 -0.4735  0.4107
 7304TIP3   OH243402   5.074   1.202  14.819 -0.2348 -0.4937 -0.2045
 7304TIP3    H143403   5.102   1.113  14.797 -1.9638 -0.8074 -1.3220
 7304TIP3    H243404   5.126   1.259  14.763  0.5637 -0.8049  0.1993
 7305TIP3   OH243405   3.799   6.509  13.728  0.4663 -0.2060 -0.2480
 7305TIP3    H143406   3.852   6.444  13.775  0.4500  0.7033  1.0905
 7305TIP3    H243407   3.798   6.478  13.637 -1.0375 -3.0404  0.6301
 7306TIP3   OH243408   6.706   1.356   0.420 -0.2037  0.0854  0.1023
 7306TIP3    H143409   6.659   1.401   0.350  1.3425 -0.2061 -1.1800
 7306TIP3    H243410   6.741   1.426   0.474  2.3595  0.5853 -1.9947
 7307TIP3   OH243411   1.342   5.616  12.425  0.5821  0.5222  0.3485
 7307TIP3    H143412   1.350   5.546  12.489  3.6892 -0.4851 -0.9538
 7307TIP3    H243413   1.315   5.573  12.344  0.2609  1.2066  0.0791
 7308TIP3   OH243414   3.601   3.471   4.323 -0.2854 -0.2281 -0.2786
 7308TIP3    H143415   3.535   3.445   4.387  0.5501 -0.2512  0.5858
 7308TIP3    H243416   3.683   3.471   4.371 -0.1200  3.6979 -0.2187
 7309TIP3   OH243417   3.581   0.322   5.250  0.0439  0.5454  0.1777
 7309TIP3    H143418   3.628   0.240   5.232 -0.5068  0.4276 -0.8241
 7309TIP3    H243419   3.513   0.297   5.312  0.8214  0.5689  1.0630
 7310TIP3   OH243420   5.785   6.230  15.572  0.0654 -0.3318 -0.1427
 7310TIP3    H143421   5.720   6.267  15.511  1.6989  0.3064 -1.5722
 7310TIP3    H243422   5.800   6.299  15.637 -0.2323 -0.2513 -0.1581
 7311TIP3   OH243423   0.422   4.914  13.583  0.1300  0.0523 -0.6628
 7311TIP3    H143424   0.348   4.975  13.586  2.0629  2.5569 -0.5427
 7311TIP3    H243425   0.452   4.909  13.674  1.4923  0.9878 -1.0166
 7312TIP3   OH243426   5.333   4.362   5.708 -0.4287 -0.2714 -0.1334
 7312TIP3    H143427   5.391   4.288   5.723  0.4218  0.3864 -0.0627
 7312TIP3    H243428   5.294   4.380   5.793  0.1948  0.0283  0.0978
 7313TIP3   OH243429   6.680   6.726   0.103  0.4519  0.1993  0.4364
 7313TIP3    H143430   6.622   6.684   0.039  1.7099  0.2787 -0.7871
 7313TIP3    H243431   6.636   6.808   0.125 -0.8996 -0.6456  1.1224
 7314TIP3   OH243432   3.525   1.173   6.074  0.2794  0.9079  0.1311
 7314TIP3    H143433   3.478   1.169   5.991  2.1610 -0.0428 -0.9552
 7314TIP3    H243434   3.521   1.266   6.099 -0.6692  1.1387 -0.7793
 7315TIP3   OH243435   5.984   0.822   1.708 -0.0722  0.0295 -0.7875
 7315TIP3    H143436   5.899   0.861   1.723  0.1550  0.4990 -0.6970
 7315TIP3    H243437   5.984   0.799   1.615 -0.5225 -0.5381 -0.6505
 7316TIP3   OH243438   5.824   4.385   3.121  0.2345  0.1490  0.7355
 7316TIP3    H143439   5.730   4.398   3.115  0.1461 -1.0323 -1.8262
 7316TIP3    H243440   5.837   4.291   3.105  1.9161  0.5354 -0.4523
 7317TIP3   OH243441   1.790   2.553   2.118 -0.7316 -0.1543  0.3259
 7317TIP3    H143442   1.876   2.530   2.084 -1.8130 -1.8315 -1.4783
 7317TIP3    H243443   1.773   2.641   2.084 -0.5651 -0.6420 -1.0780
 7318TIP3   OH243444   1.851   2.083  13.771  0.1346 -0.3617  0.3463
 7318TIP3    H143445   1.888   2.100  13.858 -0.9965  1.2107  0.5693
 7318TIP3    H243446   1.887   1.998  13.746 -0.3842 -1.3945  2.8277
 7319TIP3   OH243447   3.143   0.456   6.525 -0.1373 -0.2577  0.6232
 7319TIP3    H143448   3.226   0.407   6.525 -0.4226 -0.8495 -1.7044
 7319TIP3    H243449   3.079   0.392   6.555 -0.4424 -1.3402 -2.0378
 7320TIP3   OH243450   6.604   3.615   0.760  0.2841 -0.4610 -0.1510
 7320TIP3    H143451   6.600   3.711   0.765  2.4091 -0.2014 -1.7633
 7320TIP3    H243452   6.587   3.595   0.668  1.2014 -1.4968 -0.1220
 7321TIP3   OH243453   6.745   3.590  11.816  0.1591 -0.3353 -0.2655
 7321TIP3    H143454   6.741   3.613  11.723  1.2467  0.3580 -0.1621
 7321TIP3    H243455   6.773   3.499  11.817  0.2702 -0.3082 -0.6138
 7322TIP3   OH243456   3.505   2.569   4.743 -0.0462 -0.2632 -0.5328
 7322TIP3    H143457   3.451   2.508   4.793 -2.1255  0.1119 -2.1831
 7322TIP3    H243458   3.593   2.533   4.748 -0.5305 -1.3138  1.6668
 7323TIP3   OH243459   2.440   1.421  12.634 -0.3552  0.3548  0.0269
 7323TIP3    H143460   2.490   1.350  12.675 -1.3654 -0.5125 -0.1912
 7323TIP3    H243461   2.478   1.501  12.670  2.8361 -0.1011 -1.9486
 7324TIP3   OH243462   4.704   0.099   0.829 -0.3423 -0.0224 -0.3501
 7324TIP3    H143463   4.684   0.136   0.743  1.3680 -0.8410 -1.1312
 7324TIP3    H243464   4.695   0.173   0.889  0.9814  1.2160 -1.5964
 7325TIP3   OH243465   3.738   4.904  16.203 -0.0594  0.5839 -0.8361
 7325TIP3    H143466   3.782   4.831  16.159  0.6972 -0.1374  0.9861
 7325TIP3    H243467   3.809   4.965  16.224 -0.7314  2.0474 -2.6388
 7326TIP3   OH243468   2.144   5.217   4.191  0.0171 -0.3545  0.0915
 7326TIP3    H143469   2.196   5.222   4.111 -0.2663  0.7350 -0.0448
 7326TIP3    H243470   2.208   5.201   4.260  0.3094 -0.8902 -0.3029
 7327TIP3   OH243471   6.782   6.350  15.063  0.4946  0.2217  0.2387
 7327TIP3    H143472   6.875   6.367  15.052  0.0123  2.3170 -1.2074
 7327TIP3    H243473   6.742   6.383  14.983 -1.5266 -0.4086  0.9230
 7328TIP3   OH243474   1.886   2.168  12.648 -0.1744  0.4719 -0.1873
 7328TIP3    H143475   1.799   2.128  12.652 -0.1604  0.5447  1.7864
 7328TIP3    H243476   1.944   2.104  12.691  0.8201  0.2905 -1.7370
 7329TIP3   OH243477   3.097   1.452  16.375  0.2816  0.6628 -0.0901
 7329TIP3    H143478   3.046   1.531  16.360  0.8174  1.3291  1.4157
 7329TIP3    H243479   3.160   1.476  16.442  0.9550 -0.8424 -0.1331
 7330TIP3   OH243480   5.906   6.070   4.841 -0.1319  0.4081 -0.0962
 7330TIP3    H143481   5.967   6.105   4.907 -0.0264  0.8009 -0.3911
 7330TIP3    H243482   5.943   6.100   4.758 -0.3030 -0.0232 -0.3283
 7331TIP3   OH243483   0.513   4.256   3.643  0.1480 -0.1394 -0.4045
 7331TIP3    H143484   0.473   4.343   3.638 -0.5057 -0.3573  0.6501
 7331TIP3    H243485   0.461   4.210   3.709 -1.0357 -2.1294 -2.5434
 7332TIP3   OH243486   2.361   1.902   1.426  0.2258  0.6002 -0.3964
 7332TIP3    H143487   2.368   1.837   1.355 -2.0289 -1.1179  0.8325
 7332TIP3    H243488   2.432   1.879   1.486 -0.8726 -1.1834  0.2990
 7333TIP3   OH243489   5.611   2.692   1.360 -0.1580  0.0677  0.1307
 7333TIP3    H143490   5.524   2.707   1.397  0.1341  1.4320  0.3026
 7333TIP3    H243491   5.594   2.649   1.276 -1.1093  1.5360 -0.4813
 7334TIP3   OH243492   1.941   5.404   4.908 -0.0055 -0.1528  0.2118
 7334TIP3    H143493   1.994   5.478   4.879  0.0633  0.7073  2.3266
 7334TIP3    H243494   2.002   5.331   4.911 -0.1909 -0.4891 -2.4132
 7335TIP3   OH243495   0.801   1.267   2.921  0.3236 -0.2322  0.1180
 7335TIP3    H143496   0.849   1.350   2.920  2.0093 -1.1477  1.1913
 7335TIP3    H243497   0.778   1.254   3.013 -2.7252  0.5246 -0.4275
 7336TIP3   OH243498   3.465   3.322  14.015 -0.3605 -0.4564  0.4199
 7336TIP3    H143499   3.448   3.330  13.921  1.1704 -2.3554 -0.0942
 7336TIP3    H243500   3.388   3.276  14.050 -1.2367  0.8354  0.2588
 7337TIP3   OH243501   4.999   5.401   3.919 -0.5802 -0.5652  0.2011
 7337TIP3    H143502   5.073   5.379   3.975 -0.3513 -0.1097  0.0836
 7337TIP3    H243503   4.924   5.403   3.978 -0.5271 -1.1665  0.2960
 7338TIP3   OH243504   5.056   4.428  11.996 -0.1876 -0.2085  0.3992
 7338TIP3    H143505   5.072   4.351  12.051 -0.2971  0.5477  1.5413
 7338TIP3    H243506   5.037   4.498  12.059 -0.2137  0.7206 -0.6164
 7339TIP3   OH243507   3.878   2.462   6.112  0.5266 -0.4820 -0.2465
 7339TIP3    H143508   3.967   2.428   6.117  0.9317  0.4035 -1.1411
 7339TIP3    H243509   3.831   2.417   6.182  1.3353 -1.9517 -0.6182
 7340TIP3   OH243510   3.289   2.229  17.103  0.0595 -0.0088  0.0435
 7340TIP3    H143511   3.305   2.283  17.180  2.4131 -0.7567  0.1568
 7340TIP3    H243512   3.218   2.170  17.130 -0.7974  1.3141  0.7769
 7341TIP3   OH243513   6.001   1.030   2.685  0.2929  0.3258 -0.4739
 7341TIP3    H143514   6.023   1.039   2.592  0.3551  0.5922 -0.4350
 7341TIP3    H243515   5.940   1.102   2.702 -0.5348 -0.3468 -0.5602
 7342TIP3   OH243516   0.501   0.820  11.906  0.2343 -0.2532  0.8347
 7342TIP3    H143517   0.485   0.815  12.001 -0.7459 -0.3408  0.6771
 7342TIP3    H243518   0.435   0.762  11.868  1.4728 -1.2837  0.1605
 7343TIP3   OH243519   3.372   2.061  15.434 -0.0049 -0.2666  0.4695
 7343TIP3    H143520   3.382   2.050  15.528  1.4838  0.1500  0.3839
 7343TIP3    H243521   3.379   2.156  15.421  1.2067 -0.4277 -0.1844
 7344TIP3   OH243522   3.148   2.807  14.868 -0.0671  0.5441 -0.1089
 7344TIP3    H143523   3.070   2.863  14.868  0.1021  0.7875 -0.7292
 7344TIP3    H243524   3.222   2.867  14.863  0.1572  0.3066  0.2946
 7345TIP3   OH243525   3.182   4.644  11.833 -0.4270 -0.1134 -0.4500
 7345TIP3    H143526   3.145   4.557  11.822 -1.1205  0.1838 -0.5643
 7345TIP3    H243527   3.135   4.681  11.908 -0.5807  0.3808 -0.7846
 7346TIP3   OH243528   0.756   5.869   3.365 -0.0509  0.4301  0.3891
 7346TIP3    H143529   0.697   5.874   3.440  0.5519  0.4345  0.8719
 7346TIP3    H243530   0.812   5.947   3.374  0.0144  0.4387 -0.0724
 7347TIP3   OH243531   5.107   1.479  11.399  0.0367 -0.3403 -0.5242
 7347TIP3    H143532   5.041   1.503  11.334  0.0818 -0.5806 -0.6587
 7347TIP3    H243533   5.120   1.559  11.450 -0.3528 -0.2899 -0.5013
 7348TIP3   OH243534   6.487   6.627   5.447 -0.2817 -0.6173  0.5080
 7348TIP3    H143535   6.492   6.597   5.356 -1.6494  1.0416 -0.1680
 7348TIP3    H243536   6.566   6.679   5.459 -1.3530  1.3822 -0.6527
 7349TIP3   OH243537   5.968   0.072  15.742 -0.4143 -0.1388 -0.5137
 7349TIP3    H143538   5.993   0.116  15.661 -1.1440 -1.2130 -1.3525
 7349TIP3    H243539   5.882   0.035  15.723 -0.6818 -0.2531  0.8246
 7350TIP3   OH243540   1.187   4.098   3.781 -0.8480 -0.1525  0.4716
 7350TIP3    H143541   1.192   4.009   3.816 -0.1919 -0.6759 -0.9295
 7350TIP3    H243542   1.123   4.092   3.710 -1.3072  0.6623  0.7959
 7351TIP3   OH243543   1.824   2.484   1.786 -0.3031  0.2702  0.5647
 7351TIP3    H143544   1.765   2.555   1.814 -2.3075 -0.4943 -1.4724
 7351TIP3    H243545   1.797   2.464   1.697 -1.2330 -4.4473  1.6533
 7352TIP3   OH243546   3.985   4.742  10.755  0.0427 -0.2600  0.8346
 7352TIP3    H143547   3.972   4.800  10.830 -0.3975  2.5057 -1.2471
 7352TIP3    H243548   3.905   4.751  10.703  1.7460  0.9109 -1.8153
 7353TIP3   OH243549   2.545   6.210   1.148 -0.0707  0.4502  0.5791
 7353TIP3    H143550   2.500   6.286   1.185  0.5543  2.4532 -2.4628
 7353TIP3    H243551   2.638   6.230   1.158  0.1168  1.0390 -1.8934
 7354TIP3   OH243552   1.604   1.629  11.465 -0.2827  0.3920  0.1218
 7354TIP3    H143553   1.631   1.538  11.478  1.3410  0.9091  0.5534
 7354TIP3    H243554   1.558   1.628  11.382 -0.0190 -0.7713 -0.0386
 7355TIP3   OH243555   1.579   6.151   1.904  0.4550  0.2432 -0.2453
 7355TIP3    H143556   1.545   6.080   1.958 -0.6106  1.2101  0.4033
 7355TIP3    H243557   1.664   6.171   1.943  0.4798 -0.2481 -0.0385
 7356TIP3   OH243558   2.797   4.573  14.393 -0.1708  0.3744  0.2381
 7356TIP3    H143559   2.850   4.651  14.379  1.0000 -0.1518  1.5280
 7356TIP3    H243560   2.724   4.603  14.448 -1.0718  1.0154 -1.2268
 7357TIP3   OH243561   5.399   3.832   3.669 -0.5404  0.1408  0.1432
 7357TIP3    H143562   5.425   3.867   3.584 -0.2537 -0.2669  0.0632
 7357TIP3    H243563   5.383   3.910   3.723 -0.4773  0.3989 -0.2056
 7358TIP3   OH243564   4.930   4.643   3.716  0.0724  0.2744  0.3757
 7358TIP3    H143565   4.843   4.658   3.753  0.2557  0.7119  0.6308
 7358TIP3    H243566   4.954   4.727   3.677  0.3373  0.1225  0.2102
 7359TIP3   OH243567   0.017   2.664   6.575  0.2902 -0.0037  0.0478
 7359TIP3    H143568   0.100   2.659   6.622 -0.3004  1.2105  1.2768
 7359TIP3    H243569  -0.030   2.585   6.601  1.3686 -1.1650 -1.3581
 7360TIP3   OH243570   1.047   6.086   0.240  0.0845 -0.2189 -0.3102
 7360TIP3    H143571   1.098   6.112   0.317 -1.6910 -1.1394  1.2711
 7360TIP3    H243572   0.956   6.104   0.265 -0.7422 -2.6480 -1.2752
 7361TIP3   OH243573   5.155   3.624  12.507  0.3945 -0.2810  0.4387
 7361TIP3    H143574   5.248   3.647  12.509  0.7915 -1.5949 -0.8964
 7361TIP3    H243575   5.140   3.575  12.588  0.4716  1.2315  1.3944
 7362TIP3   OH243576   5.304   6.555   1.285  0.1638  0.1149  0.3340
 7362TIP3    H143577   5.396   6.528   1.295  1.2297  3.3323  0.3275
 7362TIP3    H243578   5.281   6.591   1.371 -1.5909 -1.7591  0.7203
 7363TIP3   OH243579   2.250   4.681   2.818  0.0162  0.0344  0.5246
 7363TIP3    H143580   2.207   4.620   2.877  0.2122 -1.6394 -1.0030
 7363TIP3    H243581   2.305   4.626   2.762 -2.1795  1.1661 -3.0344
 7364TIP3   OH243582   2.171   0.143   1.788  0.4824  0.1960 -0.2448
 7364TIP3    H143583   2.099   0.153   1.725  0.0727  0.7022  0.2911
 7364TIP3    H243584   2.238   0.204   1.757  1.0160 -0.8498 -1.1967
 7365TIP3   OH243585   6.442   4.967  10.723  0.0895 -0.3903 -0.2532
 7365TIP3    H143586   6.520   4.931  10.679 -0.5685 -1.0325 -0.9178
 7365TIP3    H243587   6.371   4.952  10.661 -0.2777  1.8258 -0.4327
 7366TIP3   OH243588   2.792   6.819  13.486  0.4565 -0.5281  0.0266
 7366TIP3    H143589   2.699   6.804  13.472  0.2401  1.1937 -0.6345
 7366TIP3    H243590   2.800   6.836  13.580 -0.0044 -0.0309 -0.0209
 7367TIP3   OH243591   1.405   2.873   5.282  0.2864 -0.2432 -0.4859
 7367TIP3    H143592   1.386   2.895   5.191 -0.3830 -0.7531 -0.4769
 7367TIP3    H243593   1.476   2.808   5.277 -0.4718 -1.0816 -0.7122
 7368TIP3   OH243594   4.288   6.424  12.368  0.4394  0.0895  0.1773
 7368TIP3    H143595   4.296   6.330  12.353  0.2112  0.1250 -0.2028
 7368TIP3    H243596   4.208   6.448  12.321 -0.9719  0.0305  2.4325
 7369TIP3   OH243597   5.220   4.415   0.568 -0.4602 -0.0577 -0.0559
 7369TIP3    H143598   5.267   4.453   0.494 -1.3357 -0.0601 -0.6257
 7369TIP3    H243599   5.279   4.427   0.643  0.2752  0.2768 -0.6780
 7370TIP3   OH243600   4.528   5.394  11.054 -0.5124  0.2356 -0.1216
 7370TIP3    H143601   4.435   5.394  11.073 -0.6935 -0.4639 -0.9393
 7370TIP3    H243602   4.539   5.327  10.987  0.5366  0.5078 -0.2456
 7371TIP3   OH243603   1.522   0.778   0.913  0.1768  0.3986  0.3134
 7371TIP3    H143604   1.541   0.692   0.875  0.0863  0.6543 -0.3054
 7371TIP3    H243605   1.594   0.793   0.975 -0.0044 -0.2877  0.7065
 7372TIP3   OH243606   1.955   3.151  12.748  0.6956  0.0441  0.2155
 7372TIP3    H143607   1.904   3.227  12.720 -0.7765 -0.8302  0.3992
 7372TIP3    H243608   2.020   3.187  12.808 -0.3719  1.1114  0.7948
 7373TIP3   OH243609   5.113   6.354  16.660  0.5984  0.3226 -0.1360
 7373TIP3    H143610   5.110   6.284  16.595  1.8762 -0.5859  0.7308
 7373TIP3    H243611   5.159   6.315  16.735 -2.1219  0.8243  1.9444
 7374TIP3   OH243612   1.390   5.585  11.953 -0.1141 -0.1273 -0.6623
 7374TIP3    H143613   1.331   5.616  12.022 -0.7264 -1.1661 -0.6982
 7374TIP3    H243614   1.473   5.629  11.972 -0.7611  0.9891 -0.3298
 7375TIP3   OH243615   4.091   4.157  13.267  0.2083  0.8531  0.2411
 7375TIP3    H143616   4.060   4.074  13.232  2.1215 -0.1011  0.6659
 7375TIP3    H243617   4.109   4.211  13.190  0.5646  0.2463 -0.1011
 7376TIP3   OH243618   1.929   4.403   2.032  0.0241 -0.5685  0.0453
 7376TIP3    H143619   1.898   4.406   2.123 -0.6189  0.1794 -0.1893
 7376TIP3    H243620   1.922   4.310   2.008 -0.4809 -0.6655  0.5319
 7377TIP3   OH243621   1.822   1.765  16.009  0.5391 -0.6778 -0.5667
 7377TIP3    H143622   1.783   1.828  15.949 -0.7910 -1.3438 -0.4343
 7377TIP3    H243623   1.761   1.759  16.082  1.6176 -0.6683  0.3691
 7378TIP3   OH243624   2.395   5.446  16.539  0.3787  0.2716 -0.4876
 7378TIP3    H143625   2.320   5.498  16.566 -0.2986 -1.7261  1.8021
 7378TIP3    H243626   2.469   5.506  16.546 -0.2554  0.8583  2.8102
 7379TIP3   OH243627   3.417   6.495  10.926 -0.0229 -0.0980  0.5341
 7379TIP3    H143628   3.428   6.588  10.907  0.7626 -0.0785  1.0260
 7379TIP3    H243629   3.394   6.493  11.019 -0.5289 -0.3687  0.4030
 7380TIP3   OH243630   1.807   0.014  15.105 -0.2588  0.9995  0.4259
 7380TIP3    H143631   1.788   0.105  15.081  0.7780  1.1001 -0.0610
 7380TIP3    H243632   1.863  -0.018  15.035  1.0603  0.6147  1.6118
 7381TIP3   OH243633   4.674   6.650  13.970  0.2137  0.3203  0.0630
 7381TIP3    H143634   4.755   6.642  14.020  0.0232 -0.7941  0.2096
 7381TIP3    H243635   4.631   6.727  14.008  0.7562  0.3560  0.6276
 7382TIP3   OH243636   4.027   2.019   3.325  0.1464 -0.3235 -0.6325
 7382TIP3    H143637   3.963   1.960   3.286 -0.6811  0.3468 -0.3202
 7382TIP3    H243638   4.010   2.013   3.419 -1.4017  1.9593 -0.6798
 7383TIP3   OH243639   6.115   2.783   4.171  0.2083 -0.1820  0.1443
 7383TIP3    H143640   6.106   2.690   4.194  2.7878 -0.5787 -0.2020
 7383TIP3    H243641   6.172   2.784   4.095 -0.2632  1.6898 -0.2370
 7384TIP3   OH243642   3.883   1.455  13.312 -0.2874 -0.4755 -0.3117
 7384TIP3    H143643   3.823   1.530  13.321  0.8827  0.3865  0.6907
 7384TIP3    H243644   3.876   1.409  13.396 -0.6373 -1.2204 -0.7443
 7385TIP3   OH243645   3.778   5.066  13.442  0.1210  0.0284 -0.1476
 7385TIP3    H143646   3.719   5.000  13.478 -0.5353  0.4921 -0.3359
 7385TIP3    H243647   3.844   5.080  13.509 -0.6532  0.3379  0.5706
 7386TIP3   OH243648   6.025   1.125   1.729  0.2645  0.4396 -0.0511
 7386TIP3    H143649   6.051   1.093   1.643  0.7596 -0.0221  0.2656
 7386TIP3    H243650   5.935   1.156   1.717  0.0542 -0.3486 -0.5443
 7387TIP3   OH243651   5.985   3.567   2.678 -0.4668 -0.0777 -0.3364
 7387TIP3    H143652   6.052   3.635   2.682  1.2129 -1.4958 -2.5484
 7387TIP3    H243653   5.906   3.613   2.648 -0.1730  1.3522  0.9466
 7388TIP3   OH243654   4.283   1.814   3.174  0.2963 -0.0052  0.0329
 7388TIP3    H143655   4.193   1.783   3.173  0.7381 -1.4916  1.5268
 7388TIP3    H243656   4.283   1.886   3.237  0.3188 -0.6358  0.7662
 7389TIP3   OH243657   2.281   0.392   4.640 -0.1644  0.2474  0.2821
 7389TIP3    H143658   2.268   0.445   4.719 -0.6680 -1.1515  1.1711
 7389TIP3    H243659   2.268   0.302   4.669  0.5115 -0.3710 -1.2276
 7390TIP3   OH243660   3.853   0.936   1.831 -0.0105  0.1022 -0.5707
 7390TIP3    H143661   3.895   0.959   1.747  0.0949  0.1787 -0.4977
 7390TIP3    H243662   3.760   0.953   1.816 -0.1330 -0.9090 -1.0159
 7391TIP3   OH243663   3.634   5.616  13.701 -0.2941  0.1089 -0.3529
 7391TIP3    H143664   3.654   5.639  13.610  0.0162 -0.3063 -0.3945
 7391TIP3    H243665   3.665   5.692  13.752 -0.8284  0.5106 -0.6217
 7392TIP3   OH243666   2.271   6.651   5.146 -0.2698 -0.4752 -0.0257
 7392TIP3    H143667   2.299   6.593   5.217 -1.2890 -1.4809 -0.4039
 7392TIP3    H243668   2.205   6.708   5.187 -1.5351 -1.6634 -0.3291
 7393TIP3   OH243669   2.592   3.183   3.068 -0.4608 -0.0116 -0.0146
 7393TIP3    H143670   2.513   3.232   3.045 -0.7663  0.1480  1.3019
 7393TIP3    H243671   2.581   3.161   3.160  0.9609 -0.1372  0.1546
 7394TIP3   OH243672   3.612   3.704  15.456 -0.4250 -0.0570 -0.1485
 7394TIP3    H143673   3.694   3.671  15.492 -0.0329  0.9623 -0.0625
 7394TIP3    H243674   3.558   3.723  15.533  0.3905  2.0639 -0.0153
 7395TIP3   OH243675   1.809   5.832  10.678  0.1965 -0.0993  0.1248
 7395TIP3    H143676   1.772   5.921  10.680 -1.4874 -0.7771  0.2866
 7395TIP3    H243677   1.817   5.812  10.585 -0.1839 -0.0871  0.0888
 7396TIP3   OH243678   5.355   6.290   1.499  0.4129 -0.2781 -0.2213
 7396TIP3    H143679   5.411   6.339   1.439  0.4356  0.5320  0.4506
 7396TIP3    H243680   5.325   6.214   1.448  0.5860  0.2934 -1.1871
 7397TIP3   OH243681   5.301   4.085  11.925  0.1338 -0.1148 -0.0765
 7397TIP3    H143682   5.390   4.069  11.956 -0.2360 -0.1097  1.0249
 7397TIP3    H243683   5.313   4.128  11.840  1.1710 -0.1205  0.0482
 7398TIP3   OH243684   3.211   6.776  14.713  0.4665  0.1177  0.2557
 7398TIP3    H143685   3.118   6.758  14.720 -0.1938  3.0759  0.2607
 7398TIP3    H243686   3.227   6.850  14.772  2.8798 -0.4480  0.4473
 7399TIP3   OH243687   5.679   4.016  15.823  0.2763  0.2693  0.0258
 7399TIP3    H143688   5.663   3.961  15.900 -0.3737 -1.0167 -0.9948
 7399TIP3    H243689   5.593   4.052  15.801  0.0603 -0.9709 -1.2600
 7400TIP3   OH243690   6.756   6.035  14.282 -0.0284  0.3093 -0.1222
 7400TIP3    H143691   6.836   6.019  14.331 -0.0635 -0.3058 -0.2618
 7400TIP3    H243692   6.722   5.948  14.262 -0.5266  0.5630 -0.3980
 7401TIP3   OH243693   3.708   1.284   0.959  0.0860 -0.1993  0.1207
 7401TIP3    H143694   3.758   1.253   0.884  1.7027 -0.9105  1.4207
 7401TIP3    H243695   3.627   1.232   0.957  0.0046 -0.0415 -1.2293
 7402TIP3   OH243696   6.100   1.716   4.911  0.2327 -0.3548  0.0095
 7402TIP3    H143697   6.174   1.728   4.972 -0.7364  0.3349  1.0785
 7402TIP3    H243698   6.029   1.685   4.966 -0.5323 -0.1905 -0.8727
 7403TIP3   OH243699   5.949   6.394   1.683  0.2405  0.1387 -0.4829
 7403TIP3    H143700   5.968   6.321   1.741  0.1782  0.5582  0.0760
 7403TIP3    H243701   6.025   6.398   1.625 -0.3602 -1.2020 -1.4025
 7404TIP3   OH243702   4.452   0.784  16.820  0.8234  0.1828  0.8997
 7404TIP3    H143703   4.464   0.776  16.726 -2.0619  1.1302  0.3783
 7404TIP3    H243704   4.511   0.855  16.845  0.0688  1.4034 -0.6048
 7405TIP3   OH243705   3.157   0.199  12.835 -0.1716  0.1096 -0.2355
 7405TIP3    H143706   3.197   0.113  12.848  0.6046  0.4246 -0.4914
 7405TIP3    H243707   3.207   0.258  12.891  1.4479  0.9861 -2.4531
 7406TIP3   OH243708   6.223   6.266   1.580  0.5894  0.3833 -0.0183
 7406TIP3    H143709   6.239   6.212   1.657 -3.1817 -1.5298 -0.3161
 7406TIP3    H243710   6.268   6.348   1.598  0.7830 -0.3706  3.7172
 7407TIP3   OH243711   2.502   3.378  15.348 -0.4073  0.4380  1.4538
 7407TIP3    H143712   2.571   3.440  15.324  0.8331 -1.5700 -0.5299
 7407TIP3    H243713   2.420   3.427  15.337  0.5794  2.3956  2.3439
 7408TIP3   OH243714   1.284   0.258  12.771 -0.4809 -0.6263 -0.4139
 7408TIP3    H143715   1.206   0.313  12.782 -0.5895 -0.6603 -0.9745
 7408TIP3    H243716   1.356   0.320  12.764 -0.8474 -0.3729 -3.3752
 7409TIP3   OH243717   4.311   6.783  17.251  0.6448  0.0943  0.0405
 7409TIP3    H143718   4.289   6.838  17.326  2.5277  0.6272  0.2535
 7409TIP3    H243719   4.280   6.696  17.275 -2.4184  0.9735 -0.3102
 7410TIP3   OH243720   4.164   5.025   5.176  0.4396 -0.6299 -0.4424
 7410TIP3    H143721   4.180   4.931   5.175 -0.5087 -0.8031 -0.7592
 7410TIP3    H243722   4.104   5.039   5.249 -1.1221 -0.6073 -1.6565
 7411TIP3   OH243723   0.787   3.063  14.342  0.4491 -0.8930 -0.0991
 7411TIP3    H143724   0.755   3.045  14.430  1.3798 -1.7742  0.0658
 7411TIP3    H243725   0.731   3.135  14.311  0.3836 -0.2944  1.3496
 7412TIP3   OH243726   0.174   2.435   5.562  0.2083 -0.1481 -0.2328
 7412TIP3    H143727   0.207   2.440   5.652 -1.3136 -1.5458  0.4642
 7412TIP3    H243728   0.101   2.496   5.559  0.3326 -0.0133 -0.5574
 7413TIP3   OH243729   3.494   6.593  16.452 -0.0680  0.3170  0.1055
 7413TIP3    H143730   3.519   6.551  16.535 -1.0115  1.2584  0.8990
 7413TIP3    H243731   3.573   6.588  16.398  0.5263 -0.4510  1.0082
 7414TIP3   OH243732   3.153   4.283  13.820  0.1032 -0.1767 -0.1652
 7414TIP3    H143733   3.200   4.311  13.742  0.7702 -0.7721  0.0090
 7414TIP3    H243734   3.209   4.308  13.893 -1.1295  1.6009  0.2365
 7415TIP3   OH243735   3.158   3.259   1.938 -0.5448  0.5757  0.2190
 7415TIP3    H143736   3.064   3.246   1.948 -1.0092  0.8469 -2.8051
 7415TIP3    H243737   3.167   3.351   1.913  0.3214  0.1651 -1.0826
 7416TIP3   OH243738   0.155   5.904  14.379 -0.2953  0.5396 -0.3118
 7416TIP3    H143739   0.132   5.852  14.456 -1.7736  0.8308 -0.5276
 7416TIP3    H243740   0.238   5.867  14.348 -0.1351 -0.1438  0.9024
 7417TIP3   OH243741   4.538   5.028   4.752 -0.5009  0.0887  0.7009
 7417TIP3    H143742   4.545   5.122   4.769  1.7578  0.2393 -0.7112
 7417TIP3    H243743   4.464   5.020   4.692 -0.5908  0.9647  0.6851
 7418TIP3   OH243744   4.167   0.549  14.631 -0.2381  0.3548  0.0938
 7418TIP3    H143745   4.142   0.641  14.627  1.4003  0.9424  1.8474
 7418TIP3    H243746   4.214   0.541  14.714  1.1546 -1.6840 -0.8253
 7419TIP3   OH243747   0.360   0.615   4.762  0.2041  0.4035 -0.2174
 7419TIP3    H143748   0.414   0.694   4.759 -1.8843  1.9155 -0.7478
 7419TIP3    H243749   0.341   0.602   4.855  2.1768 -0.7376  0.0900
 7420TIP3   OH243750   4.620   1.944   3.327 -0.0174  0.0812  0.9097
 7420TIP3    H143751   4.656   1.937   3.239  0.1131  1.0552  0.8723
 7420TIP3    H243752   4.568   1.865   3.338  0.3037 -0.2528  0.1182
 7421TIP3   OH243753   2.170   4.054   3.818 -0.0775 -0.6088 -0.6158
 7421TIP3    H143754   2.260   4.087   3.820  0.1745 -1.2506  2.0905
 7421TIP3    H243755   2.178   3.965   3.785  0.6059 -1.3260  1.3380
 7422TIP3   OH243756   1.460   4.888  15.023  0.0297  0.0325  0.2478
 7422TIP3    H143757   1.439   4.804  15.063 -0.0340 -0.7671 -1.3798
 7422TIP3    H243758   1.539   4.917  15.068  0.4538 -1.2366  0.3573
 7423TIP3   OH243759   4.052   4.068  12.311  0.0870 -0.6979 -0.0355
 7423TIP3    H143760   3.965   4.087  12.348  0.2353 -0.3422  0.1327
 7423TIP3    H243761   4.034   4.010  12.237 -0.3576 -0.0141 -0.4672
 7424TIP3   OH243762   2.608   6.752   1.568  0.2216 -0.5253 -0.0823
 7424TIP3    H143763   2.605   6.829   1.510 -2.1525  1.2923  2.1877
 7424TIP3    H243764   2.551   6.688   1.525  0.3806 -0.1446 -0.8844
 7425TIP3   OH243765   6.002   5.045   4.551  0.4516  0.2167  0.6052
 7425TIP3    H143766   5.996   4.954   4.581  1.9954  0.1388  0.7441
 7425TIP3    H243767   6.074   5.045   4.488  2.5479  1.9035  2.8425
 7426TIP3   OH243768   3.206   0.656  15.771 -0.5676  0.1354  0.1422
 7426TIP3    H143769   3.200   0.599  15.847  0.9656  0.1255  0.2724
 7426TIP3    H243770   3.281   0.624  15.722 -1.4511  0.2202 -1.3379
 7427TIP3   OH243771   3.221   3.484   3.911  0.1951 -0.0398 -0.2936
 7427TIP3    H143772   3.288   3.476   3.842  1.2644 -0.9740  0.8034
 7427TIP3    H243773   3.266   3.531   3.981 -0.4395 -0.3212  0.3027
 7428TIP3   OH243774   2.169   1.124  12.101  0.3334 -0.7197  0.8409
 7428TIP3    H143775   2.132   1.168  12.024 -2.1080 -2.2978  1.0083
 7428TIP3    H243776   2.153   1.184  12.174  0.1533 -0.4108  0.5453
 7429TIP3   OH243777   6.065   0.568  13.558  0.1541  0.1096  0.0843
 7429TIP3    H143778   6.137   0.519  13.598  1.1821  0.3683 -1.3792
 7429TIP3    H243779   6.052   0.527  13.473 -0.7293  0.7429 -0.0964
 7430TIP3   OH243780   4.548   4.017   2.757 -0.3498 -0.6757  0.1425
 7430TIP3    H143781   4.625   3.974   2.794 -1.3333 -0.9680  1.9130
 7430TIP3    H243782   4.490   3.945   2.731 -1.9815 -0.5839  3.0750
 7431TIP3   OH243783   5.514   3.177  15.648 -0.2966  0.5124  0.1235
 7431TIP3    H143784   5.491   3.240  15.717 -2.2579 -1.1706  1.1177
 7431TIP3    H243785   5.572   3.114  15.691 -0.0252  0.4850 -0.2792
 7432TIP3   OH243786   5.570   0.117  11.123  0.4140  0.3964 -0.4551
 7432TIP3    H143787   5.490   0.081  11.161  0.0850  0.6570 -0.8837
 7432TIP3    H243788   5.605   0.175  11.191 -0.8651  1.8709 -0.9786
 7433TIP3   OH243789   2.558   0.268  14.014  0.0737 -0.3162 -0.7448
 7433TIP3    H143790   2.596   0.181  14.027  2.1837  0.5135 -1.0292
 7433TIP3    H243791   2.479   0.252  13.963 -0.1102 -2.1493  0.0376
 7434TIP3   OH243792   4.195   4.156  16.265 -0.4438 -0.0151 -0.1024
 7434TIP3    H143793   4.147   4.074  16.265 -0.2457 -0.1609 -1.3941
 7434TIP3    H243794   4.205   4.178  16.172 -0.7762  1.6410  0.2186
 7435TIP3   OH243795   3.862   2.898   1.746  0.2250 -0.0443 -0.1485
 7435TIP3    H143796   3.921   2.973   1.749  1.7559 -1.1352 -1.3876
 7435TIP3    H243797   3.781   2.930   1.786  1.0941  1.9951  0.1201
 7436TIP3   OH243798   1.464   0.215  11.535 -0.5795  0.2558 -0.3686
 7436TIP3    H143799   1.483   0.188  11.625  0.2505  1.6002 -0.1028
 7436TIP3    H243800   1.449   0.309  11.541  1.1786  0.7082 -1.8446
 7437TIP3   OH243801   0.318   0.805  17.170 -0.3327 -0.3387  0.3630
 7437TIP3    H143802   0.389   0.788  17.232 -0.9013  2.1491  1.8315
 7437TIP3    H243803   0.354   0.871  17.110 -1.3612  0.9490  1.1240
 7438TIP3   OH243804   4.845   5.454   2.660 -0.3299  0.1683 -0.3055
 7438TIP3    H143805   4.902   5.411   2.723 -1.3924  0.7472  1.0922
 7438TIP3    H243806   4.758   5.451   2.700 -0.7158  2.1883 -0.8764
 7439TIP3   OH243807   2.224   1.037  16.808  0.0304  0.6161  0.8111
 7439TIP3    H143808   2.276   0.967  16.766 -0.6619  1.2087 -1.1538
 7439TIP3    H243809   2.252   1.035  16.899  1.2788 -1.0994  0.4628
 7440TIP3   OH243810   1.815   3.412  14.442  0.2756  0.3417 -0.5084
 7440TIP3    H143811   1.789   3.320  14.435 -0.5963  0.5845 -0.5546
 7440TIP3    H243812   1.744   3.454  14.490 -1.2376  1.7082 -3.6133
 7441TIP3   OH243813   1.805   0.893  13.185  0.1523 -0.6614  0.5503
 7441TIP3    H143814   1.721   0.933  13.207  0.2586  0.5077 -0.9944
 7441TIP3    H243815   1.867   0.966  13.187  0.7506 -1.1307 -0.2140
 7442TIP3   OH243816   0.741   3.750  16.317 -0.0810  0.1991 -0.2042
 7442TIP3    H143817   0.792   3.735  16.238  0.3900  3.2179 -0.6222
 7442TIP3    H243818   0.806   3.764  16.386 -0.3836  1.1072 -0.0886
 7443TIP3   OH243819   1.313   3.981   1.638  0.2883 -0.1311  0.7377
 7443TIP3    H143820   1.223   3.953   1.658  0.6559 -1.1017  1.1368
 7443TIP3    H243821   1.306   4.034   1.559 -0.3396 -2.4563 -0.8826
 7444TIP3   OH243822   5.981   3.423   1.158 -0.0949  0.5153  0.4307
 7444TIP3    H143823   6.042   3.496   1.144  0.3809  0.1543  0.6042
 7444TIP3    H243824   6.012   3.354   1.100  0.3335 -0.0659  1.3211
 7445TIP3   OH243825   5.636   3.562  15.992  0.4886 -0.0692  0.3170
 7445TIP3    H143826   5.574   3.635  15.983  1.0538  0.4424  0.5346
 7445TIP3    H243827   5.642   3.548  16.087  1.5381  0.6164  0.3672
 7446TIP3   OH243828   3.239   0.598  14.583 -0.0720 -0.1120  0.2916
 7446TIP3    H143829   3.334   0.588  14.591 -0.1043 -1.5479 -0.7458
 7446TIP3    H243830   3.211   0.627  14.670  1.1188 -1.5525  1.2094
 7447TIP3   OH243831   5.269   3.769  13.253 -0.1656 -0.2850 -0.1601
 7447TIP3    H143832   5.354   3.762  13.210  0.6337  0.1290  1.2912
 7447TIP3    H243833   5.279   3.720  13.334 -0.6447  1.3943  0.9692
 7448TIP3   OH243834   3.951   1.399   5.023 -0.2461 -1.1849  0.7955
 7448TIP3    H143835   3.861   1.370   5.010 -0.6955  0.8997 -1.3644
 7448TIP3    H243836   3.989   1.399   4.936  0.8241  0.9923  1.1863
 7449TIP3   OH243837   0.513   1.819  13.434 -0.6017 -0.0427 -0.4155
 7449TIP3    H143838   0.547   1.730  13.438  0.0866  0.1957 -0.7409
 7449TIP3    H243839   0.573   1.865  13.375 -1.4194  0.4279 -0.9094
 7450TIP3   OH243840   0.192   2.671   2.638  0.0301 -0.0934 -0.1815
 7450TIP3    H143841   0.126   2.628   2.584  1.2259 -0.6469 -1.2719
 7450TIP3    H243842   0.241   2.599   2.678  0.1443  0.3006  0.3924
 7451TIP3   OH243843   1.124   2.621   4.550  0.5492 -0.0460 -0.3931
 7451TIP3    H143844   1.054   2.566   4.515 -1.1146 -0.8954  3.7062
 7451TIP3    H243845   1.082   2.676   4.615  3.2413  1.6972  0.0375
 7452TIP3   OH243846   2.548   1.227   4.479  0.5156  0.0251  0.2516
 7452TIP3    H143847   2.521   1.186   4.396 -0.2270 -0.2153  0.6060
 7452TIP3    H243848   2.644   1.228   4.475  0.4776  1.0714 -1.1215
 7453TIP3   OH243849   5.411   4.528   0.416  0.4614 -0.8550  0.2235
 7453TIP3    H143850   5.438   4.607   0.462  0.8166 -0.5136 -0.5617
 7453TIP3    H243851   5.478   4.514   0.349 -0.4654 -0.8689 -0.7352
 7454TIP3   OH243852   0.066   3.630  11.186 -0.1045 -0.1378  0.6907
 7454TIP3    H143853   0.145   3.659  11.141  0.5126 -0.5675  1.4640
 7454TIP3    H243854   0.047   3.701  11.248 -0.2693 -0.0740  0.5658
 7455TIP3   OH243855   4.129   5.977   5.401 -0.0797 -0.1998 -0.5783
 7455TIP3    H143856   4.163   5.957   5.488  0.3906 -0.1946 -0.7575
 7455TIP3    H243857   4.121   6.072   5.400  1.9358  0.0145 -1.2529
 7456TIP3   OH243858   3.963   2.352   3.707 -0.2908  0.1701  0.3252
 7456TIP3    H143859   3.876   2.376   3.738  0.2787 -0.7129  2.8059
 7456TIP3    H243860   4.023   2.409   3.754  0.5176  0.9178 -1.5114
 7457TIP3   OH243861   2.875   1.918  16.828  0.4017  0.5061  0.2620
 7457TIP3    H143862   2.963   1.952  16.841  0.1530  1.0616  0.5114
 7457TIP3    H243863   2.820   1.996  16.823  0.2701  0.3477 -2.7297
 7458TIP3   OH243864   3.661   3.664   5.454  0.5949  0.1372  0.0804
 7458TIP3    H143865   3.670   3.696   5.363 -1.1056 -0.4903 -0.3314
 7458TIP3    H243866   3.745   3.688   5.495  0.9938  1.4000 -1.3460
 7459TIP3   OH243867   6.185   2.388   2.669  0.3955 -0.0241 -0.2810
 7459TIP3    H143868   6.103   2.417   2.629 -0.0592  0.1649  0.7469
 7459TIP3    H243869   6.208   2.458   2.731  1.0092 -0.3642 -0.1098
 7460TIP3   OH243870   4.487   2.001  13.873 -0.5295 -0.0416  0.2571
 7460TIP3    H143871   4.438   1.925  13.842  0.2126 -0.3637 -0.1592
 7460TIP3    H243872   4.439   2.076  13.838 -1.3136 -0.3019  0.7375
 7461TIP3   OH243873   5.775   4.774  14.956 -0.6255 -0.2807 -0.7748
 7461TIP3    H143874   5.691   4.782  14.910 -0.6674  0.4112 -0.5924
 7461TIP3    H243875   5.827   4.848  14.924 -0.6616  0.2317  0.3061
 7462TIP3   OH243876   4.671   3.534   5.526  0.3046 -0.3258 -0.3294
 7462TIP3    H143877   4.633   3.454   5.561 -1.6253  1.0693  0.9751
 7462TIP3    H243878   4.739   3.558   5.590  2.1981 -1.8242 -1.6832
 7463TIP3   OH243879   6.675   2.279   3.647  0.7421  0.1654 -0.2993
 7463TIP3    H143880   6.598   2.302   3.596  0.3625  1.8928  0.9612
 7463TIP3    H243881   6.667   2.330   3.728  2.1117 -1.2606  0.8179
 7464TIP3   OH243882   3.460   0.127  14.425 -0.1874 -0.5710  0.2484
 7464TIP3    H143883   3.469   0.124  14.330  1.0641  3.5757  0.0377
 7464TIP3    H243884   3.522   0.062  14.457  1.6781  0.0708 -1.8135
 7465TIP3   OH243885   5.493   3.370   4.293  0.1077 -1.0603 -0.5195
 7465TIP3    H143886   5.433   3.321   4.236  1.2664 -0.1725 -2.6290
 7465TIP3    H243887   5.579   3.361   4.250  1.0562 -0.3704  1.1432
 7466TIP3   OH243888   4.697   4.997   0.978 -0.6713  0.0535  0.0091
 7466TIP3    H143889   4.689   5.093   0.976 -3.5613 -0.1020 -0.5232
 7466TIP3    H243890   4.726   4.974   0.889 -0.8806  0.3935 -0.1524
 7467TIP3   OH243891   1.745   5.109  16.889 -0.1017 -0.5097  0.8672
 7467TIP3    H143892   1.684   5.124  16.962  0.4660 -1.5217  1.5741
 7467TIP3    H243893   1.832   5.111  16.930  0.2630 -0.5540  0.1173
 7468TIP3   OH243894   4.386   6.729   3.668  0.0967 -0.5080 -0.1121
 7468TIP3    H143895   4.455   6.707   3.731 -0.8755  2.4282  2.2413
 7468TIP3    H243896   4.411   6.815   3.634 -1.9215  0.2809  0.2366
 7469TIP3   OH243897   3.735   6.413  15.363 -0.1437  0.0468  0.2171
 7469TIP3    H143898   3.702   6.497  15.332 -0.0652  0.2886  0.7826
 7469TIP3    H243899   3.804   6.436  15.425 -0.8807 -0.4194  1.2266
 7470TIP3   OH243900   4.878   4.411   2.708  0.5747  0.0994  0.4635
 7470TIP3    H143901   4.934   4.433   2.634 -0.4841  0.0239 -0.3717
 7470TIP3    H243902   4.789   4.410   2.673  0.1685 -1.2458  1.4367
 7471TIP3   OH243903   1.263   6.294  11.743  0.3509  0.0156 -0.1457
 7471TIP3    H143904   1.218   6.227  11.691  0.0409  0.1824 -0.0945
 7471TIP3    H243905   1.338   6.249  11.780 -0.5937 -0.6695  0.9962
 7472TIP3   OH243906   5.811   1.281  14.120 -1.1283  0.2318 -0.1645
 7472TIP3    H143907   5.741   1.255  14.180 -0.3894  3.9852  2.6851
 7472TIP3    H243908   5.827   1.373  14.140  5.0720 -0.4238 -0.1374
 7473TIP3   OH243909   0.894   4.076  16.921 -0.8179 -0.6401  0.0703
 7473TIP3    H143910   0.963   4.094  16.857 -1.5587  2.1404 -0.0463
 7473TIP3    H243911   0.936   4.088  17.006 -1.2476  1.7754 -0.0031
 7474TIP3   OH243912   1.954   2.045  17.207  0.0208 -0.2597  0.0334
 7474TIP3    H143913   2.009   2.105  17.158 -0.5354 -1.5490 -2.3491
 7474TIP3    H243914   2.015   1.990  17.255  0.7205 -0.1731 -0.7324
 7475TIP3   OH243915   5.779   5.878  13.824  0.7109  0.2045  0.1620
 7475TIP3    H143916   5.769   5.831  13.907 -1.0601  2.3920  1.3050
 7475TIP3    H243917   5.824   5.959  13.848  0.6022  0.6641 -1.1104
 7476TIP3   OH243918   3.887   2.185  16.669 -0.1785  0.6212 -0.8002
 7476TIP3    H143919   3.795   2.162  16.661 -0.0970 -0.2581  0.3958
 7476TIP3    H243920   3.926   2.111  16.716  0.9348  1.4198 -0.4112
 7477TIP3   OH243921   3.058   4.735   0.382  0.2094  0.3486 -0.4532
 7477TIP3    H143922   2.993   4.770   0.321  1.2313  0.4769 -1.4919
 7477TIP3    H243923   3.118   4.684   0.328 -0.4214 -1.9130  0.8211
 7478TIP3   OH243924   5.230   3.128   0.388  0.3996  0.6042  0.4533
 7478TIP3    H143925   5.193   3.190   0.450 -0.0839  0.3941  0.3822
 7478TIP3    H243926   5.238   3.046   0.437 -0.7532  0.2124  0.0336
 7479TIP3   OH243927   6.310   2.725   0.195 -0.4659  0.5077 -0.8004
 7479TIP3    H143928   6.274   2.679   0.271  1.8674 -0.5172 -0.2074
 7479TIP3    H243929   6.325   2.815   0.226 -0.8400  0.4694 -0.5027
 7480TIP3   OH243930   6.282   6.001   2.654  0.0794 -0.0200 -0.2992
 7480TIP3    H143931   6.233   5.939   2.707  1.3990 -0.3347  0.5887
 7480TIP3    H243932   6.247   5.990   2.565  0.3110 -2.0688 -0.1840
 7481TIP3   OH243933   3.383   4.991  14.306 -0.3005  0.3961 -0.2682
 7481TIP3    H143934   3.321   5.056  14.338 -0.9781 -0.5501  0.3803
 7481TIP3    H243935   3.359   4.979  14.213 -1.5818 -0.4732  0.1429
 7482TIP3   OH243936   3.145   3.585   3.365 -0.2837 -0.2956 -0.3011
 7482TIP3    H143937   3.058   3.619   3.347  0.8301  2.5316 -0.8752
 7482TIP3    H243938   3.130   3.509   3.422 -3.1318 -0.6228 -1.3219
 7483TIP3   OH243939   5.014   2.329  14.729 -0.0504 -0.4582  0.8310
 7483TIP3    H143940   5.032   2.399  14.667 -1.5407  0.6290  1.5631
 7483TIP3    H243941   4.950   2.273  14.685  0.3256 -0.7652  0.6668
 7484TIP3   OH243942   1.382   2.211   3.910 -0.5973 -0.2405  0.3604
 7484TIP3    H143943   1.437   2.255   3.845  0.6807 -1.3954  0.5992
 7484TIP3    H243944   1.429   2.223   3.993  0.7222 -3.3389  0.2057
 7485TIP3   OH243945   4.519   2.139   5.653 -0.4064  0.1347  0.7528
 7485TIP3    H143946   4.608   2.103   5.657  0.1334  1.2408 -0.5302
 7485TIP3    H243947   4.497   2.158   5.744 -0.3371 -2.3996  1.3866
 7486TIP3   OH243948   3.739   1.021   2.412 -0.1296  0.3574 -0.4928
 7486TIP3    H143949   3.742   1.071   2.494 -0.6848 -1.8242  0.9383
 7486TIP3    H243950   3.661   0.966   2.420  0.3934 -0.6633 -2.0249
 7487TIP3   OH243951   5.522   0.565  11.550 -0.1960  0.0536  0.6693
 7487TIP3    H143952   5.467   0.632  11.508 -1.8387 -1.2296  0.6861
 7487TIP3    H243953   5.608   0.577  11.510 -0.5226  1.9590  0.4415
 7488TIP3   OH243954   2.252   3.891   2.354  0.1258 -0.1810  0.5536
 7488TIP3    H143955   2.316   3.834   2.398 -1.2689 -1.1088  1.4407
 7488TIP3    H243956   2.225   3.840   2.277 -0.0955 -0.1197  0.5917
 7489TIP3   OH243957   2.475   5.337   2.758 -0.4000 -0.1011 -0.2115
 7489TIP3    H143958   2.567   5.317   2.771 -0.6602 -1.6340 -0.5482
 7489TIP3    H243959   2.468   5.431   2.776  0.6753 -0.4842  2.9192
 7490TIP3   OH243960   1.153   1.870  12.742  0.3588  0.1604 -0.0599
 7490TIP3    H143961   1.190   1.949  12.782  1.4755 -0.1692 -0.4252
 7490TIP3    H243962   1.073   1.853  12.793 -0.2569  1.8705 -0.3721
 7491TIP3   OH243963   6.107   6.808  16.871 -0.0137  0.2068 -0.1065
 7491TIP3    H143964   6.054   6.790  16.793  1.0044 -0.5668 -0.6396
 7491TIP3    H243965   6.130   6.722  16.905  0.8684  0.5263  0.1233
 7492TIP3   OH243966   3.138   1.864   2.567  0.3806 -0.1064  0.3690
 7492TIP3    H143967   3.144   1.911   2.650 -0.4877 -1.9127  1.5256
 7492TIP3    H243968   3.228   1.838   2.548  0.5211 -0.1067  1.0041
 7493TIP3   OH243969   1.571   4.854   3.561 -0.0233  0.1462  0.8770
 7493TIP3    H143970   1.612   4.842   3.647 -0.2621  1.0685  1.1305
 7493TIP3    H243971   1.526   4.771   3.544  1.5038 -0.7094  0.8162
 7494TIP3   OH243972   4.256   3.474   2.379 -0.1516 -0.4166 -0.3390
 7494TIP3    H143973   4.166   3.472   2.412 -0.1792  0.1782 -0.3765
 7494TIP3    H243974   4.275   3.383   2.357 -1.7583 -0.1811 -3.1428
 7495TIP3   OH243975   5.617   6.050   1.128 -0.3269  0.7079  0.0861
 7495TIP3    H143976   5.529   6.012   1.138 -0.6535  1.6475  0.9905
 7495TIP3    H243977   5.664   5.987   1.074 -0.8935 -0.8949  1.3754
 7496TIP3   OH243978   6.118   4.728   2.098 -0.3136  0.0069 -0.1140
 7496TIP3    H143979   6.057   4.793   2.132  0.6437 -0.2767  2.3472
 7496TIP3    H243980   6.061   4.657   2.066 -1.3222  0.0214  1.5317
 7497TIP3   OH243981   2.505   0.448  17.224 -0.3632 -0.8754  0.1663
 7497TIP3    H143982   2.567   0.519  17.239  0.4679 -1.7994  1.3069
 7497TIP3    H243983   2.472   0.427  17.312 -1.2783 -1.2975 -0.2641
 7498TIP3   OH243984   3.665   3.935  12.180 -0.1519 -0.3653  0.2432
 7498TIP3    H143985   3.599   3.994  12.216  0.2209 -0.3996  1.0019
 7498TIP3    H243986   3.713   3.904  12.257 -0.4428 -1.7866 -0.1138
 7499TIP3   OH243987   0.970   6.460   1.720 -0.0163  0.2439  0.3025
 7499TIP3    H143988   0.934   6.548   1.706 -0.4120  0.0431  0.0663
 7499TIP3    H243989   0.980   6.453   1.815 -0.4330  0.3646  0.3566
 7500TIP3   OH243990   2.538   6.016   4.974 -0.2887 -0.1073  0.2751
 7500TIP3    H143991   2.506   6.010   4.884 -1.2977  1.8057  0.4706
 7500TIP3    H243992   2.561   6.108   4.986 -0.7480 -0.1997  2.1734
 7501TIP3   OH243993   3.403   1.964   1.548 -0.2032  0.2587 -0.1036
 7501TIP3    H143994   3.488   1.946   1.588 -0.3085 -0.3811 -0.1618
 7501TIP3    H243995   3.402   1.911   1.468 -0.7184  0.1418 -0.0255
 7502TIP3   OH243996   1.187   5.357   5.624 -0.1577  0.2162  0.6882
 7502TIP3    H143997   1.169   5.441   5.666 -0.7014 -0.4430  1.8195
 7502TIP3    H243998   1.271   5.330   5.661 -0.5453 -0.2765  1.2223
 7503TIP3   OH243999   6.553   0.365  11.447 -0.3487 -0.0451  0.7034
 7503TIP3    H144000   6.575   0.383  11.356 -1.2084 -1.0428  0.2830
 7503TIP3    H244001   6.634   0.331  11.484 -0.2135 -0.4142  0.0860
 7504TIP3   OH244002   0.435   1.353  13.513 -0.0453 -0.3101 -0.0110
 7504TIP3    H144003   0.364   1.367  13.450  0.0696  0.8395  0.0852
 7504TIP3    H244004   0.402   1.285  13.571 -0.8390 -0.1927 -0.3076
 7505TIP3   OH244005   5.500   6.292  13.453  0.4379  0.2637  0.1890
 7505TIP3    H144006   5.523   6.230  13.521  0.1330 -0.6717 -0.5412
 7505TIP3    H244007   5.468   6.369  13.501  0.3619 -0.3177  1.0995
 7506TIP3   OH244008   1.374   4.363  13.029 -0.0881  0.0017  0.6447
 7506TIP3    H144009   1.386   4.271  13.008 -1.0860 -0.0623  0.3024
 7506TIP3    H244010   1.287   4.385  12.994 -1.2595  0.2566  3.4302
 7507TIP3   OH244011   0.840   6.627   2.066 -0.2683  0.2214  0.8885
 7507TIP3    H144012   0.899   6.558   2.034 -0.8902 -0.0877  0.3761
 7507TIP3    H244013   0.894   6.705   2.072  0.0180  0.1394 -0.3649
 7508TIP3   OH244014   4.743   6.422  15.328  0.0429 -0.3265 -0.5487
 7508TIP3    H144015   4.717   6.331  15.317  0.5800 -0.7041  0.9733
 7508TIP3    H244016   4.818   6.418  15.388  1.4149  0.9661 -2.0858
 7509TIP3   OH244017   1.401   2.631  15.313 -0.7350  0.0831  0.1651
 7509TIP3    H144018   1.383   2.700  15.376 -0.2952  0.8604 -0.5418
 7509TIP3    H244019   1.336   2.563  15.332  0.4070 -0.4363  2.5034
 7510TIP3   OH244020   4.845   5.062  13.147  0.1059 -0.2605 -0.6870
 7510TIP3    H144021   4.756   5.044  13.177  0.2931  0.4993  0.3595
 7510TIP3    H244022   4.891   5.095  13.224  0.1540  3.3401 -2.0575
 7511TIP3   OH244023   3.600   5.991  11.874 -0.2045 -0.0219 -0.0181
 7511TIP3    H144024   3.513   6.030  11.883  0.5902  2.0272 -0.7249
 7511TIP3    H244025   3.619   5.996  11.780  0.2005 -1.5949 -0.0437
 7512TIP3   OH244026   2.105   4.722   5.463  0.2828  0.1794  0.0309
 7512TIP3    H144027   2.187   4.685   5.496 -0.6373 -0.6502  1.5429
 7512TIP3    H244028   2.085   4.670   5.385  0.6353 -0.3857  0.3064
 7513TIP3   OH244029   1.141   1.592   1.039  0.1907  0.6170 -0.2283
 7513TIP3    H144030   1.082   1.607   1.114 -0.3037 -1.8943 -0.0050
 7513TIP3    H244031   1.113   1.656   0.974 -2.6680 -0.2505 -0.0195
 7514TIP3   OH244032   4.717   3.226  14.697  0.4427 -0.4945 -0.3804
 7514TIP3    H144033   4.656   3.262  14.761 -0.3820 -0.1230 -1.3392
 7514TIP3    H244034   4.755   3.150  14.741 -0.1726 -0.3065  0.5129
 7515TIP3   OH244035   1.353   4.100  13.027 -0.0618  0.6928 -0.5517
 7515TIP3    H144036   1.383   4.025  12.975  2.2669 -0.0734  1.7003
 7515TIP3    H244037   1.305   4.061  13.100 -0.9603  1.5850 -0.6427
 7516TIP3   OH244038   2.147   0.235  14.273  0.7112  0.3839 -0.0905
 7516TIP3    H144039   2.111   0.282  14.198 -1.0399 -0.1042  0.3832
 7516TIP3    H244040   2.128   0.291  14.348 -1.5176 -1.0236  0.4994
 7517TIP3   OH244041   3.564   2.617  11.153 -0.2158  0.0077 -0.6369
 7517TIP3    H144042   3.584   2.687  11.092 -1.2502  1.6874  0.8386
 7517TIP3    H244043   3.543   2.542  11.098  0.0378  1.1108 -2.2997
 7518TIP3   OH244044   1.161   1.911   2.039  1.0144  0.0166 -0.8156
 7518TIP3    H144045   1.110   1.972   2.092  1.8192  0.9427 -1.0564
 7518TIP3    H244046   1.238   1.890   2.093  2.0614  1.3100 -1.7247
 7519TIP3   OH244047   3.528   0.679  10.699  0.1779  0.3620 -0.1664
 7519TIP3    H144048   3.512   0.675  10.605  0.0985 -1.4675 -0.1263
 7519TIP3    H244049   3.475   0.607  10.735  1.8200 -0.3419  0.9957
 7520TIP3   OH244050   6.705   2.808   2.122  0.3259 -0.0023 -0.1262
 7520TIP3    H144051   6.748   2.739   2.173 -0.2599  1.4186  2.5063
 7520TIP3    H244052   6.770   2.877   2.116 -0.4408  0.8703  1.0537
 7521TIP3   OH244053   0.451   4.514  16.244 -0.3772 -0.0558  0.2851
 7521TIP3    H144054   0.496   4.475  16.320  1.2852  0.1547 -0.5397
 7521TIP3    H244055   0.412   4.440  16.199 -3.5192  0.0096  2.5580
 7522TIP3   OH244056   6.217   1.161  16.454  0.3388 -0.5412 -0.3353
 7522TIP3    H144057   6.259   1.225  16.396  0.2221 -0.5754 -0.4602
 7522TIP3    H244058   6.131   1.145  16.413  0.6839 -1.3929 -0.7630
 7523TIP3   OH244059   0.638   6.530   2.758  0.0072 -0.3288  0.1937
 7523TIP3    H144060   0.651   6.494   2.670  1.0197  2.4492 -0.9300
 7523TIP3    H244061   0.544   6.530   2.771 -0.1636 -0.7072 -0.9426
 7524TIP3   OH244062   5.617   6.433  14.962 -0.2191  0.1684 -0.5292
 7524TIP3    H144063   5.611   6.522  14.997 -1.1823 -0.2955  0.5906
 7524TIP3    H244064   5.710   6.417  14.951  0.1529  0.4284  1.7346
 7525TIP3   OH244065   5.081   3.323   5.488  0.3313 -0.0100 -0.1795
 7525TIP3    H144066   5.021   3.248   5.499  0.3268 -0.0628 -0.5689
 7525TIP3    H244067   5.140   3.296   5.417  1.6300 -0.4838  1.0211
 7526TIP3   OH244068   5.471   5.696  11.039 -0.4507 -0.1147  0.6688
 7526TIP3    H144069   5.420   5.750  10.979 -0.7312 -1.4784 -0.3875
 7526TIP3    H244070   5.561   5.702  11.007 -0.4255  0.0045  0.7624
 7527TIP3   OH244071   0.378   3.565   6.728  0.1404 -0.2296  0.2485
 7527TIP3    H144072   0.456   3.518   6.698 -0.2375 -1.6813  1.3930
 7527TIP3    H244073   0.412   3.640   6.776  0.8783 -1.2370  1.3493
 7528TIP3   OH244074   2.873   3.554  13.754 -0.2101  0.1356  0.3887
 7528TIP3    H144075   2.864   3.476  13.699  0.2815 -0.2613  0.8547
 7528TIP3    H244076   2.840   3.526  13.840  0.9408  0.1044  0.8404
 7529TIP3   OH244077   3.639   5.998  11.616 -0.4154 -0.1840 -0.1707
 7529TIP3    H144078   3.722   5.958  11.588 -0.0607 -0.4024  1.1403
 7529TIP3    H244079   3.574   5.958  11.559  0.2662 -0.6934 -0.6140
 7530TIP3   OH244080   3.352   5.761   1.921  0.3012 -0.9425 -0.7772
 7530TIP3    H144081   3.265   5.800   1.916 -0.6752 -2.9630 -0.4283
 7530TIP3    H244082   3.404   5.823   1.972 -1.3484 -0.3983  0.3063
 7531TIP3   OH244083   4.051   2.702   5.037  0.3673  0.6541 -0.4682
 7531TIP3    H144084   4.035   2.618   4.995  2.9495  0.9452 -2.2646
 7531TIP3    H244085   4.108   2.682   5.111 -0.1785  0.6718 -0.0424
 7532TIP3   OH244086   4.915   3.966  13.071  0.7593  1.0633 -0.5881
 7532TIP3    H144087   4.999   3.976  13.116 -1.1428  1.8218  3.2067
 7532TIP3    H244088   4.869   4.048  13.086 -1.5260 -0.1316 -0.4859
 7533TIP3   OH244089   0.270   0.754   5.904  0.2878  0.5375 -0.6185
 7533TIP3    H144090   0.207   0.746   5.976 -0.7819  1.1816 -1.4450
 7533TIP3    H244091   0.319   0.834   5.923  1.1623 -0.1747  0.2327
 7534TIP3   OH244092   1.164   6.640   2.504 -0.0689  0.2057 -0.7543
 7534TIP3    H144093   1.217   6.625   2.426 -2.0579  0.1290 -2.1636
 7534TIP3    H244094   1.176   6.732   2.525  0.7229  0.1473 -0.9426
 7535TIP3   OH244095   1.143   5.925  15.597 -0.3031  0.1111 -0.4137
 7535TIP3    H144096   1.137   5.951  15.505  1.3303 -0.6581 -0.7621
 7535TIP3    H244097   1.227   5.961  15.627  0.2599 -1.5689  0.1195
 7536TIP3   OH244098   6.676   4.523  16.165  0.4377  0.5358  0.5873
 7536TIP3    H144099   6.722   4.566  16.093  1.9445  0.1147  1.2622
 7536TIP3    H244100   6.744   4.477  16.214 -0.5249  0.8417  2.3211
 7537TIP3   OH244101   6.120   5.395  14.309 -0.3286  0.4825 -0.2541
 7537TIP3    H144102   6.158   5.383  14.396 -1.1620 -3.1949 -0.2181
 7537TIP3    H244103   6.195   5.391  14.250 -0.0412 -0.2934  0.1454
 7538TIP3   OH244104   0.749   4.469   4.485  0.0912 -0.3344 -0.5319
 7538TIP3    H144105   0.698   4.518   4.420 -1.1773 -0.0307  0.6686
 7538TIP3    H244106   0.686   4.441   4.550  1.4843  0.3808  1.2113
 7539TIP3   OH244107   3.772   5.634  11.454 -0.2836  0.4999  0.2194
 7539TIP3    H144108   3.695   5.578  11.462 -0.2438  0.4191  0.0453
 7539TIP3    H244109   3.755   5.707  11.513  0.0151 -0.0873  1.0476
 7540TIP3   OH244110   2.642   0.510  12.631  0.2992 -0.2149 -0.3393
 7540TIP3    H144111   2.591   0.441  12.588  0.9871  0.0160 -1.5693
 7540TIP3    H244112   2.605   0.591  12.597  0.1918  0.0103  0.3000
 7541TIP3   OH244113   6.116   3.257  11.308 -0.0187 -0.2101  0.2032
 7541TIP3    H144114   6.137   3.338  11.354  1.1169 -0.4512  0.1221
 7541TIP3    H244115   6.103   3.285  11.217  0.4976 -0.1321  0.1499
 7542TIP3   OH244116   6.657   3.997   1.348 -0.3919  0.0853  0.0104
 7542TIP3    H144117   6.622   3.908   1.345 -1.4111  0.4269  0.9072
 7542TIP3    H244118   6.740   3.989   1.394  1.1384 -0.8353 -2.6791
 7543TIP3   OH244119   0.895   0.242   0.286 -0.2423  0.0499 -0.2087
 7543TIP3    H144120   0.912   0.148   0.287 -0.8191 -0.0598  0.2594
 7543TIP3    H244121   0.854   0.259   0.201  4.3803  0.7822 -2.6095
 7544TIP3   OH244122   0.278   6.072  16.768  0.3677  0.0586 -0.3807
 7544TIP3    H144123   0.340   5.999  16.770  2.2167  1.5553 -0.0907
 7544TIP3    H244124   0.268   6.091  16.675  2.0457  1.1136 -0.3910
 7545TIP3   OH244125   1.509   4.326  16.702 -0.6096  0.5270  0.1845
 7545TIP3    H144126   1.528   4.355  16.791 -2.3246 -0.8599  1.0662
 7545TIP3    H244127   1.434   4.378  16.675 -0.1609  0.8685 -0.4258
 7546TIP3   OH244128   3.457   0.671   3.235  0.6118  0.0599 -0.3255
 7546TIP3    H144129   3.466   0.610   3.162  1.6129  0.4927 -0.5712
 7546TIP3    H244130   3.540   0.666   3.282  0.2802  0.3914  0.3170
 7547TIP3   OH244131   2.870   1.092  13.346 -0.0588  0.1238  0.2602
 7547TIP3    H144132   2.885   1.000  13.324  1.5922  0.1942  0.9031
 7547TIP3    H244133   2.833   1.130  13.266  2.1357 -0.4528 -1.1449
 7548TIP3   OH244134   4.789   2.073   6.075 -0.3886 -0.0106  0.3037
 7548TIP3    H144135   4.750   2.148   6.121  1.5845  1.1516  0.2182
 7548TIP3    H244136   4.817   2.015   6.145  1.9793  1.4310  0.6673
 7549TIP3   OH244137   0.308   2.251  15.797 -0.2615 -0.0685 -0.1622
 7549TIP3    H144138   0.294   2.320  15.731  1.6224 -1.3111 -1.9671
 7549TIP3    H244139   0.229   2.197  15.791 -1.5941  1.6628  1.0131
 7550TIP3   OH244140   4.248   2.551   2.579  0.0397 -0.5878  0.0425
 7550TIP3    H144141   4.249   2.456   2.565  0.5654 -0.8144  1.4983
 7550TIP3    H244142   4.331   2.570   2.622  0.9792  0.8916 -2.2320
 7551TIP3   OH244143   6.466   4.766  12.717  0.1631  0.3790 -1.0361
 7551TIP3    H144144   6.474   4.678  12.681 -0.8162 -1.0535  1.9859
 7551TIP3    H244145   6.377   4.769  12.754  1.0636  1.6781  1.2110
 7552TIP3   OH244146   4.147   3.274   4.492 -0.3563  0.4827 -0.5436
 7552TIP3    H144147   4.235   3.260   4.527 -0.1428 -0.3128 -1.3519
 7552TIP3    H244148   4.143   3.219   4.414 -0.8238  2.1478 -1.7565
 7553TIP3   OH244149   1.288   1.844  11.893  0.8881 -0.3438 -0.8034
 7553TIP3    H144150   1.376   1.826  11.859  1.2227  1.4861 -1.0429
 7553TIP3    H244151   1.255   1.759  11.923  3.3412 -0.8509  0.7338
 7554TIP3   OH244152   2.311   3.546  14.143  1.0014 -0.1415  0.0689
 7554TIP3    H144153   2.403   3.569  14.134  0.9615 -0.2659 -0.8199
 7554TIP3    H244154   2.264   3.629  14.137  1.1252  0.1091  2.1318
 7555TIP3   OH244155   0.904   0.810  11.675  0.6598 -0.2912  0.8144
 7555TIP3    H144156   0.977   0.800  11.613  0.2692  1.1876  0.0708
 7555TIP3    H244157   0.826   0.798  11.621  0.2996 -2.2924  1.6837
 7556TIP3   OH244158   6.171   5.086  12.994  0.3153  0.4174  0.4362
 7556TIP3    H144159   6.128   5.170  12.977  0.3855  0.7829  1.9494
 7556TIP3    H244160   6.106   5.021  12.968 -0.2406  0.9479  0.4615
 7557TIP3   OH244161   2.115   3.776   0.707  0.5766 -0.2242  0.1232
 7557TIP3    H144162   2.020   3.787   0.704  0.5322 -0.7385 -0.6576
 7557TIP3    H244163   2.146   3.847   0.765 -0.3553 -0.6544  1.1827
 7558TIP3   OH244164   2.801   1.034  15.878 -0.4117  0.1149  0.0048
 7558TIP3    H144165   2.769   1.075  15.798 -2.6720  0.0412  0.8073
 7558TIP3    H244166   2.859   0.964  15.848  0.2899  1.2635 -1.4820
 7559TIP3   OH244167   6.447   5.545  12.748 -0.2440 -0.0344 -0.1226
 7559TIP3    H144168   6.434   5.585  12.662  0.0104 -0.0471 -0.1663
 7559TIP3    H244169   6.471   5.455  12.728  1.3490  0.3556 -0.0837
 7560TIP3   OH244170   0.401   1.668  14.403 -0.2509  0.4262  0.4078
 7560TIP3    H144171   0.475   1.610  14.418 -0.0558  0.8538  1.1334
 7560TIP3    H244172   0.348   1.661  14.483  1.1267  3.2168  1.7054
 7561TIP3   OH244173   3.899   2.832   2.355 -0.3215 -0.1808 -0.0065
 7561TIP3    H144174   3.950   2.787   2.422 -0.7762 -0.4660  0.1467
 7561TIP3    H244175   3.831   2.770   2.330 -0.9373  0.4030  0.1814
 7562TIP3   OH244176   5.167   0.776  11.200  0.6872 -0.1998  0.0919
 7562TIP3    H144177   5.172   0.681  11.189  0.4440 -0.1284 -0.7080
 7562TIP3    H244178   5.094   0.790  11.261  0.4306 -0.5063 -0.1455
 7563TIP3   OH244179   2.793   3.547  14.885 -0.0220 -0.1883 -0.2539
 7563TIP3    H144180   2.856   3.562  14.814 -1.5725  1.3269 -1.3812
 7563TIP3    H244181   2.714   3.515  14.841 -0.8072  0.1755  0.8421
 7564TIP3   OH244182   5.961   4.165  14.138  0.0100 -0.3915  0.1715
 7564TIP3    H144183   5.921   4.126  14.216  2.1683 -0.9722  1.0737
 7564TIP3    H244184   6.008   4.092  14.097  1.5763  0.5757  0.1750
 7565TIP3   OH244185   3.910   0.180  12.887  0.2646 -0.1831  0.6109
 7565TIP3    H144186   3.997   0.220  12.883  0.4411 -0.6742 -0.9880
 7565TIP3    H244187   3.913   0.123  12.963  0.6489  1.3199  1.7881
 7566TIP3   OH244188   4.908   3.831   3.009  0.1532  0.2568  0.7810
 7566TIP3    H144189   4.898   3.913   3.058  0.3844  0.9694 -0.3309
 7566TIP3    H244190   4.860   3.846   2.928 -1.1413 -1.3055  1.2235
 7567TIP3   OH244191   5.014   0.455   2.270  0.3527 -0.4095  0.1141
 7567TIP3    H144192   5.035   0.468   2.178 -0.4896 -0.5452 -0.0997
 7567TIP3    H244193   5.043   0.536   2.312  0.2058 -0.1089 -0.3564
 7568TIP3   OH244194   3.526   1.334   2.483  0.2134  0.2027 -0.0252
 7568TIP3    H144195   3.454   1.382   2.443 -0.4811 -2.8048 -2.8880
 7568TIP3    H244196   3.486   1.285   2.555 -0.2597 -0.1325 -0.5074
 7569TIP3   OH244197   1.101   6.806  15.916  0.4917  0.4169  0.0977
 7569TIP3    H144198   1.035   6.814  15.848  0.1015  0.9949  0.5358
 7569TIP3    H244199   1.051   6.780  15.994  1.1576 -2.2516 -0.2639
 7570TIP3   OH244200   0.785   1.780   1.983 -0.6266 -0.1429 -0.1181
 7570TIP3    H144201   0.767   1.813   2.071 -0.4039  0.5051 -0.3082
 7570TIP3    H244202   0.827   1.853   1.938 -0.1772 -0.6735 -0.5776
 7571TIP3   OH244203   2.428   0.451   2.789 -0.0873 -0.0495  0.3130
 7571TIP3    H144204   2.502   0.509   2.809 -1.1490  1.7012 -0.5363
 7571TIP3    H244205   2.354   0.490   2.836 -1.0017 -0.2195 -0.9352
 7572TIP3   OH244206   0.422   4.635   1.652 -0.0952 -0.2936 -0.0355
 7572TIP3    H144207   0.497   4.575   1.646 -0.6679 -1.0361  0.0658
 7572TIP3    H244208   0.353   4.583   1.694 -0.8461  0.2047 -0.6280
 7573TIP3   OH244209   4.383   5.922   1.100 -0.4701 -0.7204  0.1116
 7573TIP3    H144210   4.455   5.983   1.115  0.1566 -1.2768 -0.5420
 7573TIP3    H244211   4.308   5.963   1.142 -0.0853  0.5408 -0.3760
 7574TIP3   OH244212   6.093   5.585   0.370  0.2667 -0.1960  0.2793
 7574TIP3    H144213   6.152   5.546   0.306 -0.7305  0.0236 -0.8277
 7574TIP3    H244214   6.082   5.676   0.341 -0.5943 -0.2276  0.4562
 7575TIP3   OH244215   3.835   1.117   4.213 -0.5022  0.3224  0.6356
 7575TIP3    H144216   3.847   1.212   4.213 -1.4233  0.4951 -1.2159
 7575TIP3    H244217   3.757   1.103   4.266  0.6964  0.3591  2.5196
 7576TIP3   OH244218   1.873   3.953  13.738  0.4584  0.4573 -0.0586
 7576TIP3    H144219   1.882   3.858  13.734 -2.4070  0.1483 -2.2242
 7576TIP3    H244220   1.805   3.967  13.804  0.9253  1.0360  0.3065
 7577TIP3   OH244221   1.419   5.341  10.214  0.0884  0.3110  0.3286
 7577TIP3    H144222   1.491   5.393  10.249  0.8236 -0.2904 -0.2690
 7577TIP3    H244223   1.451   5.251  10.212 -1.2236 -0.2115  1.4650
 7578TIP3   OH244224   1.777   1.335   4.270 -0.1564 -0.0129  0.4225
 7578TIP3    H144225   1.863   1.311   4.306  1.7132  3.3832 -1.2431
 7578TIP3    H244226   1.730   1.374   4.343  0.7816  0.4227  0.8175
 7579TIP3   OH244227   5.371   2.889  12.604 -0.1591  0.5708 -0.4286
 7579TIP3    H144228   5.415   2.854  12.526  1.3140  1.9870 -0.3046
 7579TIP3    H244229   5.363   2.814  12.662  1.2435  0.0398 -0.8710
 7580TIP3   OH244230   4.006   2.375  14.374  0.3108  0.2077 -0.0776
 7580TIP3    H144231   3.920   2.394  14.337  0.8426 -0.2425 -1.6043
 7580TIP3    H244232   4.067   2.418  14.314  1.2586 -1.6234 -0.4743
 7581TIP3   OH244233   2.850   1.206  13.713 -0.5056 -0.2415 -0.2204
 7581TIP3    H144234   2.844   1.148  13.788 -0.5254  1.5412  1.2202
 7581TIP3    H244235   2.938   1.192  13.678  0.1719  0.1803  1.2552
 7582TIP3   OH244236   6.287   6.726  15.611  0.2164  0.0283 -0.7938
 7582TIP3    H144237   6.341   6.805  15.614  0.7586 -0.3622 -0.2428
 7582TIP3    H244238   6.304   6.681  15.694 -0.5237 -0.3830 -0.8536
 7583TIP3   OH244239   5.973   1.402   0.098 -0.2991 -0.3736 -0.9161
 7583TIP3    H144240   6.009   1.341   0.162  0.7676  0.2323 -0.9173
 7583TIP3    H244241   6.049   1.443   0.058 -0.9601  1.5092 -0.3646
 7584TIP3   OH244242   5.306   3.590  15.807 -0.0667  0.1884 -0.0280
 7584TIP3    H144243   5.230   3.543  15.772  1.1836 -2.2919  0.3702
 7584TIP3    H244244   5.337   3.643  15.734 -0.1209 -1.4899 -1.3213
 7585TIP3   OH244245   6.158   5.197   6.163 -0.3958  0.3244  0.3519
 7585TIP3    H144246   6.210   5.131   6.210 -0.8388 -1.0314 -0.9557
 7585TIP3    H244247   6.070   5.188   6.199 -0.0201  1.7466  1.6884
 7586TIP3   OH244248   1.457   1.275   0.496 -0.1655 -0.1461  0.0702
 7586TIP3    H144249   1.466   1.272   0.401 -1.0830 -2.0778 -0.0021
 7586TIP3    H244250   1.363   1.279   0.511  0.0036  0.9779  0.9081
 7587TIP3   OH244251   4.514   2.446   2.096 -0.1640  0.3815  0.8810
 7587TIP3    H144252   4.435   2.395   2.078  0.3472  0.3091 -1.5857
 7587TIP3    H244253   4.490   2.536   2.073  0.4891  0.3201 -0.1351
 7588TIP3   OH244254   0.859   0.710   4.033  0.4000 -0.2552 -0.0401
 7588TIP3    H144255   0.936   0.656   4.046  0.0902 -0.5529  0.5999
 7588TIP3    H244256   0.807   0.698   4.112 -0.6208 -0.5712 -0.7347
 7589TIP3   OH244257   5.967   5.073   1.016  0.3767  0.2181  0.1513
 7589TIP3    H144258   5.998   5.064   0.926 -1.6439 -1.3142 -0.4747
 7589TIP3    H244259   6.012   5.004   1.064  0.5151  0.2387  0.0526
 7590TIP3   OH244260   3.802   6.657   1.306 -0.4189 -0.2713 -0.1090
 7590TIP3    H144261   3.799   6.752   1.315 -1.6913 -0.3152  0.1700
 7590TIP3    H244262   3.749   6.639   1.227  0.5938 -0.6935 -0.7138
 7591TIP3   OH244263   5.621   6.395   4.368  0.2807  1.0254  0.2166
 7591TIP3    H144264   5.570   6.315   4.377  1.2645  0.3636  0.1468
 7591TIP3    H244265   5.616   6.438   4.453  0.0119  0.7262  0.3499
 7592TIP3   OH244266   4.356   5.254   2.521  0.2227 -0.1013  0.3702
 7592TIP3    H144267   4.305   5.307   2.460 -0.0528  0.6763  1.2525
 7592TIP3    H244268   4.290   5.202   2.568  0.3413  0.0780  0.7339
 7593TIP3   OH244269   6.818   6.623   1.319  0.7643  0.1186 -0.0040
 7593TIP3    H144270   6.882   6.623   1.248 -0.8371 -0.5205 -1.5328
 7593TIP3    H244271   6.777   6.710   1.314  1.8405  0.7270  1.3174
 7594TIP3   OH244272   0.131   3.099  12.774  0.4187  0.1467 -0.0676
 7594TIP3    H144273   0.073   3.036  12.732  0.8652  0.1807 -0.7403
 7594TIP3    H244274   0.209   3.049  12.797  0.2434  0.1639  0.5850
 7595TIP3   OH244275   5.801   1.240  13.131 -0.0533  0.4664 -0.0689
 7595TIP3    H144276   5.804   1.216  13.224  1.4586 -1.6642 -0.5863
 7595TIP3    H244277   5.708   1.252  13.113 -0.2732  3.0655  2.1464
 7596TIP3   OH244278   6.565   4.535  15.625 -0.2630 -0.1931 -0.4248
 7596TIP3    H144279   6.615   4.500  15.551 -1.3187 -0.7603 -0.8971
 7596TIP3    H244280   6.561   4.463  15.688  0.7374  0.3276  0.2594
 7597TIP3   OH244281   6.059   0.155  13.890 -0.3759 -0.0454 -0.1648
 7597TIP3    H144282   6.106   0.182  13.969  0.2806  0.0262 -0.5710
 7597TIP3    H244283   5.978   0.206  13.892  0.1825  0.8796 -0.1545
 7598TIP3   OH244284   0.603   1.012  14.765  0.2655 -0.0736  0.0417
 7598TIP3    H144285   0.532   0.978  14.820  0.8190 -1.1630  0.1080
 7598TIP3    H244286   0.679   1.014  14.823  0.4582  0.4018 -0.2223
 7599TIP3   OH244287   6.096   6.599   5.944 -0.3678 -0.0596 -0.0183
 7599TIP3    H144288   6.134   6.678   5.982  0.1456  0.3090 -1.2467
 7599TIP3    H244289   6.062   6.628   5.859 -0.4983 -1.0840 -0.3205
 7600TIP3   OH244290   5.628   1.673  12.810  0.7020  0.1688 -0.3114
 7600TIP3    H144291   5.707   1.619  12.806  0.1045 -0.6882 -1.0168
 7600TIP3    H244292   5.565   1.626  12.756 -0.1093  1.1456 -0.2349
 7601TIP3   OH244293   3.035   4.411   3.864  0.0623 -0.0542 -0.0128
 7601TIP3    H144294   2.953   4.424   3.816  0.2141 -0.0973 -0.2870
 7601TIP3    H244295   3.019   4.449   3.950  0.9067  3.1958 -1.1544
 7602TIP3   OH244296   0.835   3.717  10.970  0.4030 -0.6574  0.4249
 7602TIP3    H144297   0.827   3.676  11.056  0.0439 -2.6000 -0.4749
 7602TIP3    H244298   0.810   3.648  10.909 -0.4951  1.0250 -1.1962
 7603TIP3   OH244299   3.624   2.800   2.974  0.1883  0.2533  0.1940
 7603TIP3    H144300   3.549   2.830   2.922  0.4973  1.3958  0.3892
 7603TIP3    H244301   3.683   2.874   2.976  1.3455 -0.6390  0.0492
 7604TIP3   OH244302   2.361   2.946  15.341 -0.0904  0.5170  0.0017
 7604TIP3    H144303   2.296   2.905  15.285  1.0748  0.3342 -1.2614
 7604TIP3    H244304   2.428   2.879  15.356 -1.0077  0.0778  2.8200
 7605TIP3   OH244305   6.443   3.296  11.627  0.0577 -0.3629 -0.6268
 7605TIP3    H144306   6.442   3.362  11.558 -1.6527 -0.2438 -0.5191
 7605TIP3    H244307   6.459   3.214  11.582 -0.0240 -0.1526 -1.0407
 7606TIP3   OH244308   0.935   5.246   5.593  1.0191 -0.4206 -0.7932
 7606TIP3    H144309   1.020   5.281   5.622  1.3715 -1.2567 -0.7914
 7606TIP3    H244310   0.907   5.188   5.664  0.7711 -0.6772 -1.0995
 7607TIP3   OH244311   2.102   2.737   4.094  0.0969 -0.8271  0.0779
 7607TIP3    H144312   2.166   2.791   4.142  0.4422  0.1548 -1.4326
 7607TIP3    H244313   2.062   2.683   4.162  0.1978  0.8647  1.5622
 7608TIP3   OH244314   1.728   6.486   4.555 -0.4209 -0.5193 -0.3101
 7608TIP3    H144315   1.708   6.516   4.643  1.2235 -0.1857 -0.0163
 7608TIP3    H244316   1.703   6.393   4.555 -2.2054 -0.0717 -0.1218
 7609TIP3   OH244317   4.916   4.404  13.912 -0.0130  0.0756  0.2744
 7609TIP3    H144318   4.928   4.418  13.818  2.9835 -1.2004  0.3633
 7609TIP3    H244319   4.999   4.429  13.952 -0.5018 -1.2876  2.3452
 7610TIP3   OH244320   1.843   1.401  11.138  0.3227 -0.7495  0.5215
 7610TIP3    H144321   1.824   1.324  11.084 -0.7912 -0.7775  0.9258
 7610TIP3    H244322   1.903   1.453  11.085  0.7449 -1.6729  0.0564
 7611TIP3   OH244323   1.140   1.634   5.618 -0.0565 -0.0008  0.2183
 7611TIP3    H144324   1.148   1.654   5.711  2.0462  1.3128 -0.1752
 7611TIP3    H244325   1.068   1.688   5.587 -1.0312 -0.7342  1.1140
 7612TIP3   OH244326   6.683   1.358  14.992  0.3690 -0.1602  0.1822
 7612TIP3    H144327   6.676   1.346  15.087  0.2602 -1.5230  0.0310
 7612TIP3    H244328   6.636   1.440  14.974  0.5522  0.2064  1.3203
 7613TIP3   OH244329   1.145   5.417   2.288 -0.4297 -0.4515  0.5316
 7613TIP3    H144330   1.059   5.426   2.329  0.4316  0.9883  2.1591
 7613TIP3    H244331   1.141   5.334   2.241 -3.1751  0.2337 -0.6751
 7614TIP3   OH244332   3.433   2.847  15.132  0.5020  0.1448 -0.5209
 7614TIP3    H144333   3.407   2.933  15.164 -0.5328 -0.6143  0.7535
 7614TIP3    H244334   3.495   2.866  15.061  2.2881  1.9174  1.3707
 7615TIP3   OH244335   4.272   4.004  12.003  0.4545 -0.4416 -0.1143
 7615TIP3    H144336   4.287   4.031  11.912 -0.0760 -0.4793 -0.2172
 7615TIP3    H244337   4.357   4.016  12.046  0.6589 -0.2340 -0.5661
 7616TIP3   OH244338   2.236   3.004  17.163 -0.4459  0.1857  0.2943
 7616TIP3    H144339   2.212   2.920  17.123  1.4614  0.4973 -1.7132
 7616TIP3    H244340   2.289   2.980  17.239  1.0818 -0.4891 -0.9354
 7617TIP3   OH244341   3.367   5.026  11.860 -0.1047  0.6001 -0.1493
 7617TIP3    H144342   3.340   4.968  11.932  0.2940 -0.2783 -0.6910
 7617TIP3    H244343   3.328   4.987  11.782  1.9022 -0.2094 -0.8372
 7618TIP3   OH244344   2.971   3.019  14.016  0.0008 -0.1017  0.4203
 7618TIP3    H144345   3.025   3.054  14.087  0.4669  0.0710 -0.0143
 7618TIP3    H244346   2.994   3.072  13.940 -0.0253 -0.7058 -0.0143
 7619TIP3   OH244347   1.939   2.946  16.084 -0.6578 -0.2769  0.5037
 7619TIP3    H144348   1.932   3.022  16.027  1.2222 -0.0240  0.5618
 7619TIP3    H244349   1.881   2.881  16.044  0.5719 -0.0974 -1.7444
 7620TIP3   OH244350   2.033   2.080  16.364 -0.7308 -0.2281 -0.0655
 7620TIP3    H144351   2.020   2.173  16.350 -0.1194 -0.0560  0.4497
 7620TIP3    H244352   1.961   2.053  16.421 -2.2160 -0.5649 -1.9920
 7621TIP3   OH244353   6.499   0.898   0.162  0.4345  0.3405 -0.0612
 7621TIP3    H144354   6.424   0.949   0.194  0.5715 -0.8547  2.4499
 7621TIP3    H244355   6.462   0.811   0.145  1.1809 -0.2707  1.2412
 7622TIP3   OH244356   0.467   4.347   1.103 -0.1890  0.0555 -0.7359
 7622TIP3    H144357   0.489   4.369   1.193 -0.9502  4.2011 -1.3730
 7622TIP3    H244358   0.550   4.323   1.063  0.2501 -1.2759  0.8364
 7623TIP3   OH244359   2.263   1.989   5.922  0.1490 -0.1174 -0.3024
 7623TIP3    H144360   2.208   2.030   5.855 -2.2546  2.8940  3.1464
 7623TIP3    H244361   2.231   1.899   5.927 -2.3333  0.6635 -0.6474
 7624TIP3   OH244362   0.068   6.654  16.666 -0.3778 -0.1337  0.1198
 7624TIP3    H144363   0.020   6.645  16.749 -0.0447 -0.8634  0.2445
 7624TIP3    H244364   0.014   6.713  16.613 -0.7488  0.0918  0.7444
 7625TIP3   OH244365   4.008   6.464   2.205 -0.5698  0.0867  0.6365
 7625TIP3    H144366   3.978   6.536   2.261  1.3466  1.2816  0.2304
 7625TIP3    H244367   4.093   6.439   2.242 -0.0859 -0.3046 -0.6851
 7626TIP3   OH244368   0.414   1.046  15.739  0.0763 -0.3178  0.5088
 7626TIP3    H144369   0.358   1.122  15.755  1.8750  1.0206  0.7015
 7626TIP3    H244370   0.365   0.993  15.676 -0.3420  2.0631 -1.3139
 7627TIP3   OH244371   6.712   0.768  13.410 -0.0907 -0.0454  0.4087
 7627TIP3    H144372   6.725   0.698  13.474 -1.4358 -1.1995 -0.5108
 7627TIP3    H244373   6.761   0.843  13.445  0.0991 -0.9667  2.2156
 7628TIP3   OH244374   4.185   5.818  16.942 -0.2163  0.0055 -0.2955
 7628TIP3    H144375   4.149   5.881  16.879  0.0784 -1.0315 -1.5469
 7628TIP3    H244376   4.241   5.761  16.889  0.7345 -0.3755  1.0684
 7629TIP3   OH244377   3.814   5.162  14.216  0.1477  0.4524  0.0534
 7629TIP3    H144378   3.790   5.145  14.307 -0.7314 -0.2811 -0.2996
 7629TIP3    H244379   3.909   5.149  14.213 -0.0953 -1.6824  0.4162
 7630TIP3   OH244380   2.959   1.708  15.849  0.0024  0.2477  0.8596
 7630TIP3    H144381   2.919   1.652  15.782  0.0149 -1.0896  1.9316
 7630TIP3    H244382   2.905   1.694  15.927  0.7062  0.8521  1.4661
 7631TIP3   OH244383   4.038   4.951  14.583  0.4429  0.1844  0.4496
 7631TIP3    H144384   4.104   4.883  14.590  0.6551  0.4418  1.0063
 7631TIP3    H244385   3.960   4.906  14.550  0.2977 -0.5076  1.6995
 7632TIP3   OH244386   5.773   1.715  16.138 -0.0554 -0.7632  0.1559
 7632TIP3    H144387   5.851   1.669  16.168  0.9076 -0.1226 -1.2406
 7632TIP3    H244388   5.748   1.772  16.211  2.5061  1.1480 -0.3143
 7633TIP3   OH244389   6.390   0.199   5.034 -0.2661 -0.4423  0.4047
 7633TIP3    H144390   6.426   0.172   5.118  0.3997 -0.8788 -0.0134
 7633TIP3    H244391   6.413   0.292   5.028 -1.7530  0.0220  1.4268
 7634TIP3   OH244392   1.030   1.449  12.364 -0.0778 -0.5047  0.3980
 7634TIP3    H144393   0.982   1.366  12.353 -0.8347  0.1858 -2.1607
 7634TIP3    H244394   0.962   1.512  12.390  0.0902 -0.2261  0.1539
 7635TIP3   OH244395   4.126   4.972   3.091  0.4899  0.4991 -0.3136
 7635TIP3    H144396   4.138   5.056   3.136  0.4810 -0.4555  1.5548
 7635TIP3    H244397   4.207   4.961   3.041  0.5629  1.5333 -0.4520
 7636TIP3   OH244398   2.108   0.945   1.260 -0.0242  0.1658 -1.0560
 7636TIP3    H144399   2.139   1.031   1.233  1.6853 -0.4070 -1.0584
 7636TIP3    H244400   2.187   0.899   1.289 -1.0923 -0.9591  0.1925
 7637TIP3   OH244401   5.752   6.089   1.368  0.2076 -0.1901 -0.2786
 7637TIP3    H144402   5.699   6.084   1.288 -0.8772 -0.9771  0.4539
 7637TIP3    H244403   5.841   6.105   1.337 -0.3270  0.4042 -1.5943
 7638TIP3   OH244404   4.900   6.600   5.116 -0.0809  0.0304 -0.2084
 7638TIP3    H144405   4.973   6.655   5.087  0.4712  0.9805  2.6980
 7638TIP3    H244406   4.920   6.578   5.207 -4.2748  2.0222  1.4844
 7639TIP3   OH244407   0.904   1.723   0.049 -0.0926  0.1551 -0.3120
 7639TIP3    H144408   0.866   1.640   0.019 -0.7162  0.1714  0.3710
 7639TIP3    H244409   0.998   1.707   0.053 -0.2667 -0.8285  0.6432
 7640TIP3   OH244410   0.703   0.804  14.569  0.2984 -0.1170  0.3961
 7640TIP3    H144411   0.617   0.840  14.587  0.1884  0.6283 -1.3891
 7640TIP3    H244412   0.765   0.866  14.607  0.0601  0.1400  0.3609
 7641TIP3   OH244413   4.753   4.574   4.670  0.6357  0.7493 -0.1479
 7641TIP3    H144414   4.693   4.608   4.736  1.5644  2.0060  0.0812
 7641TIP3    H244415   4.826   4.538   4.720  0.2716 -0.4728 -0.4387
 7642TIP3   OH244416   1.478   5.387  11.758  0.1567 -0.1208 -0.4924
 7642TIP3    H144417   1.389   5.384  11.722  0.1715  0.1495 -0.5502
 7642TIP3    H244418   1.476   5.457  11.823  0.1854 -0.4727 -0.1102
 7643TIP3   OH244419   4.369   4.305  14.442 -0.4464 -0.6519 -1.0198
 7643TIP3    H144420   4.418   4.267  14.369  2.6793  0.8891  0.1043
 7643TIP3    H244421   4.358   4.397  14.418 -0.3099 -0.3649  0.0009
 7644TIP3   OH244422   2.436   3.188   6.693  0.2019 -0.3749 -0.2239
 7644TIP3    H144423   2.416   3.214   6.603  2.0742 -0.5811 -0.7293
 7644TIP3    H244424   2.402   3.260   6.746  1.4415  1.0813 -1.3057
 7645TIP3   OH244425   2.714   1.550  11.927 -0.5603 -0.2239 -0.5370
 7645TIP3    H144426   2.750   1.522  12.011 -0.0747 -0.5628 -0.8491
 7645TIP3    H244427   2.664   1.474  11.896 -2.3937  0.5566  0.3339
 7646TIP3   OH244428   0.619   2.740  14.755  0.3211 -0.5334  0.2586
 7646TIP3    H144429   0.687   2.711  14.694 -0.9751  0.5692 -1.8565
 7646TIP3    H244430   0.538   2.702  14.721 -0.6220  1.1028  0.5361
 7647TIP3   OH244431   0.989   0.076  16.786  0.1131  0.3864 -0.0017
 7647TIP3    H144432   1.064   0.046  16.836  0.7553 -1.1015 -1.7635
 7647TIP3    H244433   0.985   0.018  16.711 -1.2995  2.0136 -1.2705
 7648TIP3   OH244434   4.899   4.053  14.781  0.1248 -0.2053  0.0979
 7648TIP3    H144435   4.907   3.992  14.854  0.9268 -0.5052 -0.2289
 7648TIP3    H244436   4.861   4.132  14.821  0.2946 -0.4551  0.7798
 7649TIP3   OH244437   2.315   4.193  10.728  0.1331 -0.4925  0.1552
 7649TIP3    H144438   2.355   4.233  10.806 -1.2544 -0.4232  0.8598
 7649TIP3    H244439   2.373   4.217  10.656  0.8174  0.4439  0.9968
 7650TIP3   OH244440   0.522   0.396   2.777 -0.4088  0.1730 -0.1534
 7650TIP3    H144441   0.586   0.326   2.785 -1.3400 -0.7702 -0.7663
 7650TIP3    H244442   0.535   0.430   2.689  0.5169  1.2812  0.3780
 7651TIP3   OH244443   4.455   0.139   0.351  0.5829  0.2997 -0.0713
 7651TIP3    H144444   4.462   0.107   0.260  0.0378 -0.1149  0.0290
 7651TIP3    H244445   4.465   0.234   0.344 -1.6904  0.5470 -0.8493
 7652TIP3   OH244446   5.512   5.200   2.085 -0.3606  0.3143 -0.6038
 7652TIP3    H144447   5.503   5.131   2.019 -0.7121  2.0782 -2.5141
 7652TIP3    H244448   5.605   5.220   2.087 -0.2438 -0.2775  0.0324
 7653TIP3   OH244449   6.164   6.268   1.286  0.2802 -0.0242 -0.2517
 7653TIP3    H144450   6.144   6.175   1.271  2.8823 -1.3486  3.1440
 7653TIP3    H244451   6.119   6.289   1.368  0.9588  1.3025 -0.1955
 7654TIP3   OH244452   4.655   5.098  16.917 -0.2683  0.3844  0.1955
 7654TIP3    H144453   4.664   5.068  17.007 -0.0102  0.4994  0.2101
 7654TIP3    H244454   4.715   5.043  16.867  0.3319  0.9724  0.2471
 7655TIP3   OH244455   3.259   6.604  12.002  0.2593 -0.4199 -0.0471
 7655TIP3    H144456   3.227   6.683  12.046 -1.9863 -0.8766 -0.7559
 7655TIP3    H244457   3.303   6.637  11.924 -1.2457  0.1667 -0.6963
 7656TIP3   OH244458   2.002   5.580  14.725  0.4192 -0.9292  0.5264
 7656TIP3    H144459   2.020   5.647  14.791  0.1676 -0.5139  0.1806
 7656TIP3    H244460   2.088   5.553  14.693  0.5037  0.6970 -0.7805
 7657TIP3   OH244461   2.712   5.104  14.794  0.1637  0.2556  0.0618
 7657TIP3    H144462   2.683   5.015  14.777 -0.4465  0.5895 -0.7276
 7657TIP3    H244463   2.796   5.095  14.839 -0.5346 -0.7266  1.2041
 7658TIP3   OH244464   4.233   5.148  15.360  0.3207 -0.2937 -0.5262
 7658TIP3    H144465   4.286   5.070  15.377  0.1121 -0.1046  1.1714
 7658TIP3    H244466   4.296   5.218  15.346  0.5336 -0.2833  0.4326
 7659TIP3   OH244467   5.826   1.346  11.235  0.5298 -0.0602 -0.6815
 7659TIP3    H144468   5.917   1.373  11.230 -0.0814  2.3562  0.0634
 7659TIP3    H244469   5.794   1.349  11.145  0.6954  0.9478 -0.7074
 7660TIP3   OH244470   5.430   5.254   2.896 -0.0113 -0.2673  0.0542
 7660TIP3    H144471   5.478   5.187   2.849  0.5457 -0.3630  0.7329
 7660TIP3    H244472   5.375   5.296   2.830  1.0869 -0.0805 -0.7654
 7661TIP3   OH244473   4.182   1.533   3.095  0.1087 -0.5548 -0.0610
 7661TIP3    H144474   4.268   1.540   3.054  0.2595 -3.5128 -0.4810
 7661TIP3    H244475   4.201   1.509   3.186 -0.2683 -0.5884  0.0101
 7662TIP3   OH244476   4.692   5.194   5.129 -0.4146  0.4917 -0.5211
 7662TIP3    H144477   4.755   5.220   5.196 -0.6386 -0.0451 -0.0962
 7662TIP3    H244478   4.733   5.119   5.086  0.9488  2.4033 -2.7945
 7663TIP3   OH244479   2.099   4.123  17.116 -0.2503 -0.4044  0.3541
 7663TIP3    H144480   2.004   4.128  17.110 -0.2336 -0.6091 -0.0503
 7663TIP3    H244481   2.122   4.042  17.071  0.1214 -0.3224  0.3952
 7664TIP3   OH244482   0.042   6.359   3.830  0.2287 -0.3534 -0.2951
 7664TIP3    H144483   0.072   6.448   3.809  1.5642 -0.5538  0.6038
 7664TIP3    H244484  -0.020   6.337   3.761 -0.1684  1.2943 -0.5074
 7665TIP3   OH244485   3.546   4.803  14.406  0.0515 -0.1459 -0.5205
 7665TIP3    H144486   3.631   4.799  14.364  0.1214  1.2165 -0.5507
 7665TIP3    H244487   3.497   4.868  14.356 -0.8239 -0.5022 -0.1653
 7666TIP3   OH244488   6.690   3.091   0.727  0.2802 -0.2868 -0.1470
 7666TIP3    H144489   6.662   3.181   0.741  2.2722  0.4084 -0.4128
 7666TIP3    H244490   6.687   3.052   0.815 -0.5607  0.0159 -0.0261
 7667TIP3   OH244491   0.208   2.310   2.311  0.3632  0.0283  0.5577
 7667TIP3    H144492   0.128   2.361   2.321  1.4022  1.4798  1.9066
 7667TIP3    H244493   0.271   2.371   2.271  1.5629 -0.2055  1.9791
 7668TIP3   OH244494   3.795   6.171   4.545  0.2001 -0.2129  0.2507
 7668TIP3    H144495   3.747   6.118   4.609 -0.0543 -1.4338 -0.9059
 7668TIP3    H244496   3.884   6.136   4.548 -0.1981 -1.4786 -1.2455
 7669TIP3   OH244497   4.930   6.225  12.610  0.0944 -0.0920 -0.3606
 7669TIP3    H144498   5.021   6.194  12.613  0.3956  0.6728 -0.9934
 7669TIP3    H244499   4.934   6.313  12.647  0.0230  0.8044 -2.3292
 7670TIP3   OH244500   4.178   5.368   3.052  0.1540 -0.1732  0.2834
 7670TIP3    H144501   4.191   5.293   3.110 -0.2282 -0.3373  0.1633
 7670TIP3    H244502   4.104   5.416   3.091 -0.0798 -0.2617 -0.0391
 7671TIP3   OH244503   5.862   6.364   5.142 -0.1098  0.4389 -0.1900
 7671TIP3    H144504   5.773   6.341   5.115 -1.1757  2.4992  1.2927
 7671TIP3    H244505   5.881   6.445   5.094  0.8546  0.1659 -0.2754
 7672TIP3   OH244506   3.323   1.310   0.319 -0.4649  0.7322 -0.1516
 7672TIP3    H144507   3.408   1.340   0.350  1.2683 -0.6610 -3.1246
 7672TIP3    H244508   3.301   1.370   0.248 -0.9620 -0.0759 -0.6999
 7673TIP3   OH244509   0.291   1.843  12.592 -0.0500 -0.5074 -0.0509
 7673TIP3    H144510   0.239   1.838  12.511 -1.3569  1.1411  0.6233
 7673TIP3    H244511   0.341   1.924  12.584 -1.5373  0.6382  1.4910
 7674TIP3   OH244512   3.545   6.239   2.611 -0.8541 -0.2565  0.5484
 7674TIP3    H144513   3.475   6.277   2.663 -0.2060 -0.2287  1.4298
 7674TIP3    H244514   3.616   6.302   2.616 -0.2270 -0.9761  0.9411
 7675TIP3   OH244515   6.516   2.679  17.263  0.5173  0.2939 -0.2815
 7675TIP3    H144516   6.469   2.696  17.345 -0.2604  1.4802 -0.9502
 7675TIP3    H244517   6.608   2.676  17.289  0.2182 -0.4795  0.8014
 7676TIP3   OH244518   0.933   3.572   4.682 -0.3049 -0.6034 -0.6595
 7676TIP3    H144519   0.976   3.651   4.648 -0.3879 -0.5148 -0.5588
 7676TIP3    H244520   0.962   3.565   4.772 -0.2373 -0.7313 -0.6917
 7677TIP3   OH244521   6.814   1.321   0.068  0.5438 -0.0869 -0.1216
 7677TIP3    H144522   6.834   1.242   0.017  0.0517  0.2443 -0.8340
 7677TIP3    H244523   6.719   1.320   0.078  0.5180  0.4807 -0.2595
 7678TIP3   OH244524   2.368   2.203  15.183 -0.2628  0.8431 -0.2053
 7678TIP3    H144525   2.418   2.149  15.122 -1.5241 -0.9527  0.2488
 7678TIP3    H244526   2.435   2.248  15.236  0.8364  0.2191 -1.0250
 7679TIP3   OH244527   3.188   6.777   1.461  0.2109  0.0927  0.7386
 7679TIP3    H144528   3.197   6.740   1.549  0.3264 -1.0883  0.2438
 7679TIP3    H244529   3.139   6.858   1.474  1.2428  0.5500  2.0307
 7680TIP3   OH244530   5.732   6.365  11.616  0.3105 -0.1187  0.8791
 7680TIP3    H144531   5.752   6.281  11.574 -0.2879 -0.8918  2.0655
 7680TIP3    H244532   5.805   6.422  11.592  0.8766 -1.0618  0.2779
 7681TIP3   OH244533   5.429   1.554   4.788  0.1878  0.4276  0.2609
 7681TIP3    H144534   5.451   1.585   4.700 -0.2185 -2.4364 -0.9553
 7681TIP3    H244535   5.382   1.627   4.828  0.7108  1.9538 -1.7366
 7682TIP3   OH244536   3.060   4.025   0.706  0.0354  0.3355 -0.8285
 7682TIP3    H144537   3.013   3.953   0.663  0.6501 -0.0809 -0.8212
 7682TIP3    H244538   3.043   4.012   0.799  2.3486 -1.4590 -0.5715
 7683TIP3   OH244539   0.135   1.358  16.053  0.2970  0.3348  0.2230
 7683TIP3    H144540   0.202   1.292  16.072  0.0693 -0.3754 -1.3193
 7683TIP3    H244541   0.148   1.425  16.120  0.7082 -1.1363  1.6811
 7684TIP3   OH244542   1.144   5.646  14.015  0.1743  0.6257  0.1326
 7684TIP3    H144543   1.111   5.725  13.974  1.0215  0.5982 -0.6109
 7684TIP3    H244544   1.098   5.575  13.971  1.4221  0.5714 -1.1158
 7685TIP3   OH244545   5.921   3.956  16.724 -0.9078  0.1014 -0.1142
 7685TIP3    H144546   5.954   4.033  16.678 -1.8098  0.8974  0.5106
 7685TIP3    H244547   5.853   3.991  16.783 -2.1768 -1.3104 -0.6638
 7686TIP3   OH244548   0.052   4.188   5.033 -0.7906  0.0962 -0.2728
 7686TIP3    H144549   0.082   4.274   5.004 -1.3360  0.1569 -0.6980
 7686TIP3    H244550   0.009   4.151   4.955  1.7864 -1.7137 -0.9707
 7687TIP3   OH244551   4.843   4.340   2.014 -0.2026  0.6475  0.5361
 7687TIP3    H144552   4.782   4.267   2.009 -0.6594  1.0928 -2.9624
 7687TIP3    H244553   4.916   4.307   2.066 -0.8704 -1.9408 -0.0211
 7688TIP3   OH244554   6.481   3.963  13.855 -0.1385 -0.4030  0.2481
 7688TIP3    H144555   6.483   3.957  13.760  0.4507  0.2838  0.2076
 7688TIP3    H244556   6.571   3.944  13.882 -0.5642 -1.7871  0.7551
 7689TIP3   OH244557   1.033   4.020   0.172  0.0655 -0.3285 -0.0642
 7689TIP3    H144558   1.002   3.946   0.120 -2.4577  1.2218 -0.9708
 7689TIP3    H244559   0.964   4.033   0.238  0.2152  1.4552 -0.2159
 7690TIP3   OH244560   2.097   2.955  16.306 -0.2056 -0.2995  0.6032
 7690TIP3    H144561   2.162   2.885  16.302  0.3770  0.2787 -1.4162
 7690TIP3    H244562   2.031   2.930  16.242  0.3472  1.2487 -0.6608
 7691TIP3   OH244563   3.337   3.315   3.398 -0.3634  0.0379 -0.3474
 7691TIP3    H144564   3.248   3.346   3.382 -0.3499 -0.3159 -1.1642
 7691TIP3    H244565   3.342   3.232   3.351  0.5249  0.2543 -0.6533
 7692TIP3   OH244566   3.222   5.075   3.348  0.0909  0.1376  0.1421
 7692TIP3    H144567   3.297   5.028   3.383 -0.1573 -0.7863 -0.5358
 7692TIP3    H244568   3.147   5.044   3.399 -0.1461 -0.5955 -0.6224
 7693TIP3   OH244569   1.101   5.940   6.796 -0.1655  0.4492 -0.2654
 7693TIP3    H144570   1.170   5.941   6.730 -0.0588 -1.2410 -0.2098
 7693TIP3    H244571   1.148   5.955   6.879  0.0792 -0.2068 -0.2810
 7694TIP3   OH244572   1.790   3.723   2.808  0.0822  0.1921 -0.2402
 7694TIP3    H144573   1.798   3.736   2.713  1.8117 -0.7077 -0.2694
 7694TIP3    H244574   1.850   3.787   2.846 -0.9287  0.8479  0.2982
 7695TIP3   OH244575   6.715   6.303   4.861  0.2776 -0.0535  0.1298
 7695TIP3    H144576   6.739   6.236   4.796  0.9289  1.0464 -0.8128
 7695TIP3    H244577   6.708   6.384   4.810 -1.2354  0.4790  1.1189
 7696TIP3   OH244578   0.366   0.910  12.330  0.5420 -0.5432 -0.1385
 7696TIP3    H144579   0.287   0.951  12.294  0.0825 -3.0288 -2.3062
 7696TIP3    H244580   0.334   0.851  12.398  0.3339 -2.0272 -1.4439
 7697TIP3   OH244581   0.762   3.828   0.469 -0.0239  0.3860  0.3263
 7697TIP3    H144582   0.766   3.808   0.562 -0.1408 -1.3258 -0.0012
 7697TIP3    H244583   0.850   3.811   0.436  0.3632  2.2001  0.3059
 7698TIP3   OH244584   1.240   6.248   4.832 -0.5016 -0.0362  0.3248
 7698TIP3    H144585   1.245   6.167   4.882 -1.1995 -0.7817 -0.7551
 7698TIP3    H244586   1.158   6.240   4.783 -0.8390  1.5630  0.5914
 7699TIP3   OH244587   3.603   3.896  14.109  0.3652  0.6575 -0.1264
 7699TIP3    H144588   3.568   3.956  14.174 -1.4239  0.0854 -0.5012
 7699TIP3    H244589   3.547   3.909  14.032 -0.0417 -1.4222 -0.2329
 7700TIP3   OH244590   0.973   3.703  14.677  0.8466  0.4392  0.4575
 7700TIP3    H144591   0.926   3.728  14.597  1.0320  0.6990  0.4274
 7700TIP3    H244592   1.065   3.716  14.656  0.8672  1.0024  0.8768
 7701TIP3   OH244593   1.117   6.269  13.471 -0.0966  0.3859  0.8251
 7701TIP3    H144594   1.057   6.197  13.492 -0.0051  0.4265  1.2349
 7701TIP3    H244595   1.132   6.313  13.555  1.6084 -0.4704  1.0034
 7702TIP3   OH244596   4.477   4.592  15.141  0.5349 -0.2292  0.2511
 7702TIP3    H144597   4.538   4.654  15.101  0.2538  1.0937  1.7817
 7702TIP3    H244598   4.399   4.596  15.085 -0.2755  2.4293  1.4226
 7703TIP3   OH244599   2.639   0.329   0.255 -0.1950 -1.1435 -0.7317
 7703TIP3    H144600   2.566   0.380   0.222 -0.2948 -1.2981 -0.7517
 7703TIP3    H244601   2.716   0.366   0.213 -0.1741 -0.4739 -0.1205
 7704TIP3   OH244602   4.658   4.549  10.889  0.5138  0.0960  0.0139
 7704TIP3    H144603   4.605   4.500  10.827  0.6109 -1.5125  1.1373
 7704TIP3    H244604   4.649   4.640  10.862 -3.4154  0.0271  0.5299
 7705TIP3   OH244605   4.791   1.498  13.707  0.2485 -0.7451 -0.1206
 7705TIP3    H144606   4.783   1.403  13.702 -1.6339 -0.5629 -1.9659
 7705TIP3    H244607   4.786   1.528  13.616 -0.7236  1.2010  0.5121
 7706TIP3   OH244608   5.120   4.603   0.344 -0.3662  0.1653 -0.3104
 7706TIP3    H144609   5.066   4.541   0.295 -3.2901  0.3154  2.4480
 7706TIP3    H244610   5.186   4.549   0.387 -0.3486 -0.4707 -1.1186
 7707TIP3   OH244611   4.334   5.576   4.070  0.5348 -0.4681 -0.0926
 7707TIP3    H144612   4.284   5.511   4.118  0.7436  0.0682  0.8809
 7707TIP3    H244613   4.346   5.648   4.132  1.8008 -0.2429 -0.5651
 7708TIP3   OH244614   5.306   2.424  16.652 -0.0203 -0.0438  0.1225
 7708TIP3    H144615   5.258   2.506  16.661  0.2203  0.0968  0.1494
 7708TIP3    H244616   5.398   2.450  16.652  0.0599 -0.3206  0.1930
 7709TIP3   OH244617   1.933   0.950  11.869  0.2393 -0.5761 -0.4208
 7709TIP3    H144618   1.989   0.992  11.933  0.0013  0.0652 -0.6308
 7709TIP3    H244619   1.956   0.991  11.786 -2.2654  1.5539 -0.1832
 7710TIP3   OH244620   5.165   4.520  13.953 -0.4501  0.6121  0.2141
 7710TIP3    H144621   5.216   4.501  13.874  0.0279 -0.4895  0.7696
 7710TIP3    H244622   5.104   4.589  13.926  1.2003  1.8593 -0.5054
 7711TIP3   OH244623   3.910   3.420  16.864  0.1633  0.5432 -0.6101
 7711TIP3    H144624   3.996   3.462  16.861  0.2235  0.3828 -1.3254
 7711TIP3    H244625   3.880   3.434  16.953  0.9958  0.4752 -0.3072
 7712TIP3   OH244626   6.253   3.223   6.360 -0.4506  0.1123 -0.1468
 7712TIP3    H144627   6.192   3.156   6.330 -0.9624  0.1409  0.7777
 7712TIP3    H244628   6.338   3.193   6.330 -0.9835  0.4744 -2.1562
 7713TIP3   OH244629   6.267   1.204   3.223 -0.4123 -0.4649 -0.2311
 7713TIP3    H144630   6.208   1.156   3.281  0.0012  0.4983  1.0448
 7713TIP3    H244631   6.250   1.296   3.242  0.5514 -0.1472 -0.8043
 7714TIP3   OH244632   6.476   3.005  11.541 -0.5280 -0.5036  0.2393
 7714TIP3    H144633   6.409   2.981  11.605 -0.5019 -0.8474  0.1340
 7714TIP3    H244634   6.506   2.922  11.504 -0.2774 -0.3298  0.0484
 7715TIP3   OH244635   3.254   4.709   2.700  0.2711  0.2028 -0.1133
 7715TIP3    H144636   3.314   4.761   2.754 -0.0619 -0.6641  1.1544
 7715TIP3    H244637   3.312   4.658   2.643  0.7344 -0.2309  0.7251
 7716TIP3   OH244638   6.362   0.619  13.236 -0.5388 -0.3832 -0.6657
 7716TIP3    H144639   6.367   0.532  13.196  0.2969 -0.6029 -0.1136
 7716TIP3    H244640   6.269   0.638  13.240 -0.6979 -0.9559 -1.4303
 7717TIP3   OH244641   6.024   2.080   3.487 -0.3857 -0.1187  0.4007
 7717TIP3    H144642   5.982   2.048   3.567 -1.4514 -0.5164 -0.2809
 7717TIP3    H244643   6.059   2.001   3.445 -3.4883 -0.6350 -1.5519
 7718TIP3   OH244644   2.429   3.441  16.130 -0.2683 -0.8347 -0.2426
 7718TIP3    H144645   2.372   3.413  16.202 -0.5629 -0.8448 -0.4781
 7718TIP3    H244646   2.515   3.453  16.171 -0.4432 -0.7976  0.1216
 7719TIP3   OH244647   0.181   4.875   0.691  0.1065 -0.0139  0.2953
 7719TIP3    H144648   0.198   4.785   0.663  0.7137 -0.0744  0.8265
 7719TIP3    H244649   0.153   4.866   0.782 -0.0438  0.3197  0.2821
 7720TIP3   OH244650   6.606   5.368   1.459  0.2904 -0.2346 -0.5267
 7720TIP3    H144651   6.651   5.447   1.490 -0.8704  0.8355 -1.4151
 7720TIP3    H244652   6.659   5.295   1.491  1.6860  0.9183 -0.1029
 7721TIP3   OH244653   1.177   6.357  16.802  0.0378 -0.1590  0.3446
 7721TIP3    H144654   1.153   6.279  16.852 -0.6971 -0.1861 -0.0405
 7721TIP3    H244655   1.212   6.323  16.719 -0.6881 -0.0828 -0.0022
 7722TIP3   OH244656   4.315   0.362   2.730  0.7999  0.2725 -0.0959
 7722TIP3    H144657   4.392   0.322   2.771  0.0362 -0.3967  0.7323
 7722TIP3    H244658   4.293   0.302   2.658  0.6562  0.1178  0.0790
 7723TIP3   OH244659   6.414   5.073   3.780  0.4189  0.1910 -0.0168
 7723TIP3    H144660   6.371   5.002   3.826 -0.1161  1.4432  1.4943
 7723TIP3    H244661   6.495   5.034   3.746 -0.1611 -1.2745  0.2116
 7724TIP3   OH244662   0.922   0.113   2.086  0.3990  0.5512  0.0453
 7724TIP3    H144663   1.006   0.157   2.104 -0.2241  1.6945  0.3026
 7724TIP3    H244664   0.880   0.168   2.020  0.5876 -0.9930 -1.4330
 7725TIP3   OH244665   3.136   2.024  12.401  0.1502  0.1410 -0.4417
 7725TIP3    H144666   3.152   2.114  12.430  2.3338 -0.0364 -0.9092
 7725TIP3    H244667   3.143   2.027  12.306  0.4361 -0.5562 -0.4518
 7726TIP3   OH244668   1.587   0.057  11.281  0.1459  0.0818  0.3996
 7726TIP3    H144669   1.532   0.121  11.325  1.6246 -0.0536  2.6241
 7726TIP3    H244670   1.530  -0.017  11.264 -1.0023  1.0314 -0.0233
 7727TIP3   OH244671   5.294   3.423  12.090  0.0117  0.7871  0.0114
 7727TIP3    H144672   5.334   3.503  12.056  0.6347  0.8507  0.8713
 7727TIP3    H244673   5.211   3.450  12.127 -0.1799  0.8854 -0.4760
 7728TIP3   OH244674   6.552   3.322  14.947 -0.1213  0.0188 -0.5135
 7728TIP3    H144675   6.610   3.247  14.949 -0.6579 -0.3908 -0.1481
 7728TIP3    H244676   6.562   3.358  14.858  2.4630  1.3769  0.2338
 7729TIP3   OH244677   5.152   1.983  11.254 -0.1631  0.8313 -0.3773
 7729TIP3    H144678   5.088   2.041  11.213 -0.5738  2.6539  2.5520
 7729TIP3    H244679   5.102   1.931  11.316  0.9988  1.8319  1.4935
 7730TIP3   OH244680   4.045   0.493   1.024  0.2123  0.5571 -0.4277
 7730TIP3    H144681   4.101   0.507   0.948  0.7135  1.3208  0.0611
 7730TIP3    H244682   4.107   0.472   1.095 -0.1222  1.3188  0.1001
 7731TIP3   OH244683   2.195   0.436   2.654  0.3428  0.3558  0.5305
 7731TIP3    H144684   2.200   0.500   2.583  0.0084  0.5307  0.6567
 7731TIP3    H244685   2.285   0.411   2.672  0.3311 -1.2746 -1.3671
 7732TIP3   OH244686   5.725   6.780  16.016 -0.2871  0.4242  0.0238
 7732TIP3    H144687   5.694   6.764  15.927 -0.4700 -1.3076  0.3623
 7732TIP3    H244688   5.648   6.813  16.063 -0.1856  1.3546 -0.4374
 7733TIP3   OH244689   3.261   0.512  14.928  0.1656  0.4939 -0.1452
 7733TIP3    H144690   3.338   0.539  14.878  0.1753 -0.3975 -0.6319
 7733TIP3    H244691   3.297   0.467  15.005  0.1399  0.5773 -0.0851
 7734TIP3   OH244692   0.868   5.902  16.514  0.3367  0.9208  0.2498
 7734TIP3    H144693   0.870   5.855  16.598 -0.6924 -0.7104 -0.5716
 7734TIP3    H244694   0.944   5.868  16.466  0.8315  1.7330  0.4339
 7735TIP3   OH244695   1.161   1.242   1.611 -0.3077 -0.8674  0.2358
 7735TIP3    H144696   1.219   1.210   1.680  1.3165 -1.2945 -1.2655
 7735TIP3    H244697   1.216   1.301   1.559 -0.9568 -1.8841 -1.6859
 7736TIP3   OH244698   2.135   4.505   2.198 -0.3217 -0.1771 -0.0149
 7736TIP3    H144699   2.226   4.498   2.172 -0.3144  0.7500 -0.2893
 7736TIP3    H244700   2.089   4.442   2.142 -0.0653  0.5370 -1.0657
 7737TIP3   OH244701   6.700   3.935   1.982  0.1457 -0.1896  0.0996
 7737TIP3    H144702   6.754   3.871   2.028 -1.2278 -1.7192 -0.3073
 7737TIP3    H244703   6.736   3.936   1.893  0.5276  0.0373  0.2546
 7738TIP3   OH244704   0.478   0.977  16.839  0.4111  0.1372 -0.2376
 7738TIP3    H144705   0.526   0.948  16.917  0.2122  2.6899  0.9250
 7738TIP3    H244706   0.387   0.978  16.865 -0.0156 -1.6578 -1.4582
 7739TIP3   OH244707   5.387   1.415   5.966  0.0387 -0.0655  0.3073
 7739TIP3    H144708   5.334   1.411   5.886  0.3393 -0.0043  0.1018
 7739TIP3    H244709   5.462   1.470   5.942 -0.2821  0.6270  0.8774
 7740TIP3   OH244710   0.477   5.784  15.743 -0.6171  0.0468 -0.0943
 7740TIP3    H144711   0.485   5.765  15.650  0.6565 -1.0131  0.2048
 7740TIP3    H244712   0.567   5.785  15.776 -1.1056 -2.3029  1.6010
 7741TIP3   OH244713   4.539   2.813  12.503  0.2581  0.1036 -0.0326
 7741TIP3    H144714   4.599   2.806  12.429  1.3269  0.1913  0.7971
 7741TIP3    H244715   4.556   2.900  12.539 -1.2941  0.6344 -0.5524
 7742TIP3   OH244716   0.467   3.550   2.397 -0.1525 -0.0924 -0.3016
 7742TIP3    H144717   0.376   3.567   2.422  0.2387  0.9146  0.5439
 7742TIP3    H244718   0.502   3.497   2.468  0.4653  1.2665  0.4630
 7743TIP3   OH244719   4.745   4.667   4.988 -0.1431 -0.1467  0.5580
 7743TIP3    H144720   4.821   4.693   4.937  0.5533 -1.0980  1.0879
 7743TIP3    H244721   4.671   4.706   4.942  0.8523  3.4935  1.7711
 7744TIP3   OH244722   2.645   3.355  17.132  0.2236 -0.2878  0.5516
 7744TIP3    H144723   2.651   3.389  17.043 -0.9139 -0.2260  0.4825
 7744TIP3    H244724   2.560   3.312  17.135  0.1356 -0.0607  1.6834
 7745TIP3   OH244725   6.178   5.826  12.661 -0.2874  0.4059  0.0628
 7745TIP3    H144726   6.084   5.826  12.643 -0.1260 -1.7325 -1.1770
 7745TIP3    H244727   6.216   5.883  12.595 -0.6076  0.2537 -0.2553
 7746TIP3   OH244728   0.059   4.575   0.208 -0.2294  0.2193  0.1440
 7746TIP3    H144729   0.061   4.664   0.245 -0.1880  0.6943 -0.9737
 7746TIP3    H244730   0.142   4.567   0.161 -0.5308 -0.1644 -0.3287
 7747TIP3   OH244731   6.007   3.855  11.313 -0.0924 -0.5296 -0.0818
 7747TIP3    H144732   6.069   3.925  11.292  0.9951 -1.1521  0.8808
 7747TIP3    H244733   5.921   3.893  11.299  0.4949  0.2882 -1.7165
 7748TIP3   OH244734   2.879   3.955   2.388  0.0816  0.8202  0.1777
 7748TIP3    H144735   2.966   3.942   2.426  0.1922 -0.6302 -0.5089
 7748TIP3    H244736   2.872   4.050   2.378  1.0392  1.0608  1.4839
 7749TIP3   OH244737   0.811   0.448  12.368 -0.1602  0.0790  0.0346
 7749TIP3    H144738   0.899   0.411  12.360  0.0106  0.8211 -2.4096
 7749TIP3    H244739   0.798   0.496  12.286 -2.5431  0.6621  0.6852
 7750TIP3   OH244740   3.299   5.859  14.432 -0.4688  0.9369  0.2947
 7750TIP3    H144741   3.273   5.905  14.353  1.5431  0.1289 -0.9004
 7750TIP3    H244742   3.386   5.893  14.453 -0.2839 -0.0181  1.2022
 7751TIP3   OH244743   1.547   2.230  10.365  0.1657 -0.1366 -0.5045
 7751TIP3    H144744   1.545   2.320  10.331 -0.4024  0.4278  0.9305
 7751TIP3    H244745   1.501   2.235  10.449 -1.0267 -2.0571 -0.9955
 7752TIP3   OH244746   6.208   3.327   4.534 -0.6171  0.3631  0.0369
 7752TIP3    H144747   6.227   3.420   4.518  1.1938  0.1901  0.9566
 7752TIP3    H244748   6.264   3.280   4.472 -0.7217 -0.1249  0.3067
 7753TIP3   OH244749   0.881   5.688  14.604 -0.2593 -0.2677 -0.2609
 7753TIP3    H144750   0.870   5.621  14.537  1.2905 -0.0191 -0.8229
 7753TIP3    H244751   0.921   5.642  14.678 -0.5268 -0.2341 -0.0925
 7754TIP3   OH244752   0.020   0.188   3.047 -0.2246 -0.0793  0.5698
 7754TIP3    H144753  -0.069   0.155   3.063  0.4690 -1.8617  1.0303
 7754TIP3    H244754   0.070   0.111   3.019  0.9400  1.1006 -0.7734
 7755TIP3   OH244755   2.781   6.185   4.442  0.6417  0.3195 -0.3539
 7755TIP3    H144756   2.722   6.219   4.509 -0.7406 -0.3373 -1.2073
 7755TIP3    H244757   2.844   6.132   4.490 -0.0454  0.2444  0.4820
 7756TIP3   OH244758   5.244   1.231   5.554  0.5578 -0.0858  0.6821
 7756TIP3    H144759   5.284   1.152   5.591 -0.2627 -0.1486  1.4716
 7756TIP3    H244760   5.163   1.200   5.514  0.7011  0.2187  0.1492
 7757TIP3   OH244761   0.348   2.623   1.780  0.0219  1.2546 -0.1893
 7757TIP3    H144762   0.278   2.688   1.787  1.2366  2.4851  0.9200
 7757TIP3    H244763   0.403   2.655   1.709  0.8749  1.7148  0.6599
 7758TIP3   OH244764   2.058   4.472  13.566 -0.5060  0.1257  0.8188
 7758TIP3    H144765   2.079   4.380  13.584 -0.7292 -0.2538 -0.7346
 7758TIP3    H244766   1.975   4.469  13.519 -1.3760  1.2625  2.1743
 7759TIP3   OH244767   2.570   5.626  14.578  0.1606 -0.1347  0.3960
 7759TIP3    H144768   2.601   5.628  14.669  0.3729  2.9662  0.3779
 7759TIP3    H244769   2.623   5.692  14.534 -0.8929 -0.5941 -1.6690
 7760TIP3   OH244770   0.508   6.098  15.717 -0.5243 -0.0168 -0.2734
 7760TIP3    H144771   0.497   6.029  15.782  1.4492  0.8030  1.0316
 7760TIP3    H244772   0.481   6.179  15.762  1.8891  0.7168  0.0167
 7761TIP3   OH244773   4.738   6.241   2.723  0.0995  0.0496 -0.3538
 7761TIP3    H144774   4.717   6.169   2.782  1.3649  0.0717  0.1678
 7761TIP3    H244775   4.655   6.264   2.682 -1.3827  1.5519  3.0814
 7762TIP3   OH244776   0.758   5.751  12.539  0.1978  0.4155 -0.3569
 7762TIP3    H144777   0.803   5.730  12.621 -1.2545 -1.2699  0.0699
 7762TIP3    H244778   0.812   5.711  12.471  1.0669  1.2727 -0.2092
 7763TIP3   OH244779   4.053   0.568  12.568 -0.4611  0.0312  0.1005
 7763TIP3    H144780   4.083   0.519  12.491  1.1745 -1.0904  1.3715
 7763TIP3    H244781   4.075   0.659  12.549  0.2776 -0.2808 -0.6052
 7764TIP3   OH244782   1.266   4.210  14.489  0.2318 -0.0901 -0.1112
 7764TIP3    H144783   1.286   4.143  14.424  0.2728  0.4999 -0.7180
 7764TIP3    H244784   1.171   4.209  14.497  0.0775  0.9865 -1.4561
 7765TIP3   OH244785   0.341   4.192  15.070 -0.1694 -0.0203 -0.0492
 7765TIP3    H144786   0.309   4.274  15.031  0.3455  0.6751  0.9441
 7765TIP3    H244787   0.279   4.174  15.141  0.3101  0.0791  0.4012
 7766TIP3   OH244788   6.683   5.118  15.541  0.7973  0.2717  0.1892
 7766TIP3    H144789   6.737   5.141  15.466 -1.4477  1.6421 -1.1434
 7766TIP3    H244790   6.620   5.190  15.548 -0.5595 -0.9780  1.9022
 7767TIP3   OH244791   1.044   3.286  12.400 -0.1030 -0.5831  0.3622
 7767TIP3    H144792   1.085   3.344  12.465 -0.4164  0.4120 -0.3204
 7767TIP3    H244793   1.118   3.248  12.353  0.0788  0.5523 -0.2977
 7768TIP3   OH244794   1.417   5.527   2.905  0.3642  0.5232 -0.5087
 7768TIP3    H144795   1.343   5.466   2.897  0.9177 -0.2250 -0.0713
 7768TIP3    H244796   1.383   5.610   2.871 -0.4356 -0.0025 -1.0415
 7769TIP3   OH244797   3.574   4.973   3.180 -0.3691  0.2143 -0.1430
 7769TIP3    H144798   3.648   5.017   3.221  1.7173 -1.3814 -2.0025
 7769TIP3    H244799   3.581   4.994   3.087 -0.2584 -2.5519 -0.8481
 7770TIP3   OH244800   0.076   6.798  11.462 -0.0485 -0.5423 -0.1315
 7770TIP3    H144801   0.076   6.780  11.368 -0.7773 -2.1830  0.1535
 7770TIP3    H244802   0.106   6.717  11.503 -1.9238 -0.6419  1.1598
 7771TIP3   OH244803   6.643   6.035   0.044 -0.5037 -0.0910 -0.0670
 7771TIP3    H144804   6.663   6.003  -0.044  1.3466  1.5306 -0.2943
 7771TIP3    H244805   6.596   6.117   0.029  0.5250  0.6042  0.4166
 7772TIP3   OH244806   4.560   2.348   4.277 -0.0938  0.3503 -0.4542
 7772TIP3    H144807   4.484   2.394   4.313  0.2514 -0.3979  1.3245
 7772TIP3    H244808   4.565   2.267   4.327  1.5461  0.1102 -0.9405
 7773TIP3   OH244809   0.596   3.273  14.301 -0.0160  0.3599 -0.9698
 7773TIP3    H144810   0.560   3.309  14.383 -0.7567 -0.3536 -0.9725
 7773TIP3    H244811   0.527   3.216  14.268  1.0876 -0.9613 -1.0437
 7774TIP3   OH244812   4.762   4.249   0.513 -0.5101  0.7988 -0.1504
 7774TIP3    H144813   4.738   4.340   0.497 -2.0158  0.1873 -1.7215
 7774TIP3    H244814   4.700   4.219   0.579 -0.7442  0.6320 -0.4402
 7775TIP3   OH244815   4.367   2.955   5.910 -0.1464  0.0971 -0.0051
 7775TIP3    H144816   4.461   2.939   5.907 -0.2125 -0.4499  0.6166
 7775TIP3    H244817   4.350   2.983   6.000 -0.3228  1.9431 -0.5676
 7776TIP3   OH244818   3.822   5.220  14.895 -0.0147  0.4035 -0.8072
 7776TIP3    H144819   3.737   5.261  14.880 -0.2205 -0.7503 -3.3157
 7776TIP3    H244820   3.802   5.127  14.910  0.7091  0.4345  0.5175
 7777TIP3   OH244821   4.968   5.545   0.602  0.1422  0.0381  0.0460
 7777TIP3    H144822   4.975   5.455   0.635  0.0428 -0.2118 -0.6078
 7777TIP3    H244823   4.941   5.535   0.511 -0.3433  0.7455  0.1056
 7778TIP3   OH244824   5.147   0.712   1.840 -0.6557  0.0509  0.2192
 7778TIP3    H144825   5.177   0.773   1.909  1.3906 -1.0781  0.4235
 7778TIP3    H244826   5.150   0.764   1.760 -0.7476  0.7278  0.6410
 7779TIP3   OH244827   2.349   3.363   4.846 -0.0154 -0.2789 -0.4560
 7779TIP3    H144828   2.308   3.277   4.844 -1.4261  0.2783  1.4649
 7779TIP3    H244829   2.281   3.422   4.879  1.1367  1.4507 -1.0088
 7780TIP3   OH244830   0.068   1.628  12.645  0.3806 -0.1036 -0.1598
 7780TIP3    H144831   0.162   1.625  12.632  0.5686  0.1742  1.0508
 7780TIP3    H244832   0.047   1.543  12.686 -0.0942 -0.6855 -1.5406
 7781TIP3   OH244833   6.681   0.254   0.593  0.3818  0.0193  0.2994
 7781TIP3    H144834   6.775   0.234   0.601  0.3959 -0.1143 -0.1648
 7781TIP3    H244835   6.649   0.192   0.529  0.0708  0.3857  0.0979
 7782TIP3   OH244836   3.597   5.339   4.393  0.5315 -0.1589  0.3103
 7782TIP3    H144837   3.622   5.290   4.472  3.2423  1.2309  0.4597
 7782TIP3    H244838   3.617   5.430   4.415  0.6617  0.3438 -1.7284
 7783TIP3   OH244839   6.057   4.288  11.864  0.3401 -0.1161  0.0509
 7783TIP3    H144840   5.962   4.282  11.862  0.3023 -0.3637 -3.2253
 7783TIP3    H244841   6.076   4.382  11.870 -0.2132  0.1298 -1.5965
 7784TIP3   OH244842   4.395   1.626   2.294  0.4842  0.2447 -0.2696
 7784TIP3    H144843   4.490   1.619   2.282  0.6143  0.8028  0.4065
 7784TIP3    H244844   4.373   1.551   2.349  0.5956  0.3427 -0.0903
 7785TIP3   OH244845   1.476   6.623  14.814  0.4733 -0.4031 -0.0548
 7785TIP3    H144846   1.414   6.553  14.796  1.1430 -0.7772 -1.0039
 7785TIP3    H244847   1.507   6.606  14.904  1.4098 -1.9672 -0.6353
 7786TIP3   OH244848   4.824   5.735  14.409 -0.3907 -0.1072  0.0305
 7786TIP3    H144849   4.839   5.812  14.464 -2.2190 -0.3151  0.8821
 7786TIP3    H244850   4.786   5.771  14.328 -0.0887 -0.0272 -0.0791
 7787TIP3   OH244851   3.996   1.748   3.198 -0.0398  0.1877  0.0977
 7787TIP3    H144852   4.034   1.665   3.170  0.2344  0.6867 -1.0278
 7787TIP3    H244853   3.948   1.726   3.279  0.0398 -1.0541 -0.1765
 7788TIP3   OH244854   2.394   6.630   3.774  0.0248 -0.2547 -0.0392
 7788TIP3    H144855   2.369   6.610   3.864 -0.2502  1.1205  0.2103
 7788TIP3    H244856   2.486   6.654   3.779 -0.5331  2.0980  0.3087
 7789TIP3   OH244857   3.271   6.314  14.470  0.3973 -0.7135 -0.3481
 7789TIP3    H144858   3.259   6.407  14.487 -1.0308 -0.6799 -1.3133
 7789TIP3    H244859   3.360   6.295  14.500  0.5199  0.8278  0.3677
 7790TIP3   OH244860   2.804   6.603  15.656 -0.1089 -0.1230 -0.2781
 7790TIP3    H144861   2.767   6.523  15.693 -0.9651  0.1624 -0.4994
 7790TIP3    H244862   2.856   6.641  15.727 -1.0752  0.0024  0.3806
 7791TIP3   OH244863   3.367   0.725   4.980 -0.2316  0.3441 -0.3472
 7791TIP3    H144864   3.406   0.714   5.067 -1.0840 -0.2860 -0.0293
 7791TIP3    H244865   3.311   0.648   4.970 -1.0687  1.0170 -0.9611
 7792TIP3   OH244866   2.464   5.523  14.190  0.5294 -0.0026 -0.6013
 7792TIP3    H144867   2.424   5.476  14.264  2.5271  0.0766  0.5958
 7792TIP3    H244868   2.390   5.548  14.135 -1.1672  0.7228  1.8241
 7793TIP3   OH244869   0.445   4.020  13.298  0.4960 -0.4802 -0.0889
 7793TIP3    H144870   0.416   3.933  13.326  0.1545 -0.2345  0.3463
 7793TIP3    H244871   0.370   4.077  13.316  1.2632  0.1997  1.1670
 7794TIP3   OH244872   4.748   0.337   3.267 -0.1281 -0.5933  0.1187
 7794TIP3    H144873   4.772   0.339   3.175  0.8934 -1.1976  0.3481
 7794TIP3    H244874   4.814   0.392   3.310 -0.2309 -0.8074  0.5552
 7795TIP3   OH244875   5.988   5.028   0.140 -0.3210 -0.3727  0.2178
 7795TIP3    H144876   6.058   4.990   0.194 -0.8459 -1.8907 -0.1205
 7795TIP3    H244877   5.917   5.045   0.202  0.7465  2.4636  0.8181
 7796TIP3   OH244878   1.194   1.849  14.136  0.0215  0.7346 -0.6948
 7796TIP3    H144879   1.186   1.891  14.222  0.4149  1.6670 -1.1025
 7796TIP3    H244880   1.210   1.921  14.076  0.4508  0.0157 -1.4581
 7797TIP3   OH244881   5.828   3.177   5.031  0.3495 -0.2435  0.4899
 7797TIP3    H144882   5.795   3.220   5.110  1.7403  0.4076  0.7523
 7797TIP3    H244883   5.911   3.222   5.012  0.2416 -0.6650 -1.1111
 7798TIP3   OH244884   3.656   2.644  16.064 -0.5475 -0.6055  0.1359
 7798TIP3    H144885   3.584   2.706  16.057 -0.0288 -0.0678 -0.4396
 7798TIP3    H244886   3.690   2.635  15.975 -0.3601 -1.4147  0.2755
 7799TIP3   OH244887   4.333   1.390   0.016  0.1593 -0.0262 -0.0195
 7799TIP3    H144888   4.329   1.483  -0.005 -2.8925 -0.1180 -0.3671
 7799TIP3    H244889   4.363   1.348  -0.065 -0.5551  0.5121 -0.5824
 7800TIP3   OH244890   1.337   3.915  17.275  0.1518  0.0863  0.0618
 7800TIP3    H144891   1.371   3.847  17.217  0.0521 -0.5991  0.7989
 7800TIP3    H244892   1.387   3.906  17.355  0.4943  1.2321 -0.0129
 7801TIP3   OH244893   0.457   0.195  10.905 -0.2512 -0.1161  0.6769
 7801TIP3    H144894   0.480   0.117  10.955  0.6709  0.4489  1.1639
 7801TIP3    H244895   0.426   0.161  10.821  0.0753 -1.0047  0.8994
 7802TIP3   OH244896   2.928   6.338   5.232  0.6245  0.0338  0.2434
 7802TIP3    H144897   2.967   6.367   5.314  0.5546 -0.9204  0.6247
 7802TIP3    H244898   2.840   6.309   5.256  0.5388 -0.0831 -0.2025
 7803TIP3   OH244899   5.127   5.880   1.247  0.1520 -0.7715  0.3983
 7803TIP3    H144900   5.063   5.887   1.176 -1.1588 -2.4357  1.3259
 7803TIP3    H244901   5.108   5.796   1.288  1.2007 -0.1075  2.4031
 7804TIP3   OH244902   5.281   1.910   0.578  0.6456  0.0514 -0.1696
 7804TIP3    H144903   5.237   1.965   0.513 -0.3585 -2.4940 -1.8229
 7804TIP3    H244904   5.214   1.894   0.645  0.1531 -0.9921 -0.8898
 7805TIP3   OH244905   3.915   2.390   4.231 -0.0845  0.3970 -0.4285
 7805TIP3    H144906   3.987   2.453   4.243  0.8324 -0.8744  1.1090
 7805TIP3    H244907   3.871   2.387   4.315 -0.3215 -0.7559 -0.5786
 7806TIP3   OH244908   6.397   2.366  11.602  0.5144  0.2924 -0.0976
 7806TIP3    H144909   6.381   2.352  11.695  2.1331  1.0993  0.3300
 7806TIP3    H244910   6.490   2.385  11.596  0.0713  2.3398 -1.6036
 7807TIP3   OH244911   4.131   4.578  12.547  0.2698  0.0534 -0.0982
 7807TIP3    H144912   4.162   4.666  12.565  0.1497 -0.1926  1.5139
 7807TIP3    H244913   4.209   4.530  12.518  1.2903 -0.2823  2.8562
 7808TIP3   OH244914   6.503   5.854   0.666  0.6486  0.3586  0.1326
 7808TIP3    H144915   6.569   5.922   0.654 -0.2192  1.2617  0.2905
 7808TIP3    H244916   6.452   5.855   0.586 -0.3261  0.9910  0.7370
 7809TIP3   OH244917   2.508   6.344  17.137 -0.0437 -0.2234  0.5662
 7809TIP3    H144918   2.601   6.346  17.160 -0.3215 -1.5184  1.9448
 7809TIP3    H244919   2.478   6.433  17.156  0.9805  0.3291 -0.2853
 7810TIP3   OH244920   3.915   1.261   0.607 -0.1628 -0.7546  0.1215
 7810TIP3    H144921   3.827   1.296   0.619  0.0431 -0.1736 -0.0178
 7810TIP3    H244922   3.919   1.184   0.664 -1.1801 -1.5589 -0.8618
 7811TIP3   OH244923   4.538   1.166  11.515  0.5324 -0.5037  0.1616
 7811TIP3    H144924   4.490   1.219  11.579  1.4876 -0.5116  0.9087
 7811TIP3    H244925   4.513   1.202  11.430 -1.0453 -0.7203  0.5019
 7812TIP3   OH244926   4.433   3.747  14.864 -0.4022 -0.2149 -0.0999
 7812TIP3    H144927   4.484   3.667  14.863  0.4862  0.3366 -0.0371
 7812TIP3    H244928   4.348   3.722  14.901  0.0506 -1.0085  0.4043
 7813TIP3   OH244929   5.376   1.185  14.421  0.2861  0.0359  0.8060
 7813TIP3    H144930   5.323   1.117  14.464 -0.3160 -0.7411 -1.0741
 7813TIP3    H244931   5.349   1.182  14.329  0.9473  2.1910  0.4945
 7814TIP3   OH244932   6.165   2.688  15.154  0.2654 -0.5352 -0.5986
 7814TIP3    H144933   6.187   2.779  15.136  0.8182 -0.5246  0.1001
 7814TIP3    H244934   6.135   2.654  15.069  0.4301  0.1802 -0.9557
 7815TIP3   OH244935   0.944   1.513   2.977 -0.6597 -0.1571 -0.5860
 7815TIP3    H144936   0.884   1.486   3.046 -0.5687 -1.1701 -0.8966
 7815TIP3    H244937   0.919   1.604   2.959  0.3774  0.7007  1.8980
 7816TIP3   OH244938   1.714   1.749   3.842  1.0471  0.3007 -0.3228
 7816TIP3    H144939   1.665   1.804   3.782  1.1518  0.9681  0.1869
 7816TIP3    H244940   1.648   1.700   3.890  0.9315  0.2843 -0.5008
 7817TIP3   OH244941   3.792   2.989   4.835 -0.5542 -0.1714 -0.5005
 7817TIP3    H144942   3.811   2.996   4.741 -0.0301 -0.2185 -0.4017
 7817TIP3    H244943   3.739   2.910   4.844 -0.8126 -0.0321 -0.7853
 7818TIP3   OH244944   5.765   2.280   6.192 -0.3214  0.3967  0.0131
 7818TIP3    H144945   5.843   2.225   6.202 -0.3689  0.3170 -0.0550
 7818TIP3    H244946   5.712   2.260   6.269  0.6197  1.9098  1.1222
 7819TIP3   OH244947   4.529   5.467   2.498 -0.3722 -0.4111  0.3368
 7819TIP3    H144948   4.483   5.384   2.497 -0.4900 -0.3435  0.0106
 7819TIP3    H244949   4.530   5.495   2.407 -0.9017  0.2564  0.5263
 7820TIP3   OH244950   5.789   0.625   3.921 -0.3481  0.0377  0.0820
 7820TIP3    H144951   5.730   0.671   3.861  1.2068  1.5384 -0.3585
 7820TIP3    H244952   5.829   0.556   3.868 -1.1494 -0.5298  0.1971
 7821TIP3   OH244953   5.123   3.280   0.097  0.1211  0.6038  0.0987
 7821TIP3    H144954   5.167   3.310   0.017  0.6397 -0.2392  0.0582
 7821TIP3    H244955   5.059   3.215   0.067 -1.6684  2.2810  0.0832
 7822TIP3   OH244956   2.538   1.128   3.372  0.0514 -0.4098 -0.3133
 7822TIP3    H144957   2.625   1.116   3.333  1.4722 -0.4872  2.6298
 7822TIP3    H244958   2.515   1.219   3.351  2.1435  0.5298  1.1064
 7823TIP3   OH244959   5.639   5.368   5.425 -0.1508 -0.0272 -0.3239
 7823TIP3    H144960   5.624   5.395   5.516  1.2679  0.9385 -0.3309
 7823TIP3    H244961   5.588   5.431   5.373  0.5894  0.6679 -0.2341
 7824TIP3   OH244962   2.976   2.857   1.958 -0.3063  0.7162 -0.4182
 7824TIP3    H144963   2.909   2.899   1.904  0.2253  0.9105 -0.9431
 7824TIP3    H244964   2.935   2.844   2.043 -0.3849  2.5605 -0.1492
 7825TIP3   OH244965   4.469   2.525  11.585  0.0211  0.0903 -0.5246
 7825TIP3    H144966   4.463   2.619  11.600 -0.8922  0.2882 -1.9262
 7825TIP3    H244967   4.555   2.500  11.619  0.5137  1.5263 -0.6602
 7826TIP3   OH244968   3.113   1.122   4.906 -0.0581 -0.0909 -0.0007
 7826TIP3    H144969   3.033   1.072   4.888 -0.1352  0.3727 -1.0520
 7826TIP3    H244970   3.181   1.078   4.854 -0.0146  0.5539 -0.5094
 7827TIP3   OH244971   6.444   1.299  15.606 -0.0387  0.3431  0.1085
 7827TIP3    H144972   6.515   1.250  15.564  0.1923  0.3528  0.4822
 7827TIP3    H244973   6.455   1.282  15.700  0.1439  1.2219  0.2617
 7828TIP3   OH244974   4.054   1.678   0.207 -0.2426  1.2106 -0.3991
 7828TIP3    H144975   4.007   1.718   0.280  0.0937  0.2287  0.3762
 7828TIP3    H244976   4.005   1.598   0.189 -0.2797  1.4067 -1.2219
 7829TIP3   OH244977   2.682   4.505  11.680 -0.6933  0.2849  0.1693
 7829TIP3    H144978   2.742   4.573  11.648 -1.9613  2.1344  1.5646
 7829TIP3    H244979   2.724   4.473  11.760 -2.7675  3.7356  2.9207
 7830TIP3   OH244980   0.737   1.842   3.123 -0.9375 -0.1732 -0.1812
 7830TIP3    H144981   0.683   1.764   3.119 -0.4486 -0.5055 -0.4317
 7830TIP3    H244982   0.811   1.823   3.065 -0.4563  0.1945  0.2979
 7831TIP3   OH244983   6.112   6.374   6.097  0.0951 -0.2270 -0.0416
 7831TIP3    H144984   6.153   6.388   6.183 -1.1872 -1.0219  0.7352
 7831TIP3    H244985   6.120   6.459   6.053  1.5633 -0.0526  0.4897
 7832TIP3   OH244986   2.021   3.877  13.078  0.0786 -0.1115 -0.2474
 7832TIP3    H144987   2.009   3.972  13.075  0.0747 -0.1021  0.0280
 7832TIP3    H244988   2.007   3.854  13.170 -0.0176 -0.3921 -0.3307
 7833TIP3   OH244989   1.159   6.199   1.384 -0.3210 -0.2878 -0.2411
 7833TIP3    H144990   1.099   6.219   1.455  0.0727 -1.6402  0.5070
 7833TIP3    H244991   1.124   6.247   1.309 -0.1376  2.0501  1.0783
 7834TIP3   OH244992   3.602   4.995   5.714 -0.0577 -0.2099 -0.3869
 7834TIP3    H144993   3.552   5.006   5.633  0.0237 -1.9879 -0.7235
 7834TIP3    H244994   3.613   4.900   5.722 -1.6085 -0.2549  2.6442
 7835TIP3   OH244995   0.551   3.908  12.496 -0.0452  0.0846 -0.6608
 7835TIP3    H144996   0.483   3.855  12.538  2.0349 -2.2541 -0.0236
 7835TIP3    H244997   0.566   3.979  12.558 -0.4463 -0.5655  0.2124
 7836TIP3   OH244998   5.302   0.063   4.174  0.0502  0.3412 -0.1244
 7836TIP3    H144999   5.291   0.068   4.079  0.9535 -0.1972 -0.2742
 7836TIP3    H245000   5.381   0.114   4.191 -0.4808  0.9975  0.4346
 7837TIP3   OH245001   6.122   0.779   4.681 -0.5847 -0.4845 -0.5965
 7837TIP3    H145002   6.083   0.708   4.629  1.3809 -0.2868 -2.4801
 7837TIP3    H245003   6.117   0.747   4.771  0.6681 -3.3282 -1.4065
 7838TIP3   OH245004   5.165   0.541  17.047 -0.2942 -0.3058  0.1980
 7838TIP3    H145005   5.257   0.554  17.070 -0.5631  0.7037  0.7276
 7838TIP3    H245006   5.122   0.623  17.070 -1.2906 -0.6741 -0.2817
 7839TIP3   OH245007   4.882   0.182  11.263  0.2321 -0.0834 -0.2430
 7839TIP3    H145008   4.817   0.163  11.331  1.6408 -0.8058  0.9667
 7839TIP3    H245009   4.843   0.253  11.212  0.1865  2.3969  2.9268
 7840TIP3   OH245010   0.518   4.191  13.914 -0.2384 -0.1705 -0.3422
 7840TIP3    H145011   0.491   4.110  13.959 -1.0628  0.9415  1.2486
 7840TIP3    H245012   0.608   4.174  13.886 -0.5158 -1.7684 -0.3590
 7841TIP3   OH245013   5.413   4.915   1.963  0.3247 -0.2921  0.3178
 7841TIP3    H145014   5.349   4.928   2.033 -1.5920 -0.6191 -1.2826
 7841TIP3    H245015   5.392   4.828   1.928  1.9830 -0.6106  0.0385
 7842TIP3   OH245016   3.891   1.795   2.788 -0.4994 -0.4641  0.0686
 7842TIP3    H145017   3.973   1.786   2.837 -0.7712  0.7576  0.7820
 7842TIP3    H245018   3.918   1.828   2.702 -0.1829 -0.8895 -0.0026
 7843TIP3   OH245019   2.167   0.583   3.736  0.0474 -0.0861  0.1784
 7843TIP3    H145020   2.113   0.540   3.802 -1.2142  2.2015  0.7259
 7843TIP3    H245021   2.135   0.549   3.653 -1.7857  0.6744  0.5371
 7844TIP3   OH245022   6.812   2.269   0.801 -0.9270 -0.1863  0.2890
 7844TIP3    H145023   6.803   2.197   0.864  0.5828 -0.1272  0.6153
 7844TIP3    H245024   6.734   2.263   0.747 -0.8653 -2.0646  0.3337
 7845TIP3   OH245025   0.803   2.322   0.452  0.0923  0.2570 -0.5802
 7845TIP3    H145026   0.825   2.352   0.540 -0.0521  1.0802 -0.8138
 7845TIP3    H245027   0.811   2.227   0.456 -0.4832  0.2393  0.4814
 7846TIP3   OH245028   2.482   0.832  10.490 -0.1057 -0.2978  0.3587
 7846TIP3    H145029   2.488   0.883  10.571  0.7563 -2.0636  1.4714
 7846TIP3    H245030   2.502   0.894  10.421  3.1070  0.4826  1.8177
 7847TIP3   OH245031   2.159   4.033  16.287 -0.0877  0.1493  0.4338
 7847TIP3    H145032   2.213   4.091  16.341 -0.9770  1.1547  0.2698
 7847TIP3    H245033   2.137   4.085  16.210  0.5882 -1.0316 -0.6011
 7848TIP3   OH245034   5.549   1.612  14.322  0.4489  0.0982  0.6822
 7848TIP3    H145035   5.554   1.687  14.381 -0.4570  0.9218 -0.2382
 7848TIP3    H245036   5.458   1.611  14.293  0.4273 -1.4310  0.7552
 7849TIP3   OH245037   2.068   0.784   1.687 -0.8919 -0.8288  0.2595
 7849TIP3    H145038   2.115   0.746   1.761 -0.3988 -0.5781  0.0830
 7849TIP3    H245039   2.006   0.716   1.659 -1.4887 -0.7056  1.2643
 7850TIP3   OH245040   6.662   1.755  15.107  0.7471 -0.4812  0.3096
 7850TIP3    H145041   6.586   1.698  15.115  1.8190 -1.9023  0.7475
 7850TIP3    H245042   6.721   1.727  15.177  0.4757  2.5705  1.9256
 7851TIP3   OH245043   4.531   2.992  14.502  0.1453  0.3168  0.7658
 7851TIP3    H145044   4.570   2.946  14.575  1.2657 -1.5226 -0.8984
 7851TIP3    H245045   4.605   3.030  14.454 -0.4757  0.7045  0.0842
 7852TIP3   OH245046   4.678   0.676  14.757 -0.1782  0.0139  0.3200
 7852TIP3    H145047   4.639   0.651  14.841 -1.5550 -1.3611 -0.6780
 7852TIP3    H245048   4.604   0.703  14.704  0.5463 -0.1663 -0.8033
 7853TIP3   OH245049   3.736   3.085  12.606  0.2924 -0.2668  0.1814
 7853TIP3    H145050   3.763   3.166  12.564 -0.2826 -0.9586 -1.6060
 7853TIP3    H245051   3.814   3.056  12.654  1.2374  0.1609 -1.0512
 7854TIP3   OH245052   5.668   2.623  15.208  0.1100  0.2737  0.2766
 7854TIP3    H145053   5.652   2.537  15.249 -0.6372  0.5374  0.5442
 7854TIP3    H245054   5.713   2.602  15.126  2.3775 -0.2274  1.5639
 7855TIP3   OH245055   4.818   2.992   0.583  0.0434 -0.1829  0.3092
 7855TIP3    H145056   4.863   3.038   0.513  0.6772 -2.7146 -1.0818
 7855TIP3    H245057   4.867   3.015   0.663  0.1990  1.6025 -0.2648
 7856TIP3   OH245058   1.752   3.051   2.453 -0.4463  0.0010 -0.1243
 7856TIP3    H145059   1.681   3.049   2.389 -1.9469 -0.3273  1.4593
 7856TIP3    H245060   1.716   3.100   2.527  1.1520  0.2162  0.5503
 7857TIP3   OH245061   3.401   4.354  14.701 -0.1157  0.4967 -0.0626
 7857TIP3    H145062   3.406   4.432  14.756  1.0536 -0.4186  1.1972
 7857TIP3    H245063   3.362   4.385  14.619 -0.5988  2.1846  0.7648
 7858TIP3   OH245064   2.437   6.688  14.589 -0.2604 -0.1475 -0.2853
 7858TIP3    H145065   2.455   6.782  14.598 -1.0330  0.0364 -0.6601
 7858TIP3    H245066   2.500   6.647  14.649  1.4618  0.4747 -1.5774
 7859TIP3   OH245067   0.496   1.706  10.620 -0.4112  0.3263 -0.2308
 7859TIP3    H145068   0.506   1.680  10.528  0.5837 -0.2516  0.0359
 7859TIP3    H245069   0.493   1.802  10.617 -1.8031  0.2936 -0.9860
 7860TIP3   OH245070   1.355   3.986  15.864  0.1554  0.2693 -0.2109
 7860TIP3    H145071   1.261   3.970  15.870  0.1975 -0.2173 -0.7497
 7860TIP3    H245072   1.394   3.899  15.862  0.6602  0.4684  0.5420
 7861TIP3   OH245073   3.282   5.293   3.025  0.4266  0.2478 -0.0632
 7861TIP3    H145074   3.364   5.316   2.982  0.2732 -0.5484 -0.7945
 7861TIP3    H245075   3.309   5.261   3.112  0.8797  0.0799 -0.2647
 7862TIP3   OH245076   6.370   3.611  11.230 -0.5722 -0.3203  0.3565
 7862TIP3    H145077   6.452   3.644  11.267 -0.5546 -0.1781  0.1899
 7862TIP3    H245078   6.303   3.644  11.290 -0.5909  0.3450 -0.0156
 7863TIP3   OH245079   1.152   1.011  12.744  0.1739  0.2458  0.7899
 7863TIP3    H145080   1.210   1.031  12.671  1.2420  0.4415  1.6763
 7863TIP3    H245081   1.181   0.925  12.775 -0.7778 -0.1905  0.5151
 7864TIP3   OH245082   4.539   0.440   2.391  0.5961 -0.7982  0.1160
 7864TIP3    H145083   4.469   0.413   2.332 -0.6703  0.8149  0.7782
 7864TIP3    H245084   4.617   0.445   2.336 -0.4659  0.2731 -1.3524
 7865TIP3   OH245085   3.789   2.318   1.252 -0.0165 -0.0629 -0.4652
 7865TIP3    H145086   3.767   2.398   1.204  1.2960 -0.6117 -2.0558
 7865TIP3    H245087   3.770   2.340   1.343  0.6480  2.2022 -0.7990
 7866TIP3   OH245088   2.054   5.220  17.178  0.0000  0.5996 -0.0764
 7866TIP3    H145089   2.110   5.214  17.101  0.3590 -1.0860  0.2581
 7866TIP3    H245090   1.980   5.273  17.151 -1.5290 -2.5127 -2.6591
 7867TIP3   OH245091   4.112   6.045   0.714  0.0714 -0.7442 -0.4135
 7867TIP3    H145092   4.086   6.051   0.806  0.5296 -0.6241 -0.2915
 7867TIP3    H245093   4.207   6.032   0.717 -0.0951 -2.1491 -0.8332
 7868TIP3   OH245094   0.080   1.027   5.651  0.0076 -0.6838  0.8991
 7868TIP3    H145095   0.163   1.045   5.694  1.1592 -4.1229  0.4320
 7868TIP3    H245096   0.100   1.035   5.557 -1.0918  1.5163  0.7883
 7869TIP3   OH245097   5.535   6.376   5.959  0.0257 -0.0857  0.0673
 7869TIP3    H145098   5.475   6.413   6.023  1.3365  0.4092  1.0509
 7869TIP3    H245099   5.536   6.439   5.887 -0.7900 -0.2106 -0.0561
 7870TIP3   OH245100   3.852   1.949   1.994  0.5386 -0.0222  0.2823
 7870TIP3    H145101   3.875   1.899   1.916  0.8982 -0.9183  0.9516
 7870TIP3    H245102   3.931   1.999   2.014  0.5046  0.0753  0.1744
 7871TIP3   OH245103   1.948   5.620  11.885 -0.1807  0.2910  0.2457
 7871TIP3    H145104   2.000   5.541  11.876  0.0164  0.2608  1.4641
 7871TIP3    H245105   1.973   5.656  11.970 -0.4496  1.5286 -0.1810
 7872TIP3   OH245106   1.268   0.842   6.515  0.2268 -0.1261 -0.7991
 7872TIP3    H145107   1.348   0.889   6.493  0.5326  0.3192  1.0275
 7872TIP3    H245108   1.198   0.892   6.473  0.4479  2.6702  1.7686
 7873TIP3   OH245109   2.760   0.701   6.567  0.1492  0.5198  0.4311
 7873TIP3    H145110   2.734   0.730   6.480  2.2458  1.0145 -0.0990
 7873TIP3    H245111   2.717   0.616   6.578  0.6652 -0.0516 -1.5458
 7874TIP3   OH245112   0.110   0.733  14.800 -0.2398  0.1886  0.6132
 7874TIP3    H145113   0.030   0.751  14.849 -0.8280  1.0298 -0.5960
 7874TIP3    H245114   0.103   0.641  14.775  0.8754 -0.7652  3.4604
 7875TIP3   OH245115   0.738   2.622  15.685  1.0054 -0.1376  0.5575
 7875TIP3    H145116   0.745   2.691  15.619  1.4110  1.2678  1.9966
 7875TIP3    H245117   0.781   2.546  15.646  1.6467  0.7873 -0.6032
 7876TIP3   OH245118   0.127   2.207  15.285  0.4213  0.0956 -0.4600
 7876TIP3    H145119   0.140   2.112  15.280  1.2469  0.2540 -2.1419
 7876TIP3    H245120   0.215   2.243  15.286  0.1156  0.8350  1.0924
 7877TIP3   OH245121   4.468   4.798  13.762 -0.8070 -0.4526  0.1435
 7877TIP3    H145122   4.559   4.827  13.762 -1.6205  2.4321  0.1138
 7877TIP3    H245123   4.451   4.772  13.672 -0.3633  0.3430 -0.1861
 7878TIP3   OH245124   5.100   1.906   2.554 -0.1335  0.4174  0.1275
 7878TIP3    H145125   5.029   1.957   2.514  0.2037  0.2641 -0.6887
 7878TIP3    H245126   5.093   1.925   2.647 -1.4463  0.1633  0.1082
 7879TIP3   OH245127   1.180   3.158  15.703  0.4967 -0.0694  0.4281
 7879TIP3    H145128   1.235   3.174  15.781  0.6335 -0.4660  0.4143
 7879TIP3    H245129   1.091   3.178  15.733  0.0319 -3.5453  1.7592
 7880TIP3   OH245130   2.269   6.248  10.667 -0.0209  0.1995 -0.4456
 7880TIP3    H145131   2.305   6.265  10.580  1.3996  0.7929  0.2284
 7880TIP3    H245132   2.336   6.195  10.711 -0.6442  0.0468  0.3496
 7881TIP3   OH245133   4.391   2.013   1.341  0.0873  0.0552  0.3834
 7881TIP3    H145134   4.384   2.105   1.313 -1.8595 -0.8618 -2.7087
 7881TIP3    H245135   4.483   2.002   1.363  0.5866  2.5337 -0.0885
 7882TIP3   OH245136   6.496   1.237  13.839  0.2064  0.4107  0.2311
 7882TIP3    H145137   6.516   1.179  13.766 -1.4045  0.9715 -0.7215
 7882TIP3    H245138   6.430   1.189  13.890  0.0645  0.7259  0.3474
 7883TIP3   OH245139   1.940   5.651  12.167 -0.0675  1.0049 -0.2148
 7883TIP3    H145140   2.013   5.653  12.228  0.2506 -0.4855 -0.5245
 7883TIP3    H245141   1.865   5.625  12.220  0.3026 -0.7728 -0.5088
 7884TIP3   OH245142   6.384   6.507   1.565  0.1722 -0.0592  0.0767
 7884TIP3    H145143   6.435   6.566   1.620  0.7878  0.2128 -0.7745
 7884TIP3    H245144   6.375   6.553   1.482 -1.1175 -0.2814  0.0662
 7885TIP3   OH245145   5.405   5.124   0.658 -0.4963 -0.1733  0.0696
 7885TIP3    H145146   5.334   5.188   0.654 -1.7355 -1.5322 -2.5536
 7885TIP3    H245147   5.485   5.176   0.667 -1.6621  1.5104  1.1192
 7886TIP3   OH245148   2.259   0.391  13.986 -0.1206 -0.2620  0.3423
 7886TIP3    H145149   2.322   0.427  14.049 -0.3946  2.3086 -0.7272
 7886TIP3    H245150   2.175   0.428  14.014 -0.3719  0.2361 -1.0102
 7887TIP3   OH245151   1.603   5.832  10.432  0.0873  0.3885 -0.0976
 7887TIP3    H145152   1.568   5.763  10.489  1.3144  0.1647  0.4325
 7887TIP3    H245153   1.576   5.914  10.474  0.5033  0.2242  0.5111
 7888TIP3   OH245154   1.375   4.990  12.236 -0.4280 -0.3039  0.2656
 7888TIP3    H145155   1.410   5.064  12.286 -0.0163 -0.5714  0.3749
 7888TIP3    H245156   1.443   4.971  12.171 -0.8857 -0.0647 -0.2959
 7889TIP3   OH245157   2.165   2.143   2.636 -1.1045 -0.0389 -0.0089
 7889TIP3    H145158   2.197   2.075   2.577 -1.0040  1.1421 -1.3671
 7889TIP3    H245159   2.223   2.217   2.622 -1.1971  0.3461  1.4605
 7890TIP3   OH245160   4.333   2.533  16.654  0.1222  0.1304  0.0596
 7890TIP3    H145161   4.348   2.616  16.699  1.3209 -0.5731  0.9869
 7890TIP3    H245162   4.313   2.471  16.724  2.2475 -1.0333 -0.2903
 7891TIP3   OH245163   5.759   2.508   0.896 -0.0402 -0.0673  0.5320
 7891TIP3    H145164   5.681   2.475   0.852 -0.3202 -0.7809  1.5288
 7891TIP3    H245165   5.827   2.508   0.829 -0.8806  0.5483 -0.3454
 7892TIP3   OH245166   1.102   2.080  14.300 -0.2067  0.1258  0.2622
 7892TIP3    H145167   1.129   2.081  14.392 -0.5830  1.6652  0.3804
 7892TIP3    H245168   1.033   2.146  14.295 -1.0195 -0.7712 -0.8999
 7893TIP3   OH245169   0.331   6.478  12.225 -0.2167 -0.2205 -0.8930
 7893TIP3    H145170   0.344   6.570  12.250 -1.0694 -0.5419  0.8159
 7893TIP3    H245171   0.307   6.483  12.132  0.7819  1.1912 -1.1130
 7894TIP3   OH245172   5.861   3.980  12.624  0.2878  0.0166 -0.4766
 7894TIP3    H145173   5.807   3.902  12.612  2.1327 -1.3260 -0.5102
 7894TIP3    H245174   5.808   4.038  12.679 -0.6732 -1.7810  0.5839
 7895TIP3   OH245175   2.258   4.077   1.319 -0.2133  0.0768  0.2827
 7895TIP3    H145176   2.300   4.114   1.396 -0.6501 -0.1372  0.6274
 7895TIP3    H245177   2.290   4.131   1.246 -0.9184  1.2031  0.7836
 7896TIP3   OH245178   6.025   1.935  14.145 -0.0319 -0.3098 -0.6357
 7896TIP3    H145179   5.992   1.867  14.086 -1.7332  0.1387 -0.2740
 7896TIP3    H245180   6.040   1.889  14.228 -0.3801 -0.4169 -0.6287
 7897TIP3   OH245181   4.217   1.743  11.022 -0.1746 -0.1676 -0.3218
 7897TIP3    H145182   4.180   1.767  10.937  0.1513 -2.1147 -1.0736
 7897TIP3    H245183   4.276   1.815  11.044 -1.1222  0.9088 -1.1839
 7898TIP3   OH245184   4.807   1.428   0.731 -0.1079 -0.5445  0.6893
 7898TIP3    H145185   4.879   1.485   0.758  1.5294 -1.6916 -1.0813
 7898TIP3    H245186   4.835   1.340   0.754 -1.4070 -0.9317  0.8860
 7899TIP3   OH245187   4.310   5.767   0.873  0.4967 -0.3713  0.0764
 7899TIP3    H145188   4.333   5.802   0.960  0.5657 -1.0472  0.3318
 7899TIP3    H245189   4.234   5.712   0.889 -0.4062  0.6636 -0.5344
 7900TIP3   OH245190   2.083   2.822  16.674  0.3893 -0.2881  0.0302
 7900TIP3    H145191   2.075   2.726  16.675 -2.0565 -0.2412 -2.7201
 7900TIP3    H245192   2.145   2.840  16.604  0.5972  0.1523  0.3245
 7901TIP3   OH245193   5.212   3.510  13.800 -0.4820 -0.1550  0.4307
 7901TIP3    H145194   5.270   3.583  13.777  0.5428 -1.3530 -0.9999
 7901TIP3    H245195   5.142   3.550  13.852  0.6269  1.6485  0.6072
 7902TIP3   OH245196   5.398   6.474   1.730  0.4310  0.0319  0.1380
 7902TIP3    H145197   5.378   6.411   1.662  0.8958 -0.5132  0.4993
 7902TIP3    H245198   5.470   6.435   1.779  0.9565  0.9942  0.1616
 7903TIP3   OH245199   1.615   0.379  16.684 -0.0353  0.0883 -0.2238
 7903TIP3    H145200   1.642   0.292  16.657  0.8604 -0.2297  1.5695
 7903TIP3    H245201   1.693   0.434  16.673 -0.5537  0.6507 -1.2153
 7904TIP3   OH245202   6.091   6.288  14.213 -0.3562 -0.2945 -0.1506
 7904TIP3    H145203   6.076   6.198  14.243  2.4836 -0.7678  0.1594
 7904TIP3    H245204   6.022   6.339  14.255 -0.9457 -2.0730  1.1777
 7905TIP3   OH245205   0.931   1.168   1.764  0.4911 -0.4115 -0.2235
 7905TIP3    H145206   0.946   1.240   1.825 -1.2345  1.3477 -1.7432
 7905TIP3    H245207   0.988   1.189   1.689 -1.4802  0.5916 -1.5382
 7906TIP3   OH245208   1.856   0.468  16.576  0.1028  0.0232 -0.3240
 7906TIP3    H145209   1.907   0.540  16.538 -2.1780  1.7084 -0.4226
 7906TIP3    H245210   1.849   0.404  16.505 -0.5323  1.2210 -1.3965
 7907TIP3   OH245211   0.564   1.879  15.618 -0.6908 -0.0966  0.2278
 7907TIP3    H145212   0.607   1.927  15.688 -0.5932  0.5999 -0.2962
 7907TIP3    H245213   0.571   1.787  15.643  0.5605  0.0466  0.4456
 7908TIP3   OH245214   2.875   3.096   4.155 -0.0010 -0.0590 -0.2607
 7908TIP3    H145215   2.783   3.103   4.180  0.0601 -2.4593  0.9213
 7908TIP3    H245216   2.875   3.043   4.075  0.4061 -2.4721  1.2279
 7909TIP3   OH245217   2.796   1.487  13.738 -0.5609  0.0465  0.0309
 7909TIP3    H145218   2.821   1.395  13.728  0.9355  0.5095 -0.7796
 7909TIP3    H245219   2.829   1.512  13.824  1.1604  0.4263 -0.6970
 7910TIP3   OH245220   5.283   3.473   0.599 -0.4618  0.2780  0.3730
 7910TIP3    H145221   5.329   3.481   0.683 -0.0498  3.0975 -0.0174
 7910TIP3    H245222   5.270   3.563   0.570 -4.7369 -0.3703 -0.4221
 7911TIP3   OH245223   5.536   2.565   1.985 -0.1239  0.4064  0.8714
 7911TIP3    H145224   5.490   2.495   2.031  0.9977 -0.2325  1.0506
 7911TIP3    H245225   5.545   2.533   1.895  0.2877  0.3652  0.9254
 7912TIP3   OH245226   4.807   4.866   0.132 -0.2383 -0.4456  0.5004
 7912TIP3    H145227   4.794   4.879   0.226  0.1049  0.5406  0.4306
 7912TIP3    H245228   4.720   4.874   0.094 -0.0840  1.8130  0.4776
 7913TIP3   OH245229   5.855   4.622  12.492  0.1399  0.6268  0.1027
 7913TIP3    H145230   5.854   4.580  12.578  2.4749 -0.2256 -0.2059
 7913TIP3    H245231   5.822   4.555  12.432  1.0173  0.2637  0.0101
 7914TIP3   OH245232   4.303   4.742  15.709  0.4718  0.3971 -0.8113
 7914TIP3    H145233   4.233   4.677  15.712  3.1786 -2.6783  1.0010
 7914TIP3    H245234   4.279   4.807  15.775 -0.3034 -1.0344  0.3573
 7915TIP3   OH245235   2.886   2.958  13.188 -0.1278  0.4052  0.4137
 7915TIP3    H145236   2.886   2.866  13.162 -2.6726  0.9651 -2.0016
 7915TIP3    H245237   2.967   2.994  13.151  0.8811 -0.7693  1.3642
 7916TIP3   OH245238   2.876   3.237  16.174 -0.2721 -0.2395 -0.8970
 7916TIP3    H145239   2.920   3.189  16.244 -0.2632  0.6921 -0.2501
 7916TIP3    H245240   2.818   3.298  16.219  0.2673  0.8825 -1.6716
 7917TIP3   OH245241   2.868   5.050   5.518  0.1832  0.5728 -0.0337
 7917TIP3    H145242   2.939   4.992   5.545  0.1285  0.4370 -0.1800
 7917TIP3    H245243   2.901   5.138   5.535  0.4206  0.5136 -0.1777
 7918TIP3   OH245244   5.202   0.081  17.148  0.2476  0.5496  0.0927
 7918TIP3    H145245   5.157   0.118  17.072  1.2690  1.1425 -0.2483
 7918TIP3    H245246   5.183  -0.013  17.145  1.2285  0.3724 -1.5935
 7919TIP3   OH245247   0.784   3.448   5.744 -0.7115  0.6742  0.9589
 7919TIP3    H145248   0.878   3.435   5.754 -1.2874 -3.2594  3.7289
 7919TIP3    H245249   0.754   3.370   5.698 -2.6750  1.9904 -0.1605
 7920TIP3   OH245250   4.845   1.653  16.368 -0.2313 -0.2660 -0.1614
 7920TIP3    H145251   4.855   1.563  16.400  3.3286  0.3115  0.8353
 7920TIP3    H245252   4.909   1.703  16.419 -1.0835  2.5880 -1.6902
 7921TIP3   OH245253   3.605   3.341   5.379 -0.2203 -0.2594 -0.5659
 7921TIP3    H145254   3.699   3.323   5.382 -0.1509  0.1424  1.0949
 7921TIP3    H245255   3.600   3.436   5.369 -0.4642 -0.3171 -1.0056
 7922TIP3   OH245256   4.850   4.736  12.873 -0.0347  0.0085 -0.4914
 7922TIP3    H145257   4.931   4.760  12.828 -0.1888 -0.2971 -0.9405
 7922TIP3    H245258   4.788   4.805  12.849  0.9542  2.1462  2.5167
 7923TIP3   OH245259   0.856   1.709  11.446  0.1151 -0.0822 -0.3450
 7923TIP3    H145260   0.849   1.737  11.537 -1.7210  1.4077 -0.8955
 7923TIP3    H245261   0.950   1.715  11.426  0.5297 -0.3347  1.3816
 7924TIP3   OH245262   5.646   3.361  11.318  0.4739 -0.4391 -0.2392
 7924TIP3    H145263   5.562   3.320  11.342  0.2548 -0.1042 -0.4374
 7924TIP3    H245264   5.705   3.287  11.304  0.6397 -0.6713  1.4190
 7925TIP3   OH245265   0.140   3.502  11.531  0.3025  0.5276 -0.0593
 7925TIP3    H145266   0.154   3.528  11.622  0.4833 -0.3840  0.1821
 7925TIP3    H245267   0.050   3.529  11.511  0.2727  0.7491  0.3749
 7926TIP3   OH245268   1.770   6.169  12.317  0.0836 -0.0358  0.1405
 7926TIP3    H145269   1.824   6.095  12.345  0.3436  0.6765  1.5798
 7926TIP3    H245270   1.796   6.185  12.226  1.6900 -0.2440  0.5407
 7927TIP3   OH245271   5.598   3.801   4.889  0.1601  0.3029 -0.1297
 7927TIP3    H145272   5.624   3.732   4.827  3.7083  2.2631 -1.0982
 7927TIP3    H245273   5.675   3.813   4.945 -1.0040  2.2766  1.1648
 7928TIP3   OH245274   5.341   2.544  13.794  0.3107  0.8376  0.2367
 7928TIP3    H145275   5.413   2.606  13.807 -0.2339  1.3690  0.8037
 7928TIP3    H245276   5.355   2.509  13.707 -0.5679  3.4071 -1.0557
 7929TIP3   OH245277   3.672   0.506  11.315  0.0794  0.2222 -0.8269
 7929TIP3    H145278   3.590   0.548  11.340  0.5565  0.0620  1.2627
 7929TIP3    H245279   3.738   0.574  11.329  0.7139 -0.7675  1.4012
 7930TIP3   OH245280   4.294   1.964   3.835 -0.4322 -0.4282  0.5526
 7930TIP3    H145281   4.312   1.958   3.741 -0.2336  0.2188  0.5435
 7930TIP3    H245282   4.199   1.956   3.843 -0.3316 -2.0471  0.4383
 7931TIP3   OH245283   6.303   1.758  16.491  0.2123  0.0834 -0.0650
 7931TIP3    H145284   6.230   1.782  16.548 -0.5307  1.3995 -1.5069
 7931TIP3    H245285   6.379   1.757  16.549 -0.5490  1.1704  1.0085
 7932TIP3   OH245286   5.601   0.494   2.525 -0.4070  0.6371  0.5634
 7932TIP3    H145287   5.627   0.457   2.609 -0.2724 -1.1702 -0.2321
 7932TIP3    H245288   5.681   0.493   2.472 -0.3485  2.2958  0.5492
 7933TIP3   OH245289   2.327   0.432   4.309  0.5078 -0.3804 -0.0289
 7933TIP3    H145290   2.404   0.476   4.274  0.6162  0.8024  1.5714
 7933TIP3    H245291   2.325   0.457   4.401 -1.1501 -1.3276  0.2349
 7934TIP3   OH245292   3.589   4.053   1.250  0.5456 -0.1530  0.7364
 7934TIP3    H145293   3.574   3.958   1.246 -0.0984 -0.0356  0.0416
 7934TIP3    H245294   3.682   4.064   1.234  0.5799 -0.6549  0.5802
 7935TIP3   OH245295   4.036   0.477   3.722 -0.3044 -0.3299 -0.0061
 7935TIP3    H145296   4.026   0.477   3.817 -0.2295 -0.0720  0.0013
 7935TIP3    H245297   3.977   0.545   3.692  0.7438  0.5947 -0.0313
 7936TIP3   OH245298   6.391   0.962  16.525  0.1079 -0.3671 -0.5820
 7936TIP3    H145299   6.385   0.889  16.587  0.7977  1.0617  1.2794
 7936TIP3    H245300   6.306   1.007  16.533 -0.2743 -0.8808 -1.6358
 7937TIP3   OH245301   0.498   5.951  12.573 -0.4928 -0.0518 -0.4601
 7937TIP3    H145302   0.510   5.948  12.478 -0.6911 -1.3425 -0.4682
 7937TIP3    H245303   0.527   5.865  12.603  0.8057  0.7980  0.8188
 7938TIP3   OH245304   1.766   6.714   3.773 -0.0024 -0.2058  0.3374
 7938TIP3    H145305   1.787   6.672   3.857  2.6434 -0.2789 -0.2915
 7938TIP3    H245306   1.763   6.642   3.710 -2.9045 -0.2745  0.4152
 7939TIP3   OH245307   3.466   0.311  12.190 -0.8566 -0.0326 -0.5966
 7939TIP3    H145308   3.480   0.281  12.280 -0.4116  0.2627 -0.5627
 7939TIP3    H245309   3.505   0.241  12.137  2.6835  1.6460 -0.4695
 7940TIP3   OH245310   5.988   2.099   3.800 -0.6519 -0.3680  0.3180
 7940TIP3    H145311   6.001   2.004   3.797  2.5791 -0.0234 -2.0169
 7940TIP3    H245312   6.055   2.131   3.861 -1.7336  0.4170  1.1189
 7941TIP3   OH245313   4.727   3.064   2.326  0.1032  0.3161  0.0736
 7941TIP3    H145314   4.752   2.974   2.306  0.8762  0.2893  1.0761
 7941TIP3    H245315   4.806   3.116   2.311 -0.2255  0.7749 -0.1114
 7942TIP3   OH245316   1.853   6.564  11.785  0.1120  0.2846  0.2447
 7942TIP3    H145317   1.778   6.523  11.741 -0.0940  1.0932 -0.1897
 7942TIP3    H245318   1.819   6.592  11.870  0.1762 -0.1689  0.4234
 7943TIP3   OH245319   5.209   6.128  14.203 -0.1538  0.0049 -0.3170
 7943TIP3    H145320   5.297   6.144  14.169 -0.7290  0.1839 -1.7978
 7943TIP3    H245321   5.163   6.084  14.131 -1.5763  0.8691  0.0200
 7944TIP3   OH245322   0.303   0.438   0.024  0.1533  0.2498 -0.6176
 7944TIP3    H145323   0.364   0.386   0.077 -0.2953 -1.4716 -1.7147
 7944TIP3    H245324   0.281   0.512   0.080  1.7310 -0.1080  0.5637
 7945TIP3   OH245325   2.076   1.182  14.430  0.1339 -0.3557 -0.0015
 7945TIP3    H145326   2.143   1.248  14.409  0.2585 -0.4052  0.2314
 7945TIP3    H245327   1.999   1.233  14.455  0.2077 -0.2961  0.1079
 7946TIP3   OH245328   0.463   1.313  12.445  0.2777  0.0584 -0.1865
 7946TIP3    H145329   0.528   1.360  12.496 -2.5283  2.4382  1.5106
 7946TIP3    H245330   0.495   1.223  12.442  3.2247  0.9465  1.1253
 7947TIP3   OH245331   0.388   4.110  15.603  0.3164  0.2775  0.2249
 7947TIP3    H145332   0.363   4.179  15.541  1.5660 -0.6189 -1.3710
 7947TIP3    H245333   0.481   4.127  15.621  0.3847 -0.4373  0.5563
 7948TIP3   OH245334   3.686   6.405   5.346  0.0581  0.4239  0.2659
 7948TIP3    H145335   3.711   6.351   5.421 -0.1072 -2.0598 -1.3445
 7948TIP3    H245336   3.768   6.418   5.298 -0.4929 -1.9737 -1.4769
 7949TIP3   OH245337   4.333   4.826   1.883 -0.0065  0.3159 -0.2184
 7949TIP3    H145338   4.382   4.770   1.823  0.0199 -0.7526  0.7658
 7949TIP3    H245339   4.244   4.792   1.881 -0.2859  1.0233 -0.5147
 7950TIP3   OH245340   5.332   5.052   5.899 -0.1335 -0.5505 -0.1517
 7950TIP3    H145341   5.373   5.022   5.980 -0.2811 -0.2851  0.0209
 7950TIP3    H245342   5.405   5.059   5.837  0.2065  0.6657  0.3660
 7951TIP3   OH245343   0.328   4.232  14.604  0.2945 -0.3993 -0.0461
 7951TIP3    H145344   0.353   4.315  14.645 -0.2057  0.0096 -0.5594
 7951TIP3    H245345   0.233   4.227  14.616  0.1565 -0.3259 -1.0671
 7952TIP3   OH245346   6.515   1.615  15.681 -0.3546 -0.1351 -0.4742
 7952TIP3    H145347   6.434   1.578  15.716  0.9881 -1.0982  1.8770
 7952TIP3    H245348   6.584   1.564  15.723  1.4860  1.1686 -1.7924
 7953TIP3   OH245349   2.299   5.239   2.953  0.0578 -0.9920 -0.1849
 7953TIP3    H145350   2.378   5.270   2.909 -0.1907 -0.5729 -0.3426
 7953TIP3    H245351   2.236   5.310   2.942  0.0604 -0.7753  1.0595
 7954TIP3   OH245352   0.282   2.985  16.280  0.0624  0.6373 -0.0394
 7954TIP3    H145353   0.309   2.974  16.371 -1.1336  2.3209  0.5692
 7954TIP3    H245354   0.256   2.898  16.252 -1.7959  0.4460  2.0232
 7955TIP3   OH245355   0.692   3.812  14.750  0.0983  0.0851 -0.0494
 7955TIP3    H145356   0.704   3.867  14.672  0.1685 -0.3431 -0.3440
 7955TIP3    H245357   0.605   3.835  14.783  0.7421  1.5202  0.7508
 7956TIP3   OH245358   0.643   4.902   3.455  0.2527 -0.2200  0.3252
 7956TIP3    H145359   0.617   4.810   3.442  0.8983 -0.1908 -1.5651
 7956TIP3    H245360   0.644   4.938   3.367  0.2063  1.5796  1.0312
 7957TIP3   OH245361   1.330   2.558  12.914 -1.3343  0.2311  0.4633
 7957TIP3    H145362   1.319   2.559  12.819  2.1384 -0.5748 -0.0714
 7957TIP3    H245363   1.327   2.465  12.938  0.3697  0.2114  0.6994
 7958TIP3   OH245364   2.013   2.688   1.098 -0.3050  0.1614 -0.3720
 7958TIP3    H145365   1.971   2.607   1.127  1.1862 -1.0987 -1.5399
 7958TIP3    H245366   1.977   2.704   1.011 -1.1855  1.2392  0.1612
 7959TIP3   OH245367   6.105   3.473   0.119  0.1211  0.0547  0.9468
 7959TIP3    H145368   6.049   3.429   0.183 -1.3260 -1.1891 -1.0280
 7959TIP3    H245369   6.184   3.418   0.114 -0.3452 -0.6096  0.7311
 7960TIP3   OH245370   4.064   2.424  11.321 -0.2196  0.1897 -0.2180
 7960TIP3    H145371   4.134   2.408  11.384 -3.2932  1.4033  3.9830
 7960TIP3    H245372   4.080   2.513  11.290  0.1625  0.4426  0.6708
 7961TIP3   OH245373   3.703   2.269  13.650 -0.2972 -0.4392 -0.1333
 7961TIP3    H145374   3.791   2.286  13.683 -0.6803  1.5431  0.0532
 7961TIP3    H245375   3.693   2.174  13.654  1.8279 -0.7093 -0.2092
 7962TIP3   OH245376   1.608   6.620   6.011  0.2341 -0.3501  0.4904
 7962TIP3    H145377   1.573   6.708   6.027  0.0059  0.1687 -2.3432
 7962TIP3    H245378   1.550   6.583   5.944  0.9280 -2.2767  0.8952
 7963TIP3   OH245379   5.703   2.742   4.449 -0.1684  0.3606 -0.5512
 7963TIP3    H145380   5.755   2.733   4.529 -1.2978 -1.1239  0.0529
 7963TIP3    H245381   5.725   2.665   4.397 -0.6062  0.5241 -0.9884
 7964TIP3   OH245382   6.112   0.245   1.503  0.0801  0.7192 -0.0196
 7964TIP3    H145383   6.193   0.200   1.477 -0.0848  1.3168 -1.7577
 7964TIP3    H245384   6.060   0.179   1.547  0.3845 -0.4687 -1.3607
 7965TIP3   OH245385   1.950   5.365  11.187  0.0796  0.2314 -1.0320
 7965TIP3    H145386   2.006   5.298  11.225  2.3114  0.9408 -2.8686
 7965TIP3    H245387   1.904   5.320  11.116  0.0265  0.1866 -0.9698
 7966TIP3   OH245388   1.043   6.406   3.031 -0.6262  0.5792  0.0877
 7966TIP3    H145389   1.003   6.321   3.051  0.2318  0.0937 -0.1747
 7966TIP3    H245390   0.970   6.463   3.010 -1.1565 -0.5226 -1.2724
 7967TIP3   OH245391   3.309   4.290  17.283 -0.9874  0.3751 -0.5381
 7967TIP3    H145392   3.287   4.340  17.205  1.8434  2.5953 -0.1011
 7967TIP3    H245393   3.403   4.274  17.276 -1.1954 -2.0682  0.9909
 7968TIP3   OH245394   4.339   6.219  13.135 -0.2720 -0.8556  0.1200
 7968TIP3    H145395   4.388   6.301  13.135  0.3155 -1.1921  0.5746
 7968TIP3    H245396   4.251   6.242  13.105  0.2248 -0.2693 -0.9356
 7969TIP3   OH245397   3.837   0.730   6.059 -0.3030  0.4825  0.3567
 7969TIP3    H145398   3.797   0.805   6.016  0.9888 -0.6901 -3.2849
 7969TIP3    H245399   3.779   0.657   6.039  0.7538 -0.2449 -0.1602
 7970TIP3   OH245400   0.202   3.067   5.642 -0.2704 -0.0604 -0.2055
 7970TIP3    H145401   0.149   3.141   5.673 -0.1869  0.3158 -0.9248
 7970TIP3    H245402   0.214   3.085   5.548 -0.9552 -1.4123 -0.5741
 7971TIP3   OH245403   4.194   3.653  16.584  0.0738 -0.0559  0.3132
 7971TIP3    H145404   4.254   3.602  16.529 -1.9580 -2.6751  0.2825
 7971TIP3    H245405   4.128   3.686  16.523 -0.2639  0.0261  0.7217
 7972TIP3   OH245406   0.835   3.302  12.216 -0.1563 -0.1575 -0.0086
 7972TIP3    H145407   0.773   3.342  12.277  0.8374  1.1159  0.1966
 7972TIP3    H245408   0.909   3.277  12.271 -0.6512 -2.1328 -0.1671
 7973TIP3   OH245409   4.317   6.521  13.288 -0.2067 -0.4984  0.0073
 7973TIP3    H145410   4.236   6.481  13.319 -1.1283  0.1539 -1.4410
 7973TIP3    H245411   4.299   6.615  13.289  0.8355 -0.2830  0.4276
 7974TIP3   OH245412   4.124   0.312  13.754 -0.6183 -0.2183  0.4054
 7974TIP3    H145413   4.175   0.392  13.747 -1.4828  0.4335  1.2595
 7974TIP3    H245414   4.157   0.256  13.684  0.2120  0.7592 -0.0082
 7975TIP3   OH245415   3.042   3.255  14.312  0.3344 -0.0455  0.2654
 7975TIP3    H145416   2.986   3.178  14.315 -1.0518  0.8639 -0.9675
 7975TIP3    H245417   3.105   3.236  14.242 -1.8343  1.0349 -2.1327
 7976TIP3   OH245418   3.141   1.028  17.022 -0.5927 -0.5809 -0.2233
 7976TIP3    H145419   3.205   1.081  17.071  0.6806  0.8614 -3.2135
 7976TIP3    H245420   3.074   1.091  16.996 -1.0463 -1.2313 -0.6305
 7977TIP3   OH245421   6.388   2.322   0.364 -0.7843 -0.4558  0.6389
 7977TIP3    H145422   6.466   2.365   0.327 -2.4555  0.0294 -2.7696
 7977TIP3    H245423   6.411   2.230   0.367  0.3040 -0.1939  0.7019
 7978TIP3   OH245424   5.963   1.610   5.147  0.3354 -0.8165 -0.6762
 7978TIP3    H145425   6.008   1.530   5.175  0.0954 -1.1547 -1.2317
 7978TIP3    H245426   5.983   1.674   5.215  1.8171 -0.9012 -1.0127
 7979TIP3   OH245427   1.094   6.817   0.366  0.4021 -0.1366 -0.2030
 7979TIP3    H145428   1.112   6.860   0.450  1.6978 -2.3123  0.7414
 7979TIP3    H245429   1.181   6.798   0.331 -0.1325  0.0604 -1.6997
 7980TIP3   OH245430   3.573   3.083  12.334  0.6612  0.6585  0.0372
 7980TIP3    H145431   3.576   3.023  12.260 -0.1797  0.5335  0.0972
 7980TIP3    H245432   3.652   3.063  12.384 -0.7874 -2.2672  1.4652
 7981TIP3   OH245433   4.117   2.132   2.253  0.4429  0.2405  0.1763
 7981TIP3    H145434   4.072   2.064   2.302 -1.1191 -0.1084 -1.6231
 7981TIP3    H245435   4.062   2.147   2.177  1.8907  1.9628 -0.6090
 7982TIP3   OH245436   3.954   0.797  12.721 -0.0370 -0.3791  0.0944
 7982TIP3    H145437   3.977   0.706  12.705 -0.4762 -0.4026 -0.4116
 7982TIP3    H245438   4.030   0.847  12.690  0.9103 -0.6365  1.8597
 7983TIP3   OH245439   3.376   6.758  16.875  0.0238 -0.1102  0.1842
 7983TIP3    H145440   3.402   6.668  16.895 -0.8551  0.2051  3.2750
 7983TIP3    H245441   3.283   6.751  16.853  0.0647  0.0063 -0.0294
 7984TIP3   OH245442   1.536   5.051  13.729  0.3160  0.3150  0.1855
 7984TIP3    H145443   1.599   5.097  13.785  0.4145  0.5267 -0.0968
 7984TIP3    H245444   1.466   5.114  13.713  0.5462  0.4375 -0.3615
 7985TIP3   OH245445   6.297   1.668   0.414 -0.0953 -0.4197 -0.8119
 7985TIP3    H145446   6.279   1.609   0.487  0.0721 -0.2481 -0.6296
 7985TIP3    H245447   6.215   1.671   0.365  0.3283 -1.9375 -1.6519
 7986TIP3   OH245448   1.929   4.677  15.982  0.0800 -0.5359 -0.1652
 7986TIP3    H145449   1.911   4.634  16.065 -1.7982  0.3793 -0.0517
 7986TIP3    H245450   1.847   4.720  15.958  1.2863  1.3248 -1.2536
 7987TIP3   OH245451   4.565   2.682   1.052 -0.4438 -0.1798  0.5780
 7987TIP3    H145452   4.626   2.752   1.076  0.0508  0.2642 -1.7392
 7987TIP3    H245453   4.489   2.729   1.017  0.5715 -0.6973 -2.6093
 7988TIP3   OH245454   0.761   3.889   1.957 -0.0532 -0.0017  0.7587
 7988TIP3    H145455   0.805   3.916   1.876 -0.2885 -2.3763 -0.2185
 7988TIP3    H245456   0.830   3.893   2.024  0.2651  1.4932  0.3867
 7989TIP3   OH245457   1.951   0.077   0.314 -0.5156 -0.8938  0.5491
 7989TIP3    H145458   2.007   0.153   0.328 -0.5110 -0.8030  0.0757
 7989TIP3    H245459   1.870   0.098   0.360 -1.1206  0.1235 -0.8800
 7990TIP3   OH245460   0.315   4.213   1.979 -0.2234 -0.1132 -0.2619
 7990TIP3    H145461   0.249   4.168   1.927  1.0050 -0.7419 -1.3424
 7990TIP3    H245462   0.344   4.149   2.043  0.0962 -0.2061 -0.4952
 7991TIP3   OH245463   2.345   2.241   5.567 -0.5406  0.3103 -0.3091
 7991TIP3    H145464   2.320   2.331   5.589 -1.4604 -0.0615  0.1981
 7991TIP3    H245465   2.267   2.189   5.586 -0.0203 -0.5958 -0.6169
 7992TIP3   OH245466   3.027   6.191   4.131 -0.0725  0.1308 -0.0265
 7992TIP3    H145467   3.076   6.143   4.064  0.4696 -0.0219  0.4654
 7992TIP3    H245468   3.036   6.283   4.106  0.6868  0.1233  0.1908
 7993TIP3   OH245469   2.226   1.111   5.973 -0.7132 -0.2031  0.7183
 7993TIP3    H145470   2.195   1.126   6.062 -1.1122 -1.9978  0.9181
 7993TIP3    H245471   2.233   1.016   5.966  1.1491 -0.0269 -0.5576
 7994TIP3   OH245472   0.935   0.828  13.298 -0.4888 -0.0153 -0.1367
 7994TIP3    H145473   0.990   0.777  13.357 -1.2804  0.2270  0.8316
 7994TIP3    H245474   0.861   0.855  13.351 -0.2182  1.9580 -0.6866
 7995TIP3   OH245475   4.392   5.036   6.555  0.0906  0.0027  0.1832
 7995TIP3    H145476   4.347   4.960   6.518 -0.9411  0.9585 -0.6078
 7995TIP3    H245477   4.477   5.037   6.511 -1.1124  1.1338 -2.3557
 7996TIP3   OH245478   3.012   5.576  11.667  0.4312  0.1509  0.7417
 7996TIP3    H145479   2.924   5.613  11.673 -0.8504 -2.0997 -1.8832
 7996TIP3    H245480   3.028   5.537  11.752 -0.9407  0.8951  1.3717
 7997TIP3   OH245481   3.550   6.347   6.200  0.3742 -0.6331  0.4808
 7997TIP3    H145482   3.589   6.417   6.254 -0.4427 -0.3368  0.6996
 7997TIP3    H245483   3.457   6.351   6.220  0.0967 -0.7152 -0.7475
 7998TIP3   OH245484   5.403   4.357  16.866 -0.0511 -0.4972 -0.0237
 7998TIP3    H145485   5.360   4.323  16.945 -0.6405  1.5788  0.6126
 7998TIP3    H245486   5.469   4.418  16.899  1.4339 -1.4694 -1.1023
 7999TIP3   OH245487   1.293   2.102  13.540 -0.6777  0.6680 -0.0996
 7999TIP3    H145488   1.221   2.126  13.482 -1.3651  1.3606  1.0001
 7999TIP3    H245489   1.365   2.159  13.513 -0.7957  0.5682 -0.6468
 8000TIP3   OH245490   0.082   0.804   1.698 -0.1526 -0.2611 -0.5968
 8000TIP3    H145491   0.138   0.727   1.707 -1.4550 -1.1207  0.4280
 8000TIP3    H245492  -0.005   0.769   1.678 -0.1139  1.0893 -3.7651
 8001TIP3   OH245493   4.464   2.516   3.241 -0.1507 -0.0863 -0.7152
 8001TIP3    H145494   4.543   2.564   3.267 -2.3028  3.1890  0.5176
 8001TIP3    H245495   4.427   2.568   3.170 -1.2521 -1.5266 -1.2428
 8002TIP3   OH245496   5.907   2.924   5.953 -0.0770 -0.6152 -0.8389
 8002TIP3    H145497   5.998   2.941   5.927  0.0355  0.7508  0.2982
 8002TIP3    H245498   5.907   2.833   5.983  1.1511 -0.3514  0.0282
 8003TIP3   OH245499   3.113   6.740  15.552 -0.5483  0.2144  0.2764
 8003TIP3    H145500   3.040   6.771  15.498  0.0847 -1.4490 -1.6603
 8003TIP3    H245501   3.072   6.716  15.635 -2.4066 -1.3528 -0.9929
 8004TIP3   OH245502   1.893   1.505  15.722 -0.8013  0.2909  0.5603
 8004TIP3    H145503   1.927   1.496  15.812 -0.1210  2.3669  0.5720
 8004TIP3    H245504   1.855   1.592  15.720  0.8476  1.0532 -1.6567
 8005TIP3   OH245505   4.528   5.477   4.943  0.1110  0.1884 -0.4053
 8005TIP3    H145506   4.454   5.486   5.002  1.3304  0.9704  1.0908
 8005TIP3    H245507   4.575   5.560   4.949  1.2393 -0.3565 -1.1247
 8006TIP3   OH245508   0.845   5.112   0.736 -0.3474 -0.1188 -0.1693
 8006TIP3    H145509   0.912   5.115   0.668  0.2523  2.1195  0.4122
 8006TIP3    H245510   0.826   5.019   0.748  1.6609 -0.7341 -1.3186
 8007TIP3   OH245511   2.434   4.082  15.700  0.1089 -0.0975 -0.3050
 8007TIP3    H145512   2.529   4.078  15.695  0.0061 -1.7388 -2.0605
 8007TIP3    H245513   2.414   4.055  15.790  1.2366 -3.3119 -0.8891
 8008TIP3   OH245514   6.484   5.631   2.280 -0.3968  0.7215  0.1140
 8008TIP3    H145515   6.407   5.640   2.225  0.3038  3.0845 -0.6073
 8008TIP3    H245516   6.557   5.618   2.219  0.1567  1.5513  0.5765
 8009TIP3   OH245517   3.721   6.100   2.279  0.1623  0.1390  0.1725
 8009TIP3    H145518   3.745   6.087   2.371  0.6852 -0.2454 -0.0096
 8009TIP3    H245519   3.772   6.034   2.231  0.3284  0.7033 -0.4481
 8010TIP3   OH245520   4.524   5.198  15.950  0.0050  0.4488 -0.2871
 8010TIP3    H145521   4.603   5.252  15.953 -0.3694  1.2757 -2.8092
 8010TIP3    H245522   4.516   5.172  15.858 -1.2582 -1.8108  0.3914
 8011TIP3   OH245523   0.392   0.113   3.255 -0.5998  0.4313 -0.7451
 8011TIP3    H145524   0.472   0.167   3.250 -1.8332  2.2507 -2.6189
 8011TIP3    H245525   0.380   0.081   3.166 -0.6785 -1.8932  0.0530
 8012TIP3   OH245526   0.940   4.854  14.090  0.3449 -0.7844  0.5809
 8012TIP3    H145527   0.938   4.795  14.166  0.2194 -0.5549  0.7566
 8012TIP3    H245528   1.026   4.896  14.095  0.4594 -1.0021  0.4187
 8013TIP3   OH245529   3.894   0.061   4.193  0.3127 -0.5017  0.1145
 8013TIP3    H145530   3.884  -0.013   4.133 -2.7152 -1.5915  1.7170
 8013TIP3    H245531   3.841   0.130   4.154 -1.0057 -0.9465  1.0386
 8014TIP3   OH245532   5.404   6.753   0.642  0.8227  0.1068  0.1157
 8014TIP3    H145533   5.404   6.704   0.559 -0.7431  0.2041  0.0292
 8014TIP3    H245534   5.419   6.844   0.616 -1.1832  0.3659 -0.2544
 8015TIP3   OH245535   1.027   6.485  17.020  0.4245  0.1022  0.4765
 8015TIP3    H145536   0.962   6.506  16.952  2.7960  1.4889 -1.5387
 8015TIP3    H245537   1.097   6.440  16.973  2.1636  1.0931  2.0017
 8016TIP3   OH245538   0.008   4.063   0.872  0.7280 -0.3596  0.4502
 8016TIP3    H145539   0.073   4.105   0.928 -1.2073  2.0448  1.0805
 8016TIP3    H245540  -0.020   3.986   0.921  1.6275 -0.3001  1.0800
 8017TIP3   OH245541   2.281   6.474   1.727 -0.1198  0.1883 -0.0742
 8017TIP3    H145542   2.269   6.569   1.731 -1.3651  0.1438 -1.5799
 8017TIP3    H245543   2.282   6.446   1.818 -2.3385  1.3821  0.3877
 8018TIP3   OH245544   2.575   5.331  13.146 -0.3172  0.4876 -0.2582
 8018TIP3    H145545   2.613   5.279  13.075  0.3130  1.6365 -0.7887
 8018TIP3    H245546   2.651   5.370  13.190 -0.8180  2.4804 -1.0606
 8019TIP3   OH245547   4.414   1.408   3.887  0.1975  0.4397 -0.1772
 8019TIP3    H145548   4.484   1.446   3.834  0.0157  0.6965 -0.2351
 8019TIP3    H245549   4.334   1.425   3.837 -0.1668  2.0859  0.9161
 8020TIP3   OH245550   2.471   2.200   3.261 -0.0642 -0.5238 -0.6487
 8020TIP3    H145551   2.475   2.107   3.286 -1.1945 -0.2063  0.9187
 8020TIP3    H245552   2.476   2.200   3.166  0.4717 -2.1617 -0.6472
 8021TIP3   OH245553   6.610   0.896   7.106  0.0677 -0.0034  0.0432
 8021TIP3    H145554   6.623   0.988   7.084  1.0800 -0.1298  0.0646
 8021TIP3    H245555   6.672   0.849   7.050  0.0284 -0.6185  0.5059
 8022TIP3   OH245556   1.350   2.850   3.714 -0.5189 -0.0466  0.2644
 8022TIP3    H145557   1.364   2.756   3.703 -0.6042 -0.0782  0.4215
 8022TIP3    H245558   1.413   2.876   3.781 -1.5092 -0.2796  1.3335
 8023TIP3   OH245559   1.224   0.687  12.805 -0.1465 -0.1695 -0.4139
 8023TIP3    H145560   1.129   0.689  12.819  0.1066  1.3982  1.4048
 8023TIP3    H245561   1.255   0.619  12.864 -0.1911 -1.4814 -1.8231
 8024TIP3   OH245562   2.015   4.639  14.113  0.0045 -0.2737  0.3485
 8024TIP3    H145563   2.042   4.661  14.024  1.2142  0.1458  0.8052
 8024TIP3    H245564   1.966   4.716  14.143  0.6952  0.1266  0.4823
 8025TIP3   OH245565   1.750   3.950   5.086  0.3692  0.4555 -0.2560
 8025TIP3    H145566   1.655   3.949   5.072  0.1360  0.3541  1.1673
 8025TIP3    H245567   1.762   3.911   5.173  1.8030 -0.4815 -0.8274
 8026TIP3   OH245568   4.648   6.154   5.906 -0.2845  0.1419 -0.0610
 8026TIP3    H145569   4.649   6.108   5.822 -0.6782  1.3694 -0.7707
 8026TIP3    H245570   4.720   6.115   5.956 -1.2713 -1.9762 -0.1793
 8027TIP3   OH245571   6.547   4.673  16.373 -0.6311 -0.2288 -0.3376
 8027TIP3    H145572   6.568   4.623  16.294  1.2724  0.4131 -0.2968
 8027TIP3    H245573   6.604   4.750  16.368 -0.7639  0.0302  1.4702
 8028TIP3   OH245574   1.252   6.500   1.513  0.6212 -0.2988  0.0245
 8028TIP3    H145575   1.242   6.444   1.590  1.9103  1.3289  1.4603
 8028TIP3    H245576   1.339   6.478   1.479  0.4520 -0.3260 -0.3942
 8029TIP3   OH245577   3.423   0.791   4.204 -0.0645  0.1507  0.2443
 8029TIP3    H145578   3.444   0.819   4.293  1.6845  0.1622 -0.1306
 8029TIP3    H245579   3.330   0.811   4.194  0.2330  2.4527  1.2574
 8030TIP3   OH245580   4.484   6.345   2.625 -0.2728 -0.0032 -0.3227
 8030TIP3    H145581   4.397   6.349   2.664 -0.8663 -2.0622 -1.2967
 8030TIP3    H245582   4.493   6.428   2.579 -1.1692  0.7850  0.8698
 8031TIP3   OH245583   1.635   4.307   3.844 -0.3832  0.6543  0.2487
 8031TIP3    H145584   1.600   4.218   3.840 -0.2885  0.6016  0.5555
 8031TIP3    H245585   1.728   4.295   3.864 -0.0505  0.7727 -1.1157
 8032TIP3   OH245586   2.413   6.455   1.185 -0.5207  0.2665 -0.0628
 8032TIP3    H145587   2.349   6.436   1.253  0.1084  0.0947  0.4856
 8032TIP3    H245588   2.360   6.470   1.106 -1.2845  1.0360  0.5771
 8033TIP3   OH245589   2.053   6.111  14.382 -0.4625  0.1778  0.1028
 8033TIP3    H145590   2.081   6.164  14.456 -1.2045  1.8471 -0.7469
 8033TIP3    H245591   2.121   6.044  14.372  1.1337  1.6616  0.5327
 8034TIP3   OH245592   5.005   4.771   2.025 -0.0155  0.3638 -0.6097
 8034TIP3    H145593   4.973   4.814   1.945  0.9304  1.0672 -0.6289
 8034TIP3    H245594   5.037   4.843   2.079  0.1965 -0.1902  0.0091
 8035TIP3   OH245595   4.522   2.432   1.122 -0.0455  0.0960 -0.2726
 8035TIP3    H145596   4.564   2.430   1.208 -1.9086  2.0406  0.7730
 8035TIP3    H245597   4.553   2.513   1.081 -0.4299  0.0066 -0.7568
 8036TIP3   OH245598   2.632   1.925  14.602 -0.1868 -0.4949  0.0977
 8036TIP3    H145599   2.609   1.994  14.664 -1.4825 -0.9977  0.2179
 8036TIP3    H245600   2.719   1.948  14.570  0.2895  0.0543  1.7163
 8037TIP3   OH245601   3.889   3.710  15.152  0.6647  0.0305  0.5642
 8037TIP3    H145602   3.842   3.633  15.182  0.3910 -0.1518 -0.3185
 8037TIP3    H245603   3.832   3.750  15.086  0.6679  1.1523  1.2131
 8038TIP3   OH245604   0.793   4.238  11.435 -0.6131  0.1123  0.2867
 8038TIP3    H145605   0.697   4.235  11.437 -0.5944 -0.2047  1.8918
 8038TIP3    H245606   0.815   4.245  11.342 -2.1584 -0.7180 -0.1674
 8039TIP3   OH245607   6.530   3.707   4.479  0.1262 -0.0788 -0.3834
 8039TIP3    H145608   6.571   3.643   4.421  1.2873 -2.1538  2.4347
 8039TIP3    H245609   6.442   3.672   4.494 -0.1002  0.3388 -0.7389
 8040TIP3   OH245610   2.305   2.600   0.414 -0.7929 -0.2776 -0.1407
 8040TIP3    H145611   2.211   2.613   0.425 -1.0014 -1.6839 -0.0500
 8040TIP3    H245612   2.315   2.505   0.404  0.5688 -0.1076 -0.6378
 8041TIP3   OH245613   4.910   1.744   2.322 -0.5533  0.0899  0.2272
 8041TIP3    H145614   4.923   1.830   2.282 -0.2453  0.0197  0.1759
 8041TIP3    H245615   4.992   1.697   2.307  0.1321  0.5481  2.1421
 8042TIP3   OH245616   2.639   3.040  14.419 -0.2894 -0.1250 -0.0657
 8042TIP3    H145617   2.702   3.013  14.486  0.2685  1.2121 -0.0226
 8042TIP3    H245618   2.561   3.065  14.468  0.4584  1.8280  0.2251
 8043TIP3   OH245619   2.616   6.598   2.930  0.5309  0.3729 -0.5844
 8043TIP3    H145620   2.679   6.670   2.938  0.9090 -0.1481  2.3405
 8043TIP3    H245621   2.656   6.526   2.978 -0.3734 -1.4664 -2.4462
 8044TIP3   OH245622   6.614   6.255  14.399 -0.0172 -0.5430 -0.4564
 8044TIP3    H145623   6.686   6.274  14.458  0.8412  0.6130 -1.8014
 8044TIP3    H245624   6.536   6.284  14.446  0.4495 -1.2292  0.7620
 8045TIP3   OH245625   4.422   1.125   3.927 -0.4702 -0.1713  0.0849
 8045TIP3    H145626   4.345   1.135   3.983 -0.5942 -0.2320 -0.0739
 8045TIP3    H245627   4.452   1.215   3.913  1.1813 -0.2811  2.4682
 8046TIP3   OH245628   4.305   5.131  16.138 -0.3378 -0.2916  0.1206
 8046TIP3    H145629   4.251   5.209  16.135  1.0064  0.7457  1.3804
 8046TIP3    H245630   4.375   5.148  16.075  1.6039  0.9142  2.4127
 8047TIP3   OH245631   1.255   0.514  17.187  0.0814  0.1355  0.6111
 8047TIP3    H145632   1.301   0.561  17.117 -1.5066 -2.3880 -2.3746
 8047TIP3    H245633   1.315   0.444  17.213  0.5164  0.8411  1.5493
 8048TIP3   OH245634   2.750   5.084   0.912  0.1576 -0.2325 -0.3478
 8048TIP3    H145635   2.800   5.032   0.975 -0.6670  0.0563  0.5675
 8048TIP3    H245636   2.816   5.130   0.861  0.8440  0.4773  1.1130
 8049TIP3   OH245637   0.289   4.692   0.357  0.1313 -0.1056 -0.0853
 8049TIP3    H145638   0.259   4.781   0.377  0.5674  0.1380 -0.4790
 8049TIP3    H245639   0.224   4.635   0.397 -1.1606  0.3920 -1.3794
 8050TIP3   OH245640   2.523   5.795  14.276  0.1988  0.5064  0.1788
 8050TIP3    H145641   2.450   5.829  14.327  0.3741 -0.3925  1.0644
 8050TIP3    H245642   2.486   5.720  14.228  0.4516  0.2645  0.3603
 8051TIP3   OH245643   3.703   5.541  15.776 -0.0175  0.2559 -0.2071
 8051TIP3    H145644   3.743   5.458  15.753  1.1202  0.8726 -0.5015
 8051TIP3    H245645   3.699   5.539  15.872 -0.0501 -0.1559 -0.2134
 8052TIP3   OH245646   0.378   4.675   2.615 -0.1145  0.6155 -0.4603
 8052TIP3    H145647   0.319   4.611   2.655 -1.0049  0.3697 -2.0781
 8052TIP3    H245648   0.456   4.674   2.671 -0.0361 -1.9911 -0.5020
 8053TIP3   OH245649   0.021   6.609  11.848 -0.3014 -0.6397  0.1477
 8053TIP3    H145650   0.005   6.690  11.800  1.7731  0.4279  1.1068
 8053TIP3    H245651  -0.042   6.610  11.919  1.6542  1.8792  2.0576
 8054TIP3   OH245652   5.136   0.421  11.741  0.1361  0.0498 -0.0628
 8054TIP3    H145653   5.092   0.429  11.656 -0.6268  1.2992  0.4251
 8054TIP3    H245654   5.065   0.428  11.805  1.0614  2.8959  0.7818
 8055TIP3   OH245655   6.536   4.620  13.776  0.5259 -0.7207  0.2532
 8055TIP3    H145656   6.609   4.560  13.757  1.3796  0.4625 -0.3990
 8055TIP3    H245657   6.577   4.692  13.823 -0.5410 -0.7739  1.2914
 8056TIP3   OH245658   4.339   1.675   5.293 -0.0678  0.0657 -0.3675
 8056TIP3    H145659   4.411   1.701   5.350  0.8690  0.0889 -1.5345
 8056TIP3    H245660   4.281   1.623   5.350  0.6030  0.4601  0.7067
 8057TIP3   OH245661   1.636   2.283  14.709 -0.0164  0.4822 -0.5015
 8057TIP3    H145662   1.553   2.269  14.663 -1.0837  0.8999  1.1979
 8057TIP3    H245663   1.677   2.355  14.661 -0.4161 -0.0024 -1.6219
 8058TIP3   OH245664   2.744   4.282   2.992 -0.6171  0.2170 -0.2340
 8058TIP3    H145665   2.734   4.186   2.991  0.4658  0.0834 -0.6359
 8058TIP3    H245666   2.752   4.304   3.084 -1.0725 -0.0569 -0.1248
 8059TIP3   OH245667   2.876   2.111   3.373 -0.2983  0.2148  0.4332
 8059TIP3    H145668   2.921   2.076   3.450 -2.4397  0.0821  1.7226
 8059TIP3    H245669   2.826   2.186   3.407 -0.2019  1.0328 -1.1373
 8060TIP3   OH245670   6.330   0.782   5.463  0.1367 -0.5913 -0.2078
 8060TIP3    H145671   6.365   0.746   5.545  2.8455  0.5630 -0.7357
 8060TIP3    H245672   6.324   0.706   5.404 -1.3365 -1.3364  0.8452
 8061TIP3   OH245673   1.554   2.420   6.260  0.5442  0.4581  0.9218
 8061TIP3    H145674   1.645   2.446   6.273  1.1294 -0.7451 -0.4725
 8061TIP3    H245675   1.530   2.377   6.343  1.3761  0.4216  1.1597
 8062TIP3   OH245676   6.687   3.599   5.171 -0.1008  0.3999  0.0645
 8062TIP3    H145677   6.735   3.569   5.248  2.5900  1.1529 -1.2000
 8062TIP3    H245678   6.699   3.529   5.107  1.0985  1.4619 -0.9237
 8063TIP3   OH245679   0.150   1.507  16.315 -0.1074  0.0089 -0.1261
 8063TIP3    H145680   0.182   1.422  16.346  0.9714  0.1656 -0.7461
 8063TIP3    H245681   0.182   1.569  16.380 -1.9157 -0.1510  0.9814
 8064TIP3   OH245682   0.551   2.991   3.409 -0.2361  0.3551  0.3223
 8064TIP3    H145683   0.637   3.017   3.374  1.9683 -2.8595  2.8135
 8064TIP3    H245684   0.535   3.052   3.481 -0.2699  1.1448 -0.3276
 8065TIP3   OH245685   4.479   4.309  11.544  0.7516 -0.3349  0.0772
 8065TIP3    H145686   4.467   4.339  11.454  0.1198  3.8415  1.3184
 8065TIP3    H245687   4.391   4.315  11.583  1.0617 -1.8085  1.0794
 8066TIP3   OH245688   3.488   0.361  11.705 -0.5195  0.1565  0.2478
 8066TIP3    H145689   3.489   0.450  11.668 -1.0055  0.1243  0.1428
 8066TIP3    H245690   3.521   0.305  11.635 -1.4308  0.0964 -0.1519
 8067TIP3   OH245691   0.560   6.343   4.741 -0.0102 -0.2857 -0.0614
 8067TIP3    H145692   0.500   6.397   4.792 -0.3537 -0.7674  0.0470
 8067TIP3    H245693   0.647   6.378   4.762 -0.1952 -0.0620  0.3479
 8068TIP3   OH245694   4.317   1.395  10.799  0.1652  0.2486 -0.3672
 8068TIP3    H145695   4.319   1.484  10.764  0.5118  0.2657 -0.3136
 8068TIP3    H245696   4.385   1.348  10.750  0.3522  0.1591 -0.0269
 8069TIP3   OH245697   4.286   6.122   6.199 -0.3225  0.1212  0.9890
 8069TIP3    H145698   4.199   6.149   6.230 -1.7164 -2.2181 -0.5580
 8069TIP3    H245699   4.313   6.053   6.259 -0.3655 -0.3913  0.4261
 8070TIP3   OH245700   5.699   3.114   4.089 -0.7888  0.3495  0.1479
 8070TIP3    H145701   5.712   3.121   4.184  0.2727  2.0301 -0.0847
 8070TIP3    H245702   5.670   3.024   4.075  2.0608 -0.9378  1.7400
 8071TIP3   OH245703   4.612   2.606  15.665  0.6704  0.0579 -0.2148
 8071TIP3    H145704   4.648   2.530  15.711 -0.0651 -0.4956 -0.5281
 8071TIP3    H245705   4.664   2.613  15.586 -0.3736 -1.2235 -1.0560
 8072TIP3   OH245706   0.637   3.771  13.767  0.5169 -0.1029  0.2343
 8072TIP3    H145707   0.646   3.842  13.830  1.8495 -0.4077  0.4312
 8072TIP3    H245708   0.560   3.722  13.795 -1.0302  1.8273 -0.4964
 8073TIP3   OH245709   3.169   3.787  16.491  0.1276  0.4154  0.3325
 8073TIP3    H145710   3.101   3.779  16.557  1.3328  1.2215  1.7304
 8073TIP3    H245711   3.246   3.818  16.539  2.0012 -2.0309 -0.8453
 8074TIP3   OH245712   3.368   5.540  13.707 -0.4564  0.0633 -0.0460
 8074TIP3    H145713   3.455   5.578  13.693 -0.4001 -0.2150 -0.4966
 8074TIP3    H245714   3.317   5.570  13.632 -0.1068 -1.6093 -1.0176
 8075TIP3   OH245715   5.105   0.629  12.319  0.6007 -0.1114 -0.0743
 8075TIP3    H145716   5.100   0.666  12.231  1.1593 -0.7343 -0.3812
 8075TIP3    H245717   5.186   0.577  12.319  0.3069 -0.5953  0.6202
 8076TIP3   OH245718   1.084   0.763   1.807  0.3235 -0.1922 -0.2978
 8076TIP3    H145719   1.121   0.748   1.894  0.8142 -1.8421 -0.7505
 8076TIP3    H245720   1.126   0.843   1.776  0.4832  0.1611  0.7920
 8077TIP3   OH245721   2.213   1.414   3.989  0.3933 -0.2272 -0.2100
 8077TIP3    H145722   2.191   1.354   3.917 -0.0439 -0.3565  0.0293
 8077TIP3    H245723   2.263   1.484   3.947 -0.5247  0.1080 -0.7819
 8078TIP3   OH245724   0.008   1.121   0.311 -0.1798 -0.0270  0.3610
 8078TIP3    H145725   0.022   1.170   0.231 -0.9353  0.7447  0.6824
 8078TIP3    H245726  -0.033   1.183   0.371 -0.5611 -0.8637  1.0070
 8079TIP3   OH245727   5.278   0.258  16.053 -0.7369  0.0839  0.3778
 8079TIP3    H145728   5.190   0.281  16.083 -2.0960 -2.0080 -1.6337
 8079TIP3    H245729   5.279   0.162  16.053  1.6913  0.0426  0.6449
 8080TIP3   OH245730   1.328   5.159   0.677  0.1240  0.3889 -0.2552
 8080TIP3    H145731   1.306   5.109   0.599 -0.1088  0.1252 -0.0217
 8080TIP3    H245732   1.323   5.096   0.748 -1.3444  0.9967  0.2078
 8081TIP3   OH245733   4.468   5.441   3.000 -0.0679 -0.1062  0.0357
 8081TIP3    H145734   4.474   5.347   3.017  0.2910 -0.7555 -3.0595
 8081TIP3    H245735   4.375   5.457   2.984 -0.1217  0.0926  0.5072
 8082TIP3   OH245736   2.215   4.245  12.075  0.0485 -0.1199  0.0763
 8082TIP3    H145737   2.257   4.241  11.990  1.1579 -2.4679  0.6479
 8082TIP3    H245738   2.283   4.219  12.137 -1.4583 -1.2931  1.3406
 8083TIP3   OH245739   5.221   4.243  14.431 -0.3563  0.7528 -0.1297
 8083TIP3    H145740   5.152   4.301  14.397  1.4949  2.3960 -1.3647
 8083TIP3    H245741   5.213   4.163  14.379 -0.4430  1.4963 -1.3048
 8084TIP3   OH245742   3.643   4.624   4.380 -0.1750 -0.3620  0.4682
 8084TIP3    H145743   3.737   4.624   4.365 -0.1387  0.0428  0.6822
 8084TIP3    H245744   3.616   4.714   4.367 -0.8595 -0.7949 -1.4637
 8085TIP3   OH245745   4.413   3.507  16.799 -0.7831 -0.2853 -0.3881
 8085TIP3    H145746   4.457   3.545  16.875 -2.2862 -2.2332  1.5594
 8085TIP3    H245747   4.472   3.526  16.726  0.4555  2.1652  1.1066
 8086TIP3   OH245748   2.651   1.641   2.570 -0.4249  0.0321  0.8985
 8086TIP3    H145749   2.584   1.706   2.550 -1.2044 -0.4719  1.7915
 8086TIP3    H245750   2.734   1.686   2.554 -0.9641  0.8611  0.3720
 8087TIP3   OH245751   4.082   3.828   5.749 -0.0322  0.0566 -0.3431
 8087TIP3    H145752   4.105   3.833   5.842 -1.0949 -0.4865 -0.0472
 8087TIP3    H245753   4.118   3.745   5.720 -4.3493 -2.5817  0.9664
 8088TIP3   OH245754   5.514   2.464   5.447  0.6564  0.4607  0.1514
 8088TIP3    H145755   5.565   2.401   5.499  0.6972  0.4422  0.0895
 8088TIP3    H245756   5.562   2.546   5.456  0.3101  0.6138  0.6740
 8089TIP3   OH245757   6.519   5.198   3.382  0.5519 -0.5337  0.0904
 8089TIP3    H145758   6.563   5.211   3.466 -1.0831 -1.9052  1.2259
 8089TIP3    H245759   6.494   5.106   3.381 -0.2491 -0.3457 -1.5232
 8090TIP3   OH245760   5.336   4.940  12.474 -0.2673 -0.2551  0.0935
 8090TIP3    H145761   5.291   5.022  12.457 -0.4870 -0.0170  1.7094
 8090TIP3    H245762   5.413   4.964  12.526 -0.3811 -1.0626  0.6632
 8091TIP3   OH245763   5.954   3.755   0.268 -0.0976  0.3439  0.3530
 8091TIP3    H145764   5.902   3.807   0.207  0.1340 -0.7630 -0.8101
 8091TIP3    H245765   6.033   3.733   0.220  0.8349  0.8023  1.6187
 8092TIP3   OH245766   0.508   2.863  13.476 -0.2002 -0.6162  0.4047
 8092TIP3    H145767   0.518   2.877  13.382 -1.5048  0.3709  0.3947
 8092TIP3    H245768   0.583   2.907  13.515 -0.1050 -0.3099 -0.1169
 8093TIP3   OH245769   1.881   3.492  14.845  0.2890  0.2822 -0.5110
 8093TIP3    H145770   1.882   3.431  14.919  0.2856  1.3466  0.3873
 8093TIP3    H245771   1.971   3.526  14.840 -0.0001  1.1091 -0.2259
 8094TIP3   OH245772   4.693   1.648  13.945 -0.6663 -0.6007  0.1169
 8094TIP3    H145773   4.725   1.581  13.884 -1.1952 -0.0757 -0.7525
 8094TIP3    H245774   4.603   1.664  13.919 -0.3137  1.0113 -0.1914
 8095TIP3   OH245775   0.254   6.198   2.316 -0.2496  0.5509 -0.3229
 8095TIP3    H145776   0.242   6.160   2.230 -2.7909  0.9140 -0.1955
 8095TIP3    H245777   0.191   6.270   2.320 -0.2246  0.5337  1.8364
 8096TIP3   OH245778   0.133   3.312  14.166 -0.3396  0.6770  0.5133
 8096TIP3    H145779   0.155   3.397  14.203  1.1076  0.8520 -0.6566
 8096TIP3    H245780   0.105   3.331  14.076  0.0884 -0.0782  0.2063
 8097TIP3   OH245781   5.783   0.769  16.804 -0.2846  1.0207  0.1360
 8097TIP3    H145782   5.713   0.707  16.782 -1.4235  1.7983  1.4004
 8097TIP3    H245783   5.783   0.831  16.731 -1.3485  1.3439  0.3782
 8098TIP3   OH245784   0.665   1.237   5.865  0.6537 -0.1190  0.6036
 8098TIP3    H145785   0.744   1.192   5.894  0.7188 -0.6107 -0.3074
 8098TIP3    H245786   0.662   1.222   5.771 -0.4107  0.0839  0.5947
 8099TIP3   OH245787   1.992   5.436  13.450 -0.5134 -0.5266  0.0190
 8099TIP3    H145788   2.008   5.357  13.502 -2.7898 -0.0091  1.6395
 8099TIP3    H245789   1.917   5.414  13.395 -0.0092 -0.0550 -0.8863
 8100TIP3   OH245790   5.271   3.277  17.115 -0.1325 -0.5598 -0.7050
 8100TIP3    H145791   5.200   3.236  17.066  1.1811 -1.5733 -1.8488
 8100TIP3    H245792   5.348   3.225  17.093  0.9765  0.5144  0.4838
 8101TIP3   OH245793   5.984   0.880   4.289 -0.4755 -0.3381  0.0041
 8101TIP3    H145794   6.012   0.849   4.375 -2.1469 -0.5505  0.5002
 8101TIP3    H245795   6.040   0.955   4.271 -0.1381 -0.2635  1.2933
 8102TIP3   OH245796   1.984   6.744   2.894 -0.1509  0.0910  0.5717
 8102TIP3    H145797   1.972   6.683   2.822  0.3091  0.3757  0.2487
 8102TIP3    H245798   1.990   6.830   2.852  0.2276  0.2491  0.9383
 8103TIP3   OH245799   4.735   2.171   0.459 -0.8093 -0.1515 -0.1805
 8103TIP3    H145800   4.741   2.167   0.363 -0.3155 -1.0314 -0.1177
 8103TIP3    H245801   4.795   2.241   0.484 -0.0465 -0.6926 -0.4445
 8104TIP3   OH245802   1.790   1.436   3.374 -0.7459 -0.6127  0.2413
 8104TIP3    H145803   1.753   1.436   3.462  2.0792 -1.7221  1.5503
 8104TIP3    H245804   1.778   1.526   3.343 -3.1464 -0.5778  1.0762
 8105TIP3   OH245805   5.357   1.485  11.790 -0.0821 -0.6296  0.6202
 8105TIP3    H145806   5.368   1.391  11.805 -0.4323 -0.6397  0.8227
 8105TIP3    H245807   5.269   1.505  11.821  0.5805  0.0821  2.1916
 8106TIP3   OH245808   1.922   6.243   0.985  0.0532 -0.1084 -0.1929
 8106TIP3    H145809   1.841   6.201   0.957  0.4951  0.0757 -1.8254
 8106TIP3    H245810   1.922   6.235   1.080 -2.2407  0.5158 -0.0851
 8107TIP3   OH245811   6.281   3.324  15.812 -0.0462 -0.2541  0.1720
 8107TIP3    H145812   6.311   3.247  15.860 -0.6746 -0.0750  0.8731
 8107TIP3    H245813   6.196   3.298  15.775 -0.1841  0.0431  0.2739
 8108TIP3   OH245814   3.538   6.198  15.744  0.1178  0.3680  0.3098
 8108TIP3    H145815   3.507   6.223  15.831  0.1721  0.4262  0.3123
 8108TIP3    H245816   3.611   6.138  15.761  1.2916  1.7468  0.3334
 8109TIP3   OH245817   3.868   1.179  11.417  0.5917 -0.1450  0.0531
 8109TIP3    H145818   3.818   1.196  11.497 -0.4885  0.8130 -0.7789
 8109TIP3    H245819   3.959   1.196  11.442  0.3194 -0.2263  1.1692
 8110TIP3   OH245820   6.786   4.420   2.571 -0.8025  0.2460  0.1637
 8110TIP3    H145821   6.737   4.480   2.628 -1.7163  0.0533 -0.3967
 8110TIP3    H245822   6.870   4.410   2.615 -1.5009  0.0441  1.5321
 8111TIP3   OH245823   2.136   3.017   3.030 -0.0614  0.3639  0.4454
 8111TIP3    H145824   2.210   3.050   2.979 -0.1103 -1.3904 -0.8541
 8111TIP3    H245825   2.152   2.922   3.035 -1.6989  0.0967  1.0103
 8112TIP3   OH245826   0.136   0.303  13.294  0.2261  0.6917  0.4663
 8112TIP3    H145827   0.145   0.312  13.389 -0.5295  2.1998  0.4285
 8112TIP3    H245828   0.079   0.227  13.283  0.3397  0.4877  1.2110
 8113TIP3   OH245829   0.761   1.065   3.484 -0.1389 -0.9380  0.1320
 8113TIP3    H145830   0.825   1.012   3.435 -0.7425  0.3475 -2.2101
 8113TIP3    H245831   0.676   1.025   3.462 -0.3411 -1.1551  1.2628
 8114TIP3   OH245832   4.518   6.438  13.084  0.5205 -0.3671 -0.2659
 8114TIP3    H145833   4.490   6.517  13.130  1.4223  0.3218 -0.8604
 8114TIP3    H245834   4.610   6.426  13.111  0.6305 -0.7620 -0.7874
 8115TIP3   OH245835   1.364   4.436  13.889 -0.0592 -0.2649  0.1748
 8115TIP3    H145836   1.328   4.485  13.964 -0.3316 -0.3216  0.0845
 8115TIP3    H245837   1.301   4.452  13.818 -1.1446 -2.1641  0.6241
 8116TIP3   OH245838   1.102   4.885  11.778 -0.0775  0.1772  0.0992
 8116TIP3    H145839   1.146   4.913  11.858  1.1408  0.0855 -0.5229
 8116TIP3    H245840   1.058   4.804  11.803 -2.0586  1.5581  1.3993
 8117TIP3   OH245841   0.606   0.435  14.291 -0.0478 -0.0337 -0.0668
 8117TIP3    H145842   0.683   0.389  14.257  0.7786  0.9113  0.4836
 8117TIP3    H245843   0.634   0.471  14.375 -1.3373 -0.3253  0.5189
 8118TIP3   OH245844   2.963   3.481  13.177 -0.3402 -0.3649 -0.3985
 8118TIP3    H145845   2.875   3.444  13.182 -0.4616 -0.0250  0.0388
 8118TIP3    H245846   3.020   3.405  13.165 -0.6402 -0.6440 -0.0779
 8119TIP3   OH245847   3.809   0.926  13.958 -0.5160  0.5067  0.2302
 8119TIP3    H145848   3.732   0.870  13.951  0.2634 -0.5692 -0.1362
 8119TIP3    H245849   3.825   0.935  14.052 -0.7154  0.2050  0.2927
 8120TIP3   OH245850   3.353   2.393  13.580  0.5226  0.8248 -0.0078
 8120TIP3    H145851   3.370   2.442  13.661 -0.2217  0.5881  0.2933
 8120TIP3    H245852   3.327   2.306  13.610  1.0478  0.4854 -0.5278
 8121TIP3   OH245853   2.556   2.797   3.468 -0.1808  0.3244 -0.0799
 8121TIP3    H145854   2.617   2.783   3.540 -0.3988  0.0974  0.0626
 8121TIP3    H245855   2.528   2.888   3.477  0.6894  0.6527 -0.5768
 8122TIP3   OH245856   1.431   0.435   0.905 -0.4643 -0.2788 -0.1113
 8122TIP3    H145857   1.440   0.359   0.849  4.0882  0.2425 -0.4659
 8122TIP3    H245858   1.475   0.411   0.987 -1.9224  0.8957  1.0957
 8123TIP3   OH245859   0.388   3.274   2.814 -0.2163  0.3803 -0.3899
 8123TIP3    H145860   0.293   3.264   2.814 -0.3018  1.1056  0.5960
 8123TIP3    H245861   0.410   3.300   2.903  1.2719 -3.0667  0.4305
 8124TIP3   OH245862   0.531   3.860   1.098 -0.3287  0.0094 -0.2599
 8124TIP3    H145863   0.455   3.845   1.154 -0.3786  0.4138 -0.2162
 8124TIP3    H245864   0.502   3.836   1.010  0.2493 -2.2586  0.1101
 8125TIP3   OH245865   2.017   1.092  16.381  1.1022 -0.4958 -0.3380
 8125TIP3    H145866   2.077   1.158  16.415 -0.1331 -0.2585  1.5827
 8125TIP3    H245867   1.974   1.057  16.459  0.7127 -2.5920 -1.4203
 8126TIP3   OH245868   1.148   3.015   3.836  0.0099  0.0466  0.0966
 8126TIP3    H145869   1.151   3.110   3.840  0.5289  0.0650 -0.6008
 8126TIP3    H245870   1.222   2.991   3.780 -0.9863 -0.6892 -0.9409
 8127TIP3   OH245871   5.268   3.450  15.181  0.2471 -0.5635 -0.2776
 8127TIP3    H145872   5.184   3.420  15.148  0.8917 -0.5090 -2.0767
 8127TIP3    H245873   5.286   3.395  15.257 -1.4528 -0.4722  0.2303
 8128TIP3   OH245874   1.201   6.551  11.384 -0.4689 -0.3784  0.4977
 8128TIP3    H145875   1.258   6.552  11.461 -0.4854 -0.6137  0.5149
 8128TIP3    H245876   1.113   6.562  11.420 -0.4046  0.3660  0.4389
 8129TIP3   OH245877   2.173   4.999  13.695  0.1673  0.1291 -1.0386
 8129TIP3    H145878   2.259   4.975  13.728 -0.0554 -0.7721 -1.0856
 8129TIP3    H245879   2.155   4.933  13.627 -0.1821  0.8305 -1.6389
 8130TIP3   OH245880   3.716   6.412   6.545 -0.3009  0.2024 -0.3171
 8130TIP3    H145881   3.766   6.334   6.519 -1.0958  0.1454 -1.7568
 8130TIP3    H245882   3.726   6.472   6.471  0.6758  1.6982  0.9535
 8131TIP3   OH245883   4.681   3.816  12.993  0.0254 -0.3606 -0.1963
 8131TIP3    H145884   4.761   3.859  13.021  0.1880 -0.6991 -0.1443
 8131TIP3    H245885   4.705   3.770  12.913 -0.1137 -0.4722 -0.1752
 8132TIP3   OH245886   5.224   2.258   5.272 -0.1245 -0.1674 -0.1255
 8132TIP3    H145887   5.153   2.196   5.255  0.1378 -0.0399 -1.8808
 8132TIP3    H245888   5.304   2.208   5.255  0.0918  0.5823 -1.4766
 8133TIP3   OH245889   3.041   5.928  11.525 -0.1398 -0.0816 -0.1969
 8133TIP3    H145890   3.095   6.000  11.559 -0.5363  0.7419 -1.2569
 8133TIP3    H245891   2.981   5.907  11.596 -0.6951  1.3432 -0.2008
 8134TIP3   OH245892   1.638   4.440   0.040 -0.3536  0.1547 -0.5399
 8134TIP3    H145893   1.704   4.373   0.054  1.0453  1.4000 -0.8502
 8134TIP3    H245894   1.562   4.393   0.004  0.1130 -1.3975  0.4229
 8135TIP3   OH245895   2.739   5.816  11.032 -0.2117 -0.2494  0.2432
 8135TIP3    H145896   2.812   5.823  10.971  0.1026 -1.0972  0.5060
 8135TIP3    H245897   2.739   5.899  11.079 -0.3570  0.3530 -0.7811
 8136TIP3   OH245898   4.683   3.009  15.035 -0.1595  0.0040 -0.1540
 8136TIP3    H145899   4.661   2.935  14.979  0.9610 -0.0058 -0.6092
 8136TIP3    H245900   4.599   3.037  15.072 -0.6587 -1.1989 -0.3233
 8137TIP3   OH245901   5.627   4.142  16.346  0.1625 -0.0780  0.0864
 8137TIP3    H145902   5.723   4.147  16.336  0.0666  2.5462 -0.1751
 8137TIP3    H245903   5.614   4.099  16.430  1.4553 -3.1895 -1.1654
 8138TIP3   OH245904   2.078   5.571   3.925  0.0519  0.1441 -0.0252
 8138TIP3    H145905   1.995   5.524   3.908 -0.2174  0.6660 -0.1723
 8138TIP3    H245906   2.091   5.625   3.847  0.7449 -0.2331 -0.1779
 8139TIP3   OH245907   2.632   4.801   0.769 -0.2282  0.5191 -0.2557
 8139TIP3    H145908   2.626   4.725   0.827  0.9209  0.1262 -0.6266
 8139TIP3    H245909   2.592   4.872   0.819  1.4899  0.4158  1.4243
 8140TIP3   OH245910   1.763   1.692   1.608  0.0560 -0.7086  0.3495
 8140TIP3    H145911   1.684   1.651   1.573 -0.9516  1.4294 -0.0572
 8140TIP3    H245912   1.835   1.641   1.572 -1.0861 -1.2018 -1.3585
 8141TIP3   OH245913   0.484   0.770   0.641 -0.0365  0.4017  0.2326
 8141TIP3    H145914   0.407   0.827   0.645  0.6800  1.3663  0.5039
 8141TIP3    H245915   0.460   0.703   0.576 -1.2915  0.3909  0.6770
 8142TIP3   OH245916   3.601   0.888  14.219 -0.2802  0.7143  0.1766
 8142TIP3    H145917   3.617   0.904  14.312  1.3611  2.5600 -0.3678
 8142TIP3    H245918   3.529   0.947  14.197 -2.3310 -1.4017  0.6945
 8143TIP3   OH245919   6.671   2.821  12.320  0.2194 -0.0102 -0.0231
 8143TIP3    H145920   6.765   2.836  12.324  0.2341  0.0712 -0.6498
 8143TIP3    H245921   6.642   2.826  12.411  0.7645  0.3073  0.1344
 8144TIP3   OH245922   1.326   3.055   1.645 -1.1269 -0.2252 -0.8481
 8144TIP3    H145923   1.357   3.132   1.597  3.5042 -1.5307 -0.4918
 8144TIP3    H245924   1.331   3.080   1.737  1.7613 -1.1388 -0.6441
 8145TIP3   OH245925   1.979   0.664  12.042  0.0666  0.5340 -0.5090
 8145TIP3    H145926   1.950   0.584  12.085 -1.2545  1.5539  0.6158
 8145TIP3    H245927   1.898   0.704  12.009  0.5920  1.7990 -0.3161
 8146TIP3   OH245928   0.568   2.741  16.106 -0.3460 -0.4119  0.0064
 8146TIP3    H145929   0.487   2.707  16.067  0.2201 -0.5833 -1.0291
 8146TIP3    H245930   0.550   2.834  16.122 -0.4654 -0.2557 -0.9972
 8147TIP3   OH245931   6.106   3.127   0.129  0.3653 -0.5468  0.1810
 8147TIP3    H145932   6.085   3.051   0.183 -1.6014 -1.7516 -2.0892
 8147TIP3    H245933   6.050   3.197   0.163  1.3318 -0.3840  1.5301
 8148TIP3   OH245934   4.916   1.490   6.320 -0.4008  0.3885 -0.4377
 8148TIP3    H145935   4.974   1.425   6.281 -0.0983  0.6618 -0.4540
 8148TIP3    H245936   4.960   1.515   6.402 -0.7171  0.2789 -0.2312
 8149TIP3   OH245937   6.171   4.397   2.914 -0.3555  0.0950  0.1829
 8149TIP3    H145938   6.220   4.430   2.989 -1.3571  1.4691  0.2861
 8149TIP3    H245939   6.225   4.327   2.877  0.9623  0.5850  1.1426
 8150TIP3   OH245940   3.957   3.791   1.212  0.4968 -0.2124  0.0753
 8150TIP3    H145941   3.880   3.842   1.235 -0.5345 -1.5340 -0.2951
 8150TIP3    H245942   4.019   3.855   1.177 -0.9526  0.7237 -0.8892
 8151TIP3   OH245943   2.068   2.723  14.471 -0.1283 -0.4554 -0.3992
 8151TIP3    H145944   2.036   2.714  14.381  1.2723  1.0284 -1.0998
 8151TIP3    H245945   2.135   2.791  14.466 -0.2385 -0.1057  1.8439
 8152TIP3   OH245946   6.387   1.361   4.988  0.3911 -0.5439  0.2218
 8152TIP3    H145947   6.467   1.343   5.039 -0.9182 -1.1248  2.2023
 8152TIP3    H245948   6.335   1.417   5.046 -0.6777 -0.2346 -1.0081
 8153TIP3   OH245949   6.013   1.633   1.844 -0.1240 -0.8558 -0.3747
 8153TIP3    H145950   5.946   1.638   1.776 -1.5498  1.1518  1.0181
 8153TIP3    H245951   6.079   1.697   1.818  0.1423 -1.2393 -0.6492
 8154TIP3   OH245952   2.203   1.873  11.731 -0.8584 -0.0058 -0.1139
 8154TIP3    H145953   2.148   1.896  11.656 -0.2990 -0.6877 -0.7502
 8154TIP3    H245954   2.258   1.951  11.745 -1.5583  0.4497  0.1460
 8155TIP3   OH245955   2.337   5.606  12.591  0.0764 -0.2370 -0.0869
 8155TIP3    H145956   2.364   5.527  12.544 -2.4705 -0.2621 -1.6653
 8155TIP3    H245957   2.378   5.678  12.543  0.9919 -0.4802  0.3101
 8156TIP3   OH245958   4.595   0.041  12.376 -0.0785 -0.4176  0.0782
 8156TIP3    H145959   4.606  -0.046  12.414  0.8396 -0.3977 -0.1419
 8156TIP3    H245960   4.545   0.089  12.443 -0.3298 -1.0179  0.3312
 8157TIP3   OH245961   3.336   5.277   4.331 -0.4466 -0.4390  0.1752
 8157TIP3    H145962   3.299   5.351   4.284 -0.6958 -0.5372  0.2149
 8157TIP3    H245963   3.429   5.296   4.337 -0.4854 -0.2095  0.0398
 8158TIP3   OH245964   6.580   1.404   5.992 -0.5470  0.5244  0.3447
 8158TIP3    H145965   6.608   1.315   6.012  1.4782  0.4419 -2.2661
 8158TIP3    H245966   6.487   1.397   5.973 -0.3906 -1.0905  0.0379
 8159TIP3   OH245967   0.274   3.664   5.458 -0.8041  0.5858 -0.3466
 8159TIP3    H145968   0.240   3.676   5.547  0.3795 -0.6752  0.3166
 8159TIP3    H245969   0.261   3.749   5.416 -0.6324  1.4727  1.3010
 8160TIP3   OH245970   0.162   4.861  15.544 -0.2501  0.1807 -0.1461
 8160TIP3    H145971   0.109   4.868  15.465  0.0530 -1.2484 -0.4960
 8160TIP3    H245972   0.178   4.767  15.555 -0.7759  0.2876  1.9606
 8161TIP3   OH245973   3.124   0.246   4.545 -0.0578 -0.1239 -0.0092
 8161TIP3    H145974   3.142   0.154   4.525 -0.3825 -0.1286 -0.2811
 8161TIP3    H245975   3.211   0.286   4.551  0.0821 -0.4234 -0.0084
 8162TIP3   OH245976   4.257   1.498  16.854  0.4403  0.3165  0.0163
 8162TIP3    H145977   4.188   1.431  16.845  1.6594 -0.8694 -0.9749
 8162TIP3    H245978   4.247   1.552  16.776  0.5612  0.1956 -0.0846
 8163TIP3   OH245979   5.171   5.065  13.970 -0.2852  0.4253  0.1445
 8163TIP3    H145980   5.098   5.066  14.033  0.9549  0.4017  1.6590
 8163TIP3    H245981   5.246   5.038  14.022  1.5921  3.9053 -0.4565
 8164TIP3   OH245982   6.719   1.956   5.764  0.2684  0.0680  0.0367
 8164TIP3    H145983   6.645   1.926   5.711  0.4398  0.1713 -0.2654
 8164TIP3    H245984   6.721   1.895   5.838  0.2325 -0.2840 -0.2472
 8165TIP3   OH245985   6.750   1.665   3.641  0.4849  0.0176  0.1281
 8165TIP3    H145986   6.734   1.630   3.729  0.8101 -0.4788 -0.0032
 8165TIP3    H245987   6.713   1.598   3.583  0.2501  0.3571 -0.1129
 8166TIP3   OH245988   4.920   6.624   5.719 -0.3326  0.8068 -0.1581
 8166TIP3    H145989   4.928   6.639   5.813  1.1395 -2.9326  0.4939
 8166TIP3    H245990   4.991   6.676   5.681  0.0540  1.1581  0.9771
 8167TIP3   OH245991   0.847   1.845  15.393  0.3885 -0.2289  0.0020
 8167TIP3    H145992   0.940   1.863  15.407  1.0460  0.4590 -4.1772
 8167TIP3    H245993   0.830   1.769  15.449  3.8386 -1.2816 -0.1172
 8168TIP3   OH245994   5.524   6.159  12.809 -0.3712 -0.4561  0.3425
 8168TIP3    H145995   5.571   6.086  12.848  0.3801  0.2216  0.7381
 8168TIP3    H245996   5.528   6.142  12.715  0.2050 -0.6842  0.4042
 8169TIP3   OH245997   0.443   4.624  15.577  0.1215  0.0555  0.3527
 8169TIP3    H145998   0.463   4.717  15.588  1.1362  0.1130 -1.6094
 8169TIP3    H245999   0.526   4.580  15.595 -0.4576 -0.5408  1.6898
 8170TIP3   OH246000   5.495   2.610  17.115  0.1140  0.2589  0.1452
 8170TIP3    H146001   5.468   2.533  17.064 -0.3156  2.2248 -2.8505
 8170TIP3    H246002   5.590   2.600  17.125  0.3848  0.2776 -2.0389
 8171TIP3   OH246003   3.028   6.177   1.829  0.6699  0.2032  0.1617
 8171TIP3    H146004   3.058   6.205   1.742  1.3863 -0.2713  0.2496
 8171TIP3    H246005   2.939   6.213   1.836  1.4101  2.1432  0.1252
 8172TIP3   OH246006   4.295   3.947   5.630 -0.1135  0.1859  0.3579
 8172TIP3    H146007   4.218   3.904   5.666  0.5301 -1.1463  0.2076
 8172TIP3    H246008   4.341   3.877   5.583 -0.1222  1.5100 -1.7367
 8173TIP3   OH246009   5.732   3.548   3.901 -0.0989  0.2982 -0.6570
 8173TIP3    H146010   5.698   3.575   3.816  2.2752 -0.7160 -2.0149
 8173TIP3    H246011   5.799   3.613   3.922 -1.3957  1.1852  1.0577
 8174TIP3   OH246012   4.522   1.814  12.561  0.7145  0.2400  0.1488
 8174TIP3    H146013   4.483   1.783  12.480  1.7099 -0.5999 -0.0223
 8174TIP3    H246014   4.461   1.785  12.630  0.8094 -0.6896 -0.1460
 8175TIP3   OH246015   5.670   1.451  13.779 -0.1437  0.0559 -0.1721
 8175TIP3    H146016   5.653   1.452  13.874  0.2087  0.5071 -0.1094
 8175TIP3    H246017   5.608   1.515  13.744  1.1497  1.4814  0.0210
 8176TIP3   OH246018   5.386   2.218  14.302  0.0797 -0.4684  0.2952
 8176TIP3    H146019   5.314   2.246  14.358  0.2633  1.4507 -0.3757
 8176TIP3    H246020   5.366   2.254  14.216  2.0921  0.6336  0.2272
 8177TIP3   OH246021   4.023   5.279  12.798  0.1368 -0.7477 -0.3952
 8177TIP3    H146022   3.948   5.325  12.760 -0.0917 -1.6777 -1.0969
 8177TIP3    H246023   4.090   5.347  12.809 -0.2215 -0.2270 -1.3359
 8178TIP3   OH246024   4.995   3.743  14.200  0.7482 -0.0728  0.0410
 8178TIP3    H146025   5.010   3.655  14.236 -2.1238 -2.5791 -3.9894
 8178TIP3    H246026   4.929   3.781  14.259  1.6638 -0.7660  1.5911
 8179TIP3   OH246027   0.189   3.451   1.019 -0.3494  0.6740 -0.3399
 8179TIP3    H146028   0.149   3.421   0.938 -1.3063  0.3068  0.2464
 8179TIP3    H246029   0.152   3.394   1.087  1.1157  0.3751  0.2581
 8180TIP3   OH246030   6.543   5.882   2.705  0.0313 -0.4155  0.3521
 8180TIP3    H146031   6.472   5.920   2.654 -2.2412 -0.2480  3.3899
 8180TIP3    H246032   6.563   5.800   2.660 -1.5555 -0.1117 -0.9953
 8181TIP3   OH246033   1.887   4.257   5.483 -0.2364  0.0224  0.0698
 8181TIP3    H146034   1.890   4.263   5.578  0.4222  0.6806  0.0139
 8181TIP3    H246035   1.910   4.166   5.465 -1.2000 -0.3378  0.5595
 8182TIP3   OH246036   0.065   6.298  14.254 -0.0235  0.3458  0.1238
 8182TIP3    H146037   0.015   6.218  14.272 -0.3693  0.3890 -0.6441
 8182TIP3    H246038   0.137   6.295  14.317 -0.7689  0.0922  0.9865
 8183TIP3   OH246039   1.599   5.796  11.353 -0.3397 -0.3808  0.1170
 8183TIP3    H146040   1.638   5.797  11.265 -0.0268 -1.1529  0.2409
 8183TIP3    H246041   1.530   5.730  11.348  0.0682 -0.8461  0.6152
 8184TIP3   OH246042   3.571   2.823   2.271 -0.2767 -0.0075  0.4865
 8184TIP3    H146043   3.587   2.729   2.276 -0.0844  0.0111  0.2419
 8184TIP3    H246044   3.495   2.831   2.213  0.7689  0.0789 -0.9309
 8185TIP3   OH246045   1.394   2.565   1.365  0.3770  0.0074  0.2567
 8185TIP3    H146046   1.300   2.583   1.371  0.4327 -0.2074  4.2083
 8185TIP3    H246047   1.435   2.630   1.421  1.9507 -3.1432  3.1641
 8186TIP3   OH246048   3.400   4.783  11.174  0.1410 -0.2213 -0.1269
 8186TIP3    H146049   3.434   4.831  11.250 -1.0927  2.8549 -1.3271
 8186TIP3    H246050   3.370   4.699  11.209  2.4511 -0.1912  2.1613
 8187TIP3   OH246051   0.429   4.388   6.411  1.3864 -0.4366 -0.0914
 8187TIP3    H146052   0.430   4.293   6.406 -0.2496 -0.5114  0.5326
 8187TIP3    H246053   0.482   4.416   6.337  0.1525 -1.8049 -1.5608
 8188TIP3   OH246054   5.842   6.657  15.029 -0.5132  0.0690 -0.3429
 8188TIP3    H146055   5.893   6.684  15.105  0.6021 -0.5891 -0.8333
 8188TIP3    H246056   5.809   6.738  14.992  0.6435  0.5607 -0.3277
 8189TIP3   OH246057   1.234   6.668  13.886 -0.0052  0.1545  0.0197
 8189TIP3    H146058   1.259   6.731  13.819 -1.4903  0.9022  0.1137
 8189TIP3    H246059   1.316   6.638  13.924  0.8302  0.1686 -1.7161
 8190TIP3   OH246060   3.022   4.966   4.275  0.3735 -0.0791  0.2932
 8190TIP3    H146061   2.938   4.977   4.319  0.6688 -1.5020  1.2862
 8190TIP3    H246062   3.084   4.946   4.345  1.5308  0.7718 -0.4415
 8191TIP3   OH246063   3.864   3.095  13.035 -0.1523 -0.6992 -0.0249
 8191TIP3    H146064   3.841   3.178  12.993  0.4884  0.6175  2.0962
 8191TIP3    H246065   3.902   3.043  12.964  2.3587  1.9905 -0.8311
 8192TIP3   OH246066   1.909   0.717   3.583 -0.1038 -0.5920 -0.4778
 8192TIP3    H146067   1.879   0.650   3.645  1.2501 -1.7815 -1.0414
 8192TIP3    H246068   2.004   0.722   3.598 -0.1020  0.8531 -0.8098
 8193TIP3   OH246069   6.573   3.671   5.468 -0.1015  0.0884  1.2145
 8193TIP3    H146070   6.657   3.717   5.464 -1.3546  2.4425 -0.9893
 8193TIP3    H246071   6.597   3.578   5.467  2.4716  0.6621  1.7835
 8194TIP3   OH246072   3.596   2.099  15.191  0.3075  0.0345 -0.3691
 8194TIP3    H146073   3.593   2.186  15.230  1.9800 -0.3029  0.5974
 8194TIP3    H246074   3.602   2.115  15.097 -2.3376  0.8733 -0.4878
 8195TIP3   OH246075   4.625   3.587   0.647  0.6813 -0.3080  0.0522
 8195TIP3    H146076   4.656   3.674   0.669  0.1100 -0.3660  1.1558
 8195TIP3    H246077   4.674   3.529   0.705 -0.2319 -0.5523  0.5957
 8196TIP3   OH246078   5.165   6.041   5.314  0.5935 -0.4271  0.3555
 8196TIP3    H146079   5.231   6.101   5.349  2.1137 -1.7169 -0.2015
 8196TIP3    H246080   5.087   6.095   5.305  1.4520  1.0594  1.3936
 8197TIP3   OH246081   3.805   4.169   5.381  0.5262  0.0404  0.1036
 8197TIP3    H146082   3.830   4.103   5.445  0.8144  0.3252  0.2811
 8197TIP3    H246083   3.719   4.199   5.410  0.0564 -0.7762 -0.3843
 8198TIP3   OH246084   2.365   2.544  12.542  0.4535 -0.1092  0.0450
 8198TIP3    H146085   2.320   2.601  12.604 -0.1223 -0.3379 -0.1530
 8198TIP3    H246086   2.388   2.466  12.593 -1.6280 -1.1074 -0.3924
 8199TIP3   OH246087   2.512   1.071  16.162 -0.0923 -0.0467  0.1944
 8199TIP3    H146088   2.466   1.142  16.117  2.9332  1.5517 -0.6025
 8199TIP3    H246089   2.492   1.085  16.255 -1.2135  0.5583 -0.1215
 8200TIP3   OH246090   0.238   4.242   2.377  0.2709 -0.0940  0.0257
 8200TIP3    H146091   0.256   4.333   2.353  1.4409 -0.0987  0.7863
 8200TIP3    H246092   0.265   4.236   2.469 -1.1991 -0.8363  0.4332
 8201TIP3   OH246093   2.641   0.369   1.630 -0.6541  0.4355  0.0206
 8201TIP3    H146094   2.597   0.437   1.579  2.5767 -0.2612 -4.2090
 8201TIP3    H246095   2.726   0.407   1.653 -0.9435 -0.3207  2.6646
 8202TIP3   OH246096   6.167   6.706  15.853  0.6612 -0.5228 -0.8923
 8202TIP3    H146097   6.091   6.763  15.840 -0.0597 -1.0976  0.5380
 8202TIP3    H246098   6.137   6.619  15.826  0.4653 -0.9323  0.5167
 8203TIP3   OH246099   4.616   2.849   5.911 -0.2742  0.4304  0.4628
 8203TIP3    H146100   4.622   2.781   5.844 -0.4303  0.5509  0.3237
 8203TIP3    H246101   4.700   2.846   5.956  0.1031  0.8108 -0.1944
 8204TIP3   OH246102   5.485   5.549   3.391 -0.0646 -0.4234  0.8151
 8204TIP3    H146103   5.576   5.562   3.364 -0.4697  1.3448  0.1315
 8204TIP3    H246104   5.441   5.630   3.364 -1.6099 -0.7821  2.1224
 8205TIP3   OH246105   2.655   3.565  15.225 -0.1845 -0.0445  0.2032
 8205TIP3    H146106   2.651   3.644  15.279 -0.4995 -1.0175  1.6888
 8205TIP3    H246107   2.668   3.597  15.136  2.1595  1.6253  1.0139
 8206TIP3   OH246108   6.155   2.731   3.448 -0.5409 -0.1974  0.0539
 8206TIP3    H146109   6.122   2.649   3.412  0.7037 -1.5840  1.8671
 8206TIP3    H246110   6.076   2.783   3.465 -1.4488 -1.4931 -0.0319
 8207TIP3   OH246111   5.310   3.577  16.551  0.1184 -0.5877  0.2757
 8207TIP3    H146112   5.279   3.533  16.630 -1.1674 -1.7967 -0.8501
 8207TIP3    H246113   5.365   3.513  16.507 -0.2379 -0.4034 -0.4569
 8208TIP3   OH246114   1.687   3.199   0.567 -0.1267 -0.2652 -0.3081
 8208TIP3    H146115   1.748   3.211   0.640  0.6888  0.2280 -1.0415
 8208TIP3    H246116   1.608   3.162   0.606 -0.7278  2.4683  1.2510
 8209TIP3   OH246117   1.511   1.267   3.931 -0.5725 -0.8539  0.1475
 8209TIP3    H146118   1.567   1.215   3.875 -1.7770 -2.1352  0.0821
 8209TIP3    H246119   1.556   1.268   4.016  1.2001  1.0029 -0.7297
 8210TIP3   OH246120   4.746   3.886  12.396 -0.0787  0.4959  1.4705
 8210TIP3    H146121   4.738   3.975  12.362  0.8456  1.2959  3.1944
 8210TIP3    H246122   4.656   3.856  12.408 -0.5243 -0.3791 -2.7723
 8211TIP3   OH246123   2.586   3.134   4.219 -0.4338  0.1838 -0.0613
 8211TIP3    H146124   2.567   3.085   4.298  0.4343  0.9464  0.6419
 8211TIP3    H246125   2.501   3.170   4.192 -0.6432  0.3959  0.8516
 8212TIP3   OH246126   1.286   4.662   1.964 -0.1787  0.4142  0.2358
 8212TIP3    H146127   1.332   4.580   1.983  0.3198  1.0599  2.0057
 8212TIP3    H246128   1.343   4.730   1.999 -0.3235  1.5983 -1.6966
 8213TIP3   OH246129   6.168   2.301  15.615  0.0360  0.1305  0.6503
 8213TIP3    H146130   6.212   2.347  15.543  1.4051 -4.1843 -1.6230
 8213TIP3    H246131   6.217   2.328  15.694  1.6110  1.4584 -0.7000
 8214TIP3   OH246132   2.664   3.287   2.501  0.4965 -0.0127  0.4913
 8214TIP3    H146133   2.746   3.248   2.531  0.5885 -0.4209 -0.2451
 8214TIP3    H246134   2.632   3.225   2.435 -0.2841  0.2605  0.6098
 8215TIP3   OH246135   0.519   1.512   5.776  0.3881 -0.4154 -0.0447
 8215TIP3    H146136   0.584   1.471   5.832  0.2658 -0.0236  0.3956
 8215TIP3    H246137   0.570   1.563   5.713  0.5135  0.8069  1.0031
 8216TIP3   OH246138   3.535   2.880   3.427 -0.2255  0.1766  0.6815
 8216TIP3    H146139   3.572   2.934   3.357 -0.8466  0.7936  0.8182
 8216TIP3    H246140   3.507   2.943   3.493  2.2280 -0.4610  2.4727
 8217TIP3   OH246141   4.004   6.499   4.739 -0.1691 -0.2811 -0.4600
 8217TIP3    H146142   4.059   6.576   4.725 -0.5591  0.5712  2.1425
 8217TIP3    H246143   3.999   6.490   4.835 -3.7363 -0.8875 -0.5643
 8218TIP3   OH246144   4.567   2.834  16.635 -0.0414 -0.1189  0.1306
 8218TIP3    H146145   4.575   2.789  16.550 -2.3167 -1.8091  0.7154
 8218TIP3    H246146   4.485   2.883  16.629  0.8867  1.5695  0.6200
 8219TIP3   OH246147   4.916   3.251  16.648  0.2989 -0.0895  0.3396
 8219TIP3    H146148   4.986   3.229  16.710  1.4141 -1.1687 -1.2177
 8219TIP3    H246149   4.836   3.251  16.701  1.3826  0.6724  2.0816
 8220TIP3   OH246150   4.713   1.906  14.018 -0.1551  0.4922 -0.2755
 8220TIP3    H146151   4.629   1.928  13.978 -2.2341 -1.1753  2.7693
 8220TIP3    H246152   4.723   1.812  14.004 -0.6068 -0.0051  2.2701
 8221TIP3   OH246153   2.134   4.872   4.371  0.6130  0.6385  0.2914
 8221TIP3    H146154   2.073   4.829   4.432  0.9376 -0.7533 -0.3328
 8221TIP3    H246155   2.080   4.893   4.295  0.5948  0.7839  0.3431
 8222TIP3   OH246156   1.016   3.878   2.111 -0.7685 -0.0122  0.1876
 8222TIP3    H146157   1.016   3.793   2.156 -0.6765 -0.1952 -0.1608
 8222TIP3    H246158   1.084   3.871   2.045 -1.3837 -0.0021 -0.4683
 8223TIP3   OH246159   2.696   1.466  12.842 -0.3301  0.8764 -0.2865
 8223TIP3    H146160   2.771   1.422  12.880 -0.5719  0.5354 -0.1979
 8223TIP3    H246161   2.633   1.396  12.824 -0.9229  1.2364  0.3211
 8224TIP3   OH246162   3.238   2.805  17.196  0.5930 -0.3496  0.9661
 8224TIP3    H146163   3.193   2.761  17.124  0.4756 -0.0181  0.8338
 8224TIP3    H246164   3.328   2.774  17.191  0.6571 -0.1093  0.4931
 8225TIP3   OH246165   0.473   5.894  14.117 -0.4932 -0.6054 -0.0042
 8225TIP3    H146166   0.415   5.937  14.055  0.4895  0.4505 -0.2295
 8225TIP3    H246167   0.504   5.816  14.071  0.1911  0.1483 -0.8439
 8226TIP3   OH246168   2.303   1.124  14.165  0.0554  0.1478  0.3363
 8226TIP3    H146169   2.278   1.183  14.094  2.2808 -0.1658 -0.8118
 8226TIP3    H246170   2.222   1.110  14.215 -0.8721  2.9983 -0.1698
 8227TIP3   OH246171   6.224   0.736   0.739 -0.3041  0.5516 -0.0201
 8227TIP3    H146172   6.248   0.651   0.700 -1.1933  0.7861 -1.1287
 8227TIP3    H246173   6.236   0.798   0.667 -1.4361  1.0854  0.2425
 8228TIP3   OH246174   2.958   3.018   3.855 -0.0815  0.2154  0.3633
 8228TIP3    H146175   2.994   3.107   3.848  1.0937 -0.3453 -1.5160
 8228TIP3    H246176   2.938   2.994   3.765  0.6076 -1.8111  0.7047
 8229TIP3   OH246177   5.696   3.692  11.180  0.3220  0.0486 -0.5048
 8229TIP3    H146178   5.790   3.674  11.191  0.7526  1.5564 -1.3260
 8229TIP3    H246179   5.692   3.787  11.168 -1.4396  0.1526  0.5653
 8230TIP3   OH246180   0.676   3.328   3.427 -0.0903  0.1405 -0.1810
 8230TIP3    H146181   0.621   3.399   3.460 -1.8734 -1.3093  0.0958
 8230TIP3    H246182   0.688   3.348   3.334 -0.1328  1.0584 -0.0014
 8231TIP3   OH246183   4.442   1.683  11.846  0.0843 -0.1301 -0.2951
 8231TIP3    H146184   4.531   1.651  11.831  0.2721  1.2228 -2.4497
 8231TIP3    H246185   4.434   1.687  11.941  0.7703 -4.3829  0.1599
 8232TIP3   OH246186   3.443   3.926   3.197 -0.0561 -0.1838  0.2016
 8232TIP3    H146187   3.383   3.960   3.264  1.4271 -0.1254  1.5420
 8232TIP3    H246188   3.529   3.960   3.222  0.7401 -1.2304 -1.0016
 8233TIP3   OH246189   0.314   5.275  12.820  0.8785  0.4565  0.4896
 8233TIP3    H146190   0.378   5.323  12.872 -0.0323  0.8682  1.2424
 8233TIP3    H246191   0.265   5.223  12.884  0.8670 -0.3531 -0.1512
 8234TIP3   OH246192   5.798   0.881  14.810 -0.2717  0.2015  0.1545
 8234TIP3    H146193   5.755   0.921  14.735 -0.5825 -1.0354 -0.3518
 8234TIP3    H246194   5.729   0.828  14.851  0.6444 -1.5875 -0.4986
 8235TIP3   OH246195   4.157   4.825  13.404  0.1105 -0.6299  0.2227
 8235TIP3    H146196   4.231   4.782  13.361 -0.7839  0.4546 -2.6928
 8235TIP3    H246197   4.086   4.819  13.340 -1.1561  1.7339  1.2739
 8236TIP3   OH246198   5.894   6.526   4.329 -0.1955 -0.4016 -0.1992
 8236TIP3    H146199   5.919   6.483   4.247 -0.4238 -0.6109 -0.1576
 8236TIP3    H246200   5.809   6.490   4.351  0.5579 -1.5338  0.9685
 8237TIP3   OH246201   0.205   0.193  12.951  0.3933  0.5829 -0.0679
 8237TIP3    H146202   0.272   0.204  13.019  0.3564  1.2560 -0.1322
 8237TIP3    H246203   0.211   0.100  12.926  1.3611  0.6512 -0.1340
 8238TIP3   OH246204   5.255   6.500  12.397  0.1718  0.1276 -0.0925
 8238TIP3    H146205   5.198   6.509  12.321  1.0831 -0.3838 -0.8530
 8238TIP3    H246206   5.279   6.590  12.420 -2.0952  0.4918  1.1792
 8239TIP3   OH246207   4.932   1.103   4.357  0.5048 -0.3867  0.7846
 8239TIP3    H146208   4.956   1.098   4.264  1.8477 -0.5809  1.1267
 8239TIP3    H246209   4.872   1.177   4.361 -0.5955 -1.1664 -0.4337
 8240TIP3   OH246210   2.846   4.922  15.006 -0.4803  0.1392  0.0686
 8240TIP3    H146211   2.936   4.940  15.033 -0.4612 -0.3098  0.3055
 8240TIP3    H246212   2.792   4.964  15.073 -0.5046  2.1151 -1.0823
 8241TIP3   OH246213   5.256   5.737   5.464 -0.5768 -0.9588  0.2672
 8241TIP3    H146214   5.310   5.660   5.477 -0.0744 -0.3507  2.0541
 8241TIP3    H246215   5.315   5.811   5.477 -1.1888 -0.2494 -0.7749
 8242TIP3   OH246216   2.830   3.242  16.597 -0.3466  0.1368  0.4554
 8242TIP3    H146217   2.813   3.234  16.691  0.0811  2.0591  0.7399
 8242TIP3    H246218   2.757   3.197  16.555 -0.6257 -0.6236  1.7016
 8243TIP3   OH246219   0.692   4.425  11.872 -0.5241  0.2120 -0.3901
 8243TIP3    H146220   0.661   4.352  11.819  1.1978  0.2303 -1.4969
 8243TIP3    H246221   0.631   4.429  11.946 -1.6508 -1.2414 -1.1988
 8244TIP3   OH246222   4.890   2.920   4.742  0.4165  0.3249 -0.2685
 8244TIP3    H146223   4.961   2.896   4.682  0.3913  0.8906 -0.5396
 8244TIP3    H246224   4.815   2.868   4.712  0.6718 -0.1533 -0.0830
 8245TIP3   OH246225   1.077   3.018  13.726  0.2011 -0.2628 -0.0238
 8245TIP3    H146226   1.055   3.097  13.676  2.1582 -0.5605 -1.4413
 8245TIP3    H246227   1.054   2.946  13.668 -1.2458 -0.7870  1.1311
 8246TIP3   OH246228   1.578   4.031   6.540 -0.8518 -0.0073 -0.7079
 8246TIP3    H146229   1.519   4.100   6.570 -0.6356  0.7831 -2.0061
 8246TIP3    H246230   1.527   3.981   6.476 -0.4596  0.0671 -1.0907
 8247TIP3   OH246231   4.980   0.066  15.842  0.1369 -0.2704 -0.3079
 8247TIP3    H146232   5.007  -0.016  15.800  1.4092 -0.2425  0.4021
 8247TIP3    H246233   4.973   0.044  15.935 -0.3369  0.2348 -0.2206
 8248TIP3   OH246234   0.871   4.754  10.988  0.1655 -0.1683 -0.4060
 8248TIP3    H146235   0.955   4.769  10.945  1.3853 -1.1151  1.5182
 8248TIP3    H246236   0.893   4.730  11.078 -2.2202  1.1512  0.6560
 8249TIP3   OH246237   5.293   3.616  15.461  0.5704  0.3594  0.1521
 8249TIP3    H146238   5.319   3.655  15.378 -0.1498 -0.4716 -0.4758
 8249TIP3    H246239   5.271   3.691  15.517 -1.0347  0.8784 -1.1147
 8250TIP3   OH246240   1.649   3.941  16.562  0.0309  0.1294  0.1639
 8250TIP3    H146241   1.703   4.008  16.521 -0.5843 -0.8025 -2.4243
 8250TIP3    H246242   1.590   3.989  16.619  0.0269  1.7640 -1.1368
 8251TIP3   OH246243   5.794   3.008   4.832  0.0259 -0.6014  0.7510
 8251TIP3    H146244   5.789   3.060   4.912  0.1918 -0.8576  0.9255
 8251TIP3    H246245   5.769   2.920   4.858 -2.5041 -0.1768  0.0226
 8252TIP3   OH246246   4.041   6.819   3.159  0.3427 -0.1659 -0.5981
 8252TIP3    H146247   4.135   6.808   3.173  0.6755 -0.2644 -2.7167
 8252TIP3    H246248   4.001   6.761   3.225  1.7800 -1.1163 -0.5134
 8253TIP3   OH246249   3.177   5.627   0.727  0.0915  0.0858  0.2306
 8253TIP3    H146250   3.215   5.572   0.795  0.4218  0.2539  0.1859
 8253TIP3    H246251   3.185   5.716   0.761 -0.9610  0.0632  0.5519
 8254TIP3   OH246252   5.625   2.554  15.692 -0.3876  0.4921 -0.1386
 8254TIP3    H146253   5.627   2.531  15.785  1.1217 -0.5688 -0.3903
 8254TIP3    H246254   5.716   2.544  15.663 -0.3977  2.8332 -1.2807
 8255TIP3   OH246255   1.201   2.090  12.902 -0.2217 -0.4895 -0.1722
 8255TIP3    H146256   1.123   2.139  12.929  0.0580 -0.3019  0.3096
 8255TIP3    H246257   1.256   2.154  12.857  0.2398 -0.2977  0.6453
 8256TIP3   OH246258   4.386   2.937  13.317  0.1188 -1.5012  0.2599
 8256TIP3    H146259   4.471   2.973  13.344 -0.3838 -0.8497  1.0122
 8256TIP3    H246260   4.325   3.010  13.324 -0.7255 -2.2351  0.7860
 8257TIP3   OH246261   5.776   0.476   1.427 -1.0705  0.1208 -0.2704
 8257TIP3    H146262   5.850   0.419   1.406  0.0688  1.6405 -0.6140
 8257TIP3    H246263   5.768   0.472   1.522 -1.7733 -1.4836 -0.3770
 8258TIP3   OH246264   1.384   5.463  16.626 -0.3983  0.6103  0.1537
 8258TIP3    H146265   1.320   5.452  16.696 -1.0143 -1.5389 -0.6911
 8258TIP3    H246266   1.340   5.520  16.563 -1.1340 -0.1062  0.0073
 8259TIP3   OH246267   4.291   2.047   3.331  0.7597  0.1192 -0.0626
 8259TIP3    H146268   4.326   2.134   3.347  1.6667 -0.1195 -0.6732
 8259TIP3    H246269   4.198   2.060   3.316  0.8961  0.9769 -0.1698
 8260TIP3   OH246270   6.029   6.466  15.792  0.2990  0.3246  0.2690
 8260TIP3    H146271   6.024   6.450  15.886 -1.4656 -3.0765 -0.2556
 8260TIP3    H246272   6.099   6.408  15.761  0.7125  1.2374 -0.5980
 8261TIP3   OH246273   5.406   3.410  13.363 -0.3806 -0.1407  0.1723
 8261TIP3    H146274   5.355   3.454  13.431  1.9845 -0.3485  2.2473
 8261TIP3    H246275   5.364   3.435  13.281 -2.7103  1.0448  1.6229
 8262TIP3   OH246276   2.324   4.403   2.800 -0.2230  0.3708 -0.0629
 8262TIP3    H146277   2.397   4.440   2.750 -0.3804 -0.9874 -1.3471
 8262TIP3    H246278   2.324   4.310   2.778 -1.6475  0.1350  0.8123
 8263TIP3   OH246279   3.282   1.078  14.519 -0.2678  0.5038 -0.3846
 8263TIP3    H146280   3.248   1.095  14.432  1.0938 -0.6699 -1.1859
 8263TIP3    H246281   3.204   1.067  14.574 -1.1547  2.2946 -1.1797
 8264TIP3   OH246282   2.095   1.228   0.589  0.1031 -0.0550 -0.4283
 8264TIP3    H146283   2.117   1.281   0.666  1.5107  0.5049 -1.1910
 8264TIP3    H246284   2.009   1.191   0.610  0.0543  0.7971  1.0302
 8265TIP3   OH246285   1.849   2.978   3.402 -0.0944 -0.2971  0.0571
 8265TIP3    H146286   1.908   3.053   3.406  0.5641 -0.7102 -1.3709
 8265TIP3    H246287   1.762   3.015   3.412  0.3343  0.4272  1.2534
 8266TIP3   OH246288   1.162   5.572   5.811 -0.1662 -0.6239  0.3128
 8266TIP3    H146289   1.241   5.577   5.865 -0.5160 -0.3659  0.8158
 8266TIP3    H246290   1.090   5.578   5.874 -0.5912  0.6069 -0.2574
 8267TIP3   OH246291   3.638   6.478   2.556  0.3106 -0.7866  0.2230
 8267TIP3    H146292   3.707   6.539   2.584 -1.2407  0.7135  0.9528
 8267TIP3    H246293   3.591   6.524   2.487  1.3712 -2.7191 -1.9234
 8268TIP3   OH246294   0.938   2.643  16.843  0.7585  0.0277 -0.4804
 8268TIP3    H146295   0.977   2.692  16.915 -0.1524 -1.4614  1.0925
 8268TIP3    H246296   0.960   2.552  16.860 -2.2173 -0.7578 -0.1938
 8269TIP3   OH246297   4.144   6.597  12.165 -0.4150  0.3189 -0.4344
 8269TIP3    H146298   4.223   6.596  12.110  1.0540 -0.9576  1.5687
 8269TIP3    H246299   4.141   6.685  12.201  0.4234  0.2317 -0.1254
 8270TIP3   OH246300   0.476   5.201  13.747  0.5666  0.3956  0.4729
 8270TIP3    H146301   0.428   5.160  13.675  1.6680 -0.6951  0.3305
 8270TIP3    H246302   0.438   5.289  13.754  0.8850  0.8076 -1.9184
 8271TIP3   OH246303   6.112   5.070   0.763 -0.2413  0.2634  0.1806
 8271TIP3    H146304   6.195   5.029   0.737 -0.2291  0.9536 -0.9625
 8271TIP3    H246305   6.129   5.164   0.757 -0.8980  0.4142  0.6272
 8272TIP3   OH246306   0.318   5.309  14.572 -0.2032  0.2284 -0.2045
 8272TIP3    H146307   0.379   5.256  14.623  1.1430  2.6752  0.8992
 8272TIP3    H246308   0.257   5.344  14.638 -0.5675  0.6901 -0.7828
 8273TIP3   OH246309   6.794   3.773  10.757  0.3546 -0.4328  0.3909
 8273TIP3    H146310   6.824   3.682  10.768  1.0083 -0.1471  1.0483
 8273TIP3    H246311   6.806   3.812  10.843 -0.1327  0.2246  0.1627
 8274TIP3   OH246312   6.187   4.538  14.554  0.0646  0.0097  0.1456
 8274TIP3    H146313   6.134   4.459  14.570 -0.6367  0.4413  0.0138
 8274TIP3    H246314   6.244   4.544  14.630 -1.1509  0.3785  1.0551
 8275TIP3   OH246315   0.219   3.610   2.454  0.3109 -0.5481  0.3935
 8275TIP3    H146316   0.164   3.543   2.493 -1.7330  0.2385 -0.9340
 8275TIP3    H246317   0.241   3.669   2.526 -1.3550 -0.4116  0.8249
 8276TIP3   OH246318   2.028   3.486  11.891 -0.6948 -1.0389  0.1282
 8276TIP3    H146319   2.037   3.518  11.981  0.6386 -1.1118  0.0479
 8276TIP3    H246320   2.088   3.541  11.841 -2.3749 -0.1232 -0.9778
 8277TIP3   OH246321   3.023   5.262   5.717  0.0996  0.3207 -0.1162
 8277TIP3    H146322   3.006   5.187   5.774 -0.2564  1.9207  2.0114
 8277TIP3    H246323   3.117   5.257   5.699 -0.1727 -1.3922 -1.1983
 8278TIP3   OH246324   0.279   1.588  15.645 -0.4302 -0.7474  0.1177
 8278TIP3    H146325   0.252   1.660  15.703 -0.0597  0.4610 -1.1580
 8278TIP3    H246326   0.373   1.599  15.636 -0.5971 -0.3967 -1.3694
 8279TIP3   OH246327   1.786   0.939  13.840 -0.0223  0.7393 -0.2609
 8279TIP3    H146328   1.734   0.998  13.786 -0.0900  1.4958  0.6175
 8279TIP3    H246329   1.874   0.945  13.803 -0.4629 -0.3333 -1.5757
 8280TIP3   OH246330   4.953   4.074   1.471 -0.1306 -0.6087  0.1453
 8280TIP3    H146331   5.036   4.084   1.423  0.1588  0.1526  0.7688
 8280TIP3    H246332   4.963   4.133   1.547  0.5756 -3.7190  2.6867
 8281TIP3   OH246333   1.073   4.901   2.137  0.1716  0.0799  0.2704
 8281TIP3    H146334   1.149   4.846   2.154  1.4183  1.4351 -0.7380
 8281TIP3    H246335   1.024   4.900   2.219  1.1106 -1.0318  0.8466
 8282TIP3   OH246336   2.965   3.002  10.631  0.2729  0.5366  0.3065
 8282TIP3    H146337   2.875   2.971  10.634  0.4041  0.0955 -0.3201
 8282TIP3    H246338   2.973   3.045  10.546  0.2237  1.9107  0.9650
 8283TIP3   OH246339   6.721   0.699   0.868  0.0999  0.1239  0.1676
 8283TIP3    H146340   6.706   0.697   0.773  2.4833 -1.1375 -0.2526
 8283TIP3    H246341   6.787   0.766   0.881 -0.7821  0.8464  1.0765
 8284TIP3   OH246342   5.380   0.746  16.811 -0.0886 -0.4453  0.2141
 8284TIP3    H146343   5.381   0.784  16.723 -0.2875 -0.7842  0.0628
 8284TIP3    H246344   5.418   0.659  16.801  0.9290 -0.0650  0.6728
 8285TIP3   OH246345   0.860   3.745   2.904  0.2115  0.2387  0.3390
 8285TIP3    H146346   0.888   3.755   2.813  0.5779  1.1425  0.5432
 8285TIP3    H246347   0.838   3.652   2.912 -0.7058  0.3164 -0.9133
 8286TIP3   OH246348   2.187   6.327   3.190 -0.0878  0.3686 -0.3352
 8286TIP3    H146349   2.205   6.376   3.270 -0.5409 -0.0250  0.0163
 8286TIP3    H246350   2.101   6.357   3.161 -0.5376 -0.4582  0.0867
 8287TIP3   OH246351   1.699   4.759   5.079 -0.8130 -0.1653  0.0938
 8287TIP3    H146352   1.738   4.715   5.155 -0.7765 -0.5201 -0.1290
 8287TIP3    H246353   1.770   4.809   5.040 -0.6901 -0.4382 -0.0377
 8288TIP3   OH246354   5.021   0.077   0.786 -0.2944 -0.1181  0.4788
 8288TIP3    H146355   5.045   0.009   0.848 -1.2901 -1.8961 -0.9700
 8288TIP3    H246356   4.927   0.062   0.770 -0.2245  0.7415 -0.8744
 8289TIP3   OH246357   2.897   4.722  13.682 -0.5287  0.0304  0.7145
 8289TIP3    H146358   2.825   4.735  13.620 -0.2712 -0.5058  0.2908
 8289TIP3    H246359   2.890   4.629  13.707  0.6935 -0.3192 -0.1956
 8290TIP3   OH246360   5.164   2.647   3.402 -0.3783  0.4948 -0.7072
 8290TIP3    H146361   5.151   2.671   3.310 -2.5685  0.7732 -0.3949
 8290TIP3    H246362   5.097   2.697   3.449 -0.5643 -1.0950  0.8023
 8291TIP3   OH246363   1.139   4.118   4.145 -0.0961  0.2336  0.2806
 8291TIP3    H146364   1.141   4.052   4.076 -0.5460 -0.3683  0.8407
 8291TIP3    H246365   1.110   4.198   4.101 -0.8522 -0.2622 -0.1270
 8292TIP3   OH246366   1.630   1.262  11.271  0.0431 -1.0883 -0.1764
 8292TIP3    H146367   1.623   1.285  11.364  0.5918  0.4755 -0.4899
 8292TIP3    H246368   1.705   1.311  11.240 -1.5291  0.3235 -1.9735
 8293TIP3   OH246369   5.113   0.483  12.823  0.1965  0.2079 -0.2756
 8293TIP3    H146370   5.148   0.487  12.913  1.6454 -3.2304 -0.5545
 8293TIP3    H246371   5.056   0.560  12.817 -0.9719 -0.0531  4.0006
 8294TIP3   OH246372   5.643   6.723  15.208 -0.4991 -0.3742 -0.3439
 8294TIP3    H146373   5.648   6.655  15.274  1.8247  0.3079  0.2627
 8294TIP3    H246374   5.716   6.705  15.149 -2.1633 -0.6164 -2.4497
 8295TIP3   OH246375   6.761   2.666   4.536 -0.4900 -0.3249  0.1775
 8295TIP3    H146376   6.745   2.590   4.481 -3.2203 -0.2878  0.8199
 8295TIP3    H246377   6.770   2.631   4.624  0.2119 -0.0480  0.2255
 8296TIP3   OH246378   3.144   2.934  16.223 -0.7501 -0.0473  0.0877
 8296TIP3    H146379   3.147   2.844  16.189  3.4426  0.2396 -0.8072
 8296TIP3    H246380   3.080   2.978  16.167 -0.3508 -1.6846 -1.7940
 8297TIP3   OH246381   3.903   0.248  13.902  0.1908 -0.0129 -0.6346
 8297TIP3    H146382   3.974   0.283  13.849  0.0510 -0.1747 -0.9280
 8297TIP3    H246383   3.881   0.164  13.862  0.7273 -0.5908  0.2389
 8298TIP3   OH246384   5.067   3.905  11.345  0.2152  0.3388 -0.2023
 8298TIP3    H146385   5.074   3.916  11.250 -1.1749 -0.8889 -0.4879
 8298TIP3    H246386   5.023   3.985  11.375 -0.6092  0.1282 -0.8112
 8299TIP3   OH246387   5.268   4.767  11.259 -0.0458 -0.0877  0.2739
 8299TIP3    H146388   5.180   4.794  11.235 -1.1618  0.3744  4.2378
 8299TIP3    H246389   5.268   4.672  11.249 -1.3279 -0.1852  1.0107
 8300TIP3   OH246390   0.134   4.163   4.646  0.2657  0.6142  0.2533
 8300TIP3    H146391   0.157   4.164   4.739 -1.2813  0.7311  0.6610
 8300TIP3    H246392   0.061   4.224   4.639  0.1779  0.3892 -0.9969
 8301TIP3   OH246393   3.136   5.542  14.070 -0.0627 -0.2527 -0.4818
 8301TIP3    H146394   3.170   5.603  14.004 -0.1173 -0.6066 -0.8365
 8301TIP3    H246395   3.065   5.591  14.112 -0.5600 -0.3131 -1.2290
 8302TIP3   OH246396   5.139   3.082   2.533  0.4942 -0.1190  0.1851
 8302TIP3    H146397   5.103   3.122   2.612 -1.9364  0.6669 -1.1851
 8302TIP3    H246398   5.136   2.988   2.549 -1.2863 -0.0270  0.5704
 8303TIP3   OH246399   0.850   6.647   5.228 -0.9048 -0.7428  1.1960
 8303TIP3    H146400   0.897   6.568   5.201 -0.3453 -0.5876  1.7063
 8303TIP3    H246401   0.913   6.696   5.281 -0.1986  1.4711 -1.4563
 8304TIP3   OH246402   0.868   1.774   4.736  0.4187 -0.6379 -0.7038
 8304TIP3    H146403   0.897   1.853   4.782  1.2416  0.0759 -2.3485
 8304TIP3    H246404   0.772   1.779   4.738  0.4227 -0.8263  1.1828
 8305TIP3   OH246405   2.999   2.450  15.189 -0.1703  0.3954 -0.0646
 8305TIP3    H146406   3.058   2.523  15.173 -1.1086  1.2819  0.4015
 8305TIP3    H246407   2.945   2.444  15.109  0.0445  0.0646 -0.1894
 8306TIP3   OH246408   1.841   4.740  13.059 -0.1518  0.4561  0.1779
 8306TIP3    H146409   1.864   4.804  13.127 -0.1255 -1.4622  2.1047
 8306TIP3    H246410   1.890   4.661  13.083 -0.8172 -0.5469 -1.6052
 8307TIP3   OH246411   5.628   2.398   3.682 -0.6638  0.0362  0.4472
 8307TIP3    H146412   5.640   2.305   3.660 -1.0364  0.1474 -0.2828
 8307TIP3    H246413   5.622   2.400   3.777  2.0866 -0.3459  0.6903
 8308TIP3   OH246414   0.596   1.225  16.983 -0.2945 -0.9442  0.2566
 8308TIP3    H146415   0.604   1.232  16.888 -1.3690  1.6498  0.2694
 8308TIP3    H246416   0.673   1.272  17.016 -0.4634 -0.9577  0.6663
 8309TIP3   OH246417   6.529   5.232  15.875  0.1625 -0.2312 -0.0240
 8309TIP3    H146418   6.550   5.227  15.782 -0.7616 -0.6788 -0.2129
 8309TIP3    H246419   6.454   5.174  15.887 -1.3535  1.7338  0.5171
 8310TIP3   OH246420   1.376   3.713  15.815 -0.5523 -0.3191  0.1034
 8310TIP3    H146421   1.312   3.699  15.884  0.2529 -3.7795  0.3508
 8310TIP3    H246422   1.459   3.682  15.852  0.7102  1.2610 -1.1905
 8311TIP3   OH246423   6.252   2.200   0.862  0.3466 -0.0304 -0.0899
 8311TIP3    H146424   6.289   2.153   0.936 -2.0837  0.1624  1.3351
 8311TIP3    H246425   6.313   2.183   0.790  2.6909 -0.3709  1.8558
 8312TIP3   OH246426   2.358   2.364  12.981  0.2750 -0.6282 -0.4142
 8312TIP3    H146427   2.400   2.366  13.067  1.0873 -0.7992 -0.7924
 8312TIP3    H246428   2.431   2.357  12.919 -0.0203  2.9455 -1.3652
 8313TIP3   OH246429   2.004   3.319  11.416  0.2307  0.1941 -0.0214
 8313TIP3    H146430   1.913   3.288  11.417  0.3652 -0.1998  0.7149
 8313TIP3    H246431   2.009   3.377  11.340 -0.8640  0.8923  0.4237
 8314TIP3   OH246432   1.800   5.249   2.284 -0.3441 -0.5139  0.2769
 8314TIP3    H146433   1.859   5.323   2.277  1.5668 -1.9955 -0.3514
 8314TIP3    H246434   1.799   5.227   2.377  0.8403 -0.9869  0.2014
 8315TIP3   OH246435   0.457   2.996   6.105 -0.2388 -0.3503 -0.0690
 8315TIP3    H146436   0.376   3.045   6.087 -1.6107 -2.1451  0.8130
 8315TIP3    H246437   0.426   2.913   6.141  2.0604 -0.3062  2.2840
 8316TIP3   OH246438   0.542   4.881  17.252 -0.4536  0.5433 -0.4892
 8316TIP3    H146439   0.617   4.862  17.196 -1.3050 -2.3029 -0.8568
 8316TIP3    H246440   0.467   4.878  17.192 -1.3096 -1.8411  0.5583
 8317TIP3   OH246441   6.543   5.728   4.121 -0.1953 -0.4563  0.5205
 8317TIP3    H146442   6.612   5.782   4.159  0.2130  0.1372 -0.9975
 8317TIP3    H246443   6.560   5.730   4.027 -2.5932  0.1683  0.0393
 8318TIP3   OH246444   1.966   0.304   4.893 -0.8378 -0.0926  0.1388
 8318TIP3    H146445   1.950   0.210   4.896  0.1257 -0.2574  0.4246
 8318TIP3    H246446   1.958   0.326   4.800 -2.0502 -0.2551  0.1782
 8319TIP3   OH246447   4.565   0.756   4.454 -0.3037  0.2202 -0.4789
 8319TIP3    H146448   4.641   0.768   4.397  1.0536  1.5106  1.4856
 8319TIP3    H246449   4.533   0.668   4.434  2.3566 -0.7904 -0.6471
 8320TIP3   OH246450   6.498   6.385   1.002  0.3102 -0.0678 -0.0685
 8320TIP3    H146451   6.454   6.439   1.067  1.2261  0.2708  0.2919
 8320TIP3    H246452   6.573   6.347   1.048  0.3353 -0.7300 -0.6274
 8321TIP3   OH246453   5.160   6.616  12.029  0.0812  0.2205 -0.3662
 8321TIP3    H146454   5.249   6.620  12.063 -0.4755  2.0332  1.0389
 8321TIP3    H246455   5.170   6.616  11.934  1.5651  0.1504 -0.2316
 8322TIP3   OH246456   1.297   2.573   2.123  0.1201  0.1543 -0.2900
 8322TIP3    H146457   1.365   2.506   2.117 -0.2630 -0.2209 -0.5182
 8322TIP3    H246458   1.223   2.529   2.166 -1.4025 -0.6470 -3.4364
 8323TIP3   OH246459   5.259   6.098   1.328  0.3576  0.3793 -0.4255
 8323TIP3    H146460   5.205   6.023   1.301 -2.5440  2.3739 -0.6634
 8323TIP3    H246461   5.256   6.158   1.254  2.8975  0.6998 -0.3681
 8324TIP3   OH246462   0.693   3.371  12.830  0.3738  0.0440  0.0645
 8324TIP3    H146463   0.723   3.330  12.911  0.3732  0.7703  0.4503
 8324TIP3    H246464   0.608   3.410  12.854 -0.0638 -0.5147 -0.5395
 8325TIP3   OH246465   5.684   4.886   1.170 -0.6300  0.3884  0.1102
 8325TIP3    H146466   5.702   4.980   1.163  1.5810  0.0501  0.6169
 8325TIP3    H246467   5.682   4.856   1.079 -2.1329  1.0244 -0.0942
 8326TIP3   OH246468   0.907   1.992  14.117 -0.2552  0.5037  0.1320
 8326TIP3    H146469   0.898   2.035  14.033 -0.8881 -0.0519 -0.1028
 8326TIP3    H246470   0.996   2.011  14.146 -0.7704  2.6226  0.4246
 8327TIP3   OH246471   1.020   3.213   5.411 -0.8999 -0.3414  0.0364
 8327TIP3    H146472   1.026   3.275   5.338 -0.3333 -0.5845 -0.1280
 8327TIP3    H246473   0.926   3.208   5.430 -0.9526  0.6494  0.1227
 8328TIP3   OH246474   3.365   2.898  11.656 -0.2984  0.3234 -0.1324
 8328TIP3    H146475   3.378   2.987  11.688 -0.3135  0.3893 -0.3102
 8328TIP3    H246476   3.419   2.892  11.578  0.3743 -0.0965  0.3524
 8329TIP3   OH246477   6.071   0.132  16.393 -0.4050  0.4502  0.1806
 8329TIP3    H146478   5.990   0.183  16.380  0.6193  2.0134 -0.3137
 8329TIP3    H246479   6.052   0.078  16.470 -1.9139  0.7998  0.0950
 8330TIP3   OH246480   4.743   2.267   6.354  0.3644 -0.0443 -0.4107
 8330TIP3    H146481   4.714   2.222   6.433  0.6713 -1.2631 -0.9647
 8330TIP3    H246482   4.838   2.255   6.353  0.1706 -1.9540 -2.0473
 8331TIP3   OH246483   2.397   6.512  13.796 -0.0549  0.2737 -0.0957
 8331TIP3    H146484   2.492   6.499  13.803  0.0174  1.1542  0.8758
 8331TIP3    H246485   2.363   6.426  13.772  0.9309 -0.2035  0.1501
 8332TIP3   OH246486   2.179   2.887   5.602  0.2010  0.2242 -0.2287
 8332TIP3    H146487   2.199   2.875   5.695  2.0995 -0.2293 -0.6592
 8332TIP3    H246488   2.202   2.978   5.583 -0.5544  0.4316 -0.1836
 8333TIP3   OH246489   0.977   0.773  14.091  0.1174  0.9567  0.4186
 8333TIP3    H146490   1.068   0.787  14.066  0.2514  0.0096  0.3319
 8333TIP3    H246491   0.980   0.707  14.160 -0.6338 -1.3614 -1.5960
 8334TIP3   OH246492   6.485   6.604  17.191 -0.2890  0.0587 -0.4463
 8334TIP3    H146493   6.511   6.664  17.121  0.1999  0.6691  0.2274
 8334TIP3    H246494   6.515   6.518  17.162 -1.1664  0.0966 -1.5184
 8335TIP3   OH246495   1.130   3.673   2.385  0.4092 -0.0377 -0.0333
 8335TIP3    H146496   1.193   3.744   2.399  0.9794 -0.8629  1.8849
 8335TIP3    H246497   1.184   3.595   2.370 -0.1690 -0.4563  0.0191
 8336TIP3   OH246498   2.718   4.183   5.186  0.1618 -0.2777 -0.1285
 8336TIP3    H146499   2.702   4.167   5.279 -0.8284 -0.0492 -0.2518
 8336TIP3    H246500   2.705   4.278   5.175  0.0374 -0.3404 -0.5407
 8337TIP3   OH246501   0.283   3.267  15.301 -0.3784  0.5283 -0.5438
 8337TIP3    H146502   0.300   3.175  15.323  0.0838  0.9786  1.1335
 8337TIP3    H246503   0.256   3.265  15.209 -0.9372 -1.3478 -0.3842
 8338TIP3   OH246504   4.971   1.530   2.097  0.8018 -0.6356  0.0522
 8338TIP3    H146505   4.916   1.454   2.081 -0.4090  0.2081  0.0415
 8338TIP3    H246506   4.938   1.597   2.037  3.2045 -0.6983 -1.4670
 8339TIP3   OH246507   4.247   3.357  16.317 -0.1116  0.1280 -0.1585
 8339TIP3    H146508   4.308   3.430  16.319  0.8983 -0.6562 -1.3142
 8339TIP3    H246509   4.301   3.279  16.324 -1.0848 -0.5539  0.0476
 8340TIP3   OH246510   2.885   4.298  12.153  0.2797 -0.4482 -0.1549
 8340TIP3    H146511   2.968   4.273  12.194  0.1807  0.2633  0.4808
 8340TIP3    H246512   2.824   4.230  12.181  0.2679 -0.0916  0.6839
 8341TIP3   OH246513   2.586   4.673   5.597 -0.2613  0.1965 -0.4698
 8341TIP3    H146514   2.502   4.680   5.642 -0.5169  0.7972 -1.0295
 8341TIP3    H246515   2.567   4.697   5.506  0.8879  2.4225 -0.1870
 8342TIP3   OH246516   4.665   0.463  12.277 -0.0674  0.4125 -0.2359
 8342TIP3    H146517   4.707   0.386  12.240  2.1554  0.1697  2.4650
 8342TIP3    H246518   4.658   0.525  12.204 -3.5414 -2.7402 -2.9687
 8343TIP3   OH246519   4.447   2.240   0.044 -0.3467 -0.1053 -0.1301
 8343TIP3    H146520   4.454   2.300   0.118 -0.9402 -0.7549  0.4704
 8343TIP3    H246521   4.531   2.248  -0.002 -0.1584  0.6534  0.3411
 8344TIP3   OH246522   0.525   6.517   2.221 -0.4133 -0.1062 -0.0032
 8344TIP3    H146523   0.556   6.555   2.138 -2.3717  2.9220  0.5010
 8344TIP3    H246524   0.472   6.442   2.195  0.1751 -0.0828 -1.3653
 8345TIP3   OH246525   4.708   1.673   2.523  0.5076  0.1869 -0.6733
 8345TIP3    H146526   4.775   1.653   2.589  0.4217 -0.8363 -0.8728
 8345TIP3    H246527   4.756   1.680   2.441  0.2839 -1.7336 -1.0242
 8346TIP3   OH246528   6.416   6.472   4.095 -0.3131 -0.3234  0.2831
 8346TIP3    H146529   6.497   6.430   4.123  0.1861  0.4173 -0.0430
 8346TIP3    H246530   6.444   6.551   4.050 -1.1822 -0.4560 -0.5227
 8347TIP3   OH246531   4.834   0.125   1.624  0.1306 -0.4882 -0.1897
 8347TIP3    H146532   4.828   0.060   1.554 -0.2998  0.0916 -0.6963
 8347TIP3    H246533   4.816   0.209   1.582 -0.2654 -0.1422  0.6280
 8348TIP3   OH246534   4.158   4.195   5.609 -1.0282 -0.7006 -0.3745
 8348TIP3    H146535   4.214   4.124   5.640  0.5510  0.8749  0.5682
 8348TIP3    H246536   4.141   4.249   5.686 -0.4403  1.0704 -1.4206
 8349TIP3   OH246537   5.252   1.818  13.861  0.1197  0.2153  0.2430
 8349TIP3    H146538   5.209   1.903  13.868  0.2758  0.3383 -0.2558
 8349TIP3    H246539   5.276   1.796  13.951 -2.6739 -0.7653  0.8511
 8350TIP3   OH246540   0.401   3.764   2.132 -0.7628  0.1642 -0.0650
 8350TIP3    H146541   0.387   3.717   2.214 -0.8377  2.2497  1.1980
 8350TIP3    H246542   0.494   3.755   2.115 -0.7777 -0.4328  0.1502
 8351TIP3   OH246543   0.776   4.336  15.255 -0.2945 -0.0922 -0.2042
 8351TIP3    H146544   0.778   4.362  15.163  0.6691  2.2397  0.4110
 8351TIP3    H246545   0.689   4.364  15.286 -0.1881  0.1535 -0.1289
 8352TIP3   OH246546   3.643   4.882  14.068  0.3229  0.8794  0.3714
 8352TIP3    H146547   3.624   4.952  14.131  0.1522 -0.4042  1.8035
 8352TIP3    H246548   3.640   4.925  13.983 -0.1009  2.5464  1.1864
 8353TIP3   OH246549   3.062   3.939   5.682  0.0570  0.4313  0.2236
 8353TIP3    H146550   2.989   3.989   5.648 -0.0034 -0.0107 -0.3174
 8353TIP3    H246551   3.139   3.975   5.637  0.4192  1.9351  1.8946
 8354TIP3   OH246552   0.921   3.230  14.670  0.3082 -0.1930  0.1769
 8354TIP3    H146553   1.007   3.269  14.654  0.0540  0.7923  1.1300
 8354TIP3    H246554   0.938   3.160  14.733  0.2160  1.1003  1.7041
 8355TIP3   OH246555   6.718   4.119  17.254 -0.3846 -0.1130 -0.2657
 8355TIP3    H146556   6.812   4.109  17.267 -0.5759 -0.2693  1.1493
 8355TIP3    H246557   6.704   4.097  17.162  1.0949  0.9373 -0.7740
 8356TIP3   OH246558   4.545   3.956   1.522 -0.6237 -0.1482 -0.1051
 8356TIP3    H146559   4.522   3.986   1.609 -1.2643 -1.2060  0.1120
 8356TIP3    H246560   4.558   3.862   1.531  1.7842  0.0590 -0.6583
 8357TIP3   OH246561   1.450   6.257   4.518  0.0553  0.1752  0.2382
 8357TIP3    H146562   1.469   6.254   4.612 -0.5604 -1.6618  0.3540
 8357TIP3    H246563   1.418   6.169   4.498 -0.9194  0.8758 -1.4696
 8358TIP3   OH246564   6.534   2.123   6.290  0.7543 -0.2287 -0.5758
 8358TIP3    H146565   6.531   2.110   6.195 -0.6055  0.7415 -0.6984
 8358TIP3    H246566   6.444   2.143   6.314  1.0579 -0.6021  0.9575
 8359TIP3   OH246567   3.475   6.151  12.913  0.5818 -0.2964 -0.1959
 8359TIP3    H146568   3.446   6.243  12.913  0.6652 -0.2635  0.6801
 8359TIP3    H246569   3.503   6.135  12.823 -2.4594 -0.4244 -1.2546
 8360TIP3   OH246570   0.285   5.585   6.236  0.5068  0.5104  0.2793
 8360TIP3    H146571   0.307   5.504   6.282  0.2264  0.3722  0.1748
 8360TIP3    H246572   0.362   5.641   6.247  0.8472  0.0922  0.0322
 8361TIP3   OH246573   3.619   2.882  12.911 -0.2509  0.0642  0.2685
 8361TIP3    H146574   3.709   2.877  12.879  0.1562 -0.9882  1.5166
 8361TIP3    H246575   3.602   2.795  12.947 -2.0989 -0.0489 -0.7821
 8362TIP3   OH246576   5.874   0.038   3.244 -0.2805  0.0011 -0.2889
 8362TIP3    H146577   5.898   0.035   3.152  3.4659 -2.4374  0.5517
 8362TIP3    H246578   5.867  -0.054   3.270 -1.8739  0.6363  1.7544
 8363TIP3   OH246579   1.722   6.315  16.104  0.1885 -0.4236  0.2463
 8363TIP3    H146580   1.761   6.279  16.024  2.7145  1.3252  0.5704
 8363TIP3    H246581   1.716   6.241  16.163  1.3676 -1.1331 -0.4824
 8364TIP3   OH246582   5.502   4.719  16.768 -0.5855  0.5921 -0.7068
 8364TIP3    H146583   5.513   4.802  16.814 -0.2723  0.1603  0.0105
 8364TIP3    H246584   5.482   4.655  16.837 -1.8731  0.2569 -1.3463
 8365TIP3   OH246585   6.097   2.175  14.187  0.5220 -0.0021  0.1089
 8365TIP3    H146586   6.063   2.090  14.158  0.2669  0.3400 -0.6182
 8365TIP3    H246587   6.101   2.228  14.107 -0.7967  1.1689  0.7716
 8366TIP3   OH246588   2.160   6.028  12.436  0.2823  0.5329 -0.2473
 8366TIP3    H146589   2.096   6.032  12.366 -0.2215  1.2835  0.2444
 8366TIP3    H246590   2.242   6.059  12.396  0.3805 -0.5011 -0.8930
 8367TIP3   OH246591   3.539   3.743  12.642  0.8092 -0.5776 -0.4190
 8367TIP3    H146592   3.488   3.752  12.561 -0.4585  1.2082  0.5073
 8367TIP3    H246593   3.481   3.695  12.702  0.9773 -0.2347  0.0259
 8368TIP3   OH246594   1.537   2.580   5.401  0.1551  0.3871  0.0103
 8368TIP3    H146595   1.627   2.613   5.407  0.7296 -1.2019  0.6734
 8368TIP3    H246596   1.515   2.552   5.490 -0.4483 -0.6003 -0.4267
 8369TIP3   OH246597   6.243   6.501  14.308 -0.3363 -0.0869  0.6088
 8369TIP3    H146598   6.311   6.474  14.246 -1.1315 -0.6840 -0.0301
 8369TIP3    H246599   6.184   6.425  14.313 -0.9245  0.3972  1.1995
 8370TIP3   OH246600   1.510   3.387  11.690 -0.0379 -0.5714 -0.2066
 8370TIP3    H146601   1.525   3.392  11.596  1.4232  2.4719  0.0506
 8370TIP3    H246602   1.415   3.376  11.699 -0.1263 -1.4846 -2.0084
 8371TIP3   OH246603   2.850   0.842  12.813 -0.3251 -0.3804 -0.1792
 8371TIP3    H146604   2.843   0.778  12.884  0.7775 -0.6090 -0.2547
 8371TIP3    H246605   2.883   0.792  12.739 -0.7885  0.0028 -0.6483
 8372TIP3   OH246606   6.086   6.791   2.766  0.2324 -0.2515 -0.6664
 8372TIP3    H146607   6.114   6.702   2.746  1.6862  0.2417 -0.9460
 8372TIP3    H246608   6.122   6.844   2.695 -0.4147  0.5990 -0.3824
 8373TIP3   OH246609   1.145   1.257  15.454 -0.1987 -0.1907  0.0611
 8373TIP3    H146610   1.237   1.233  15.442 -0.2792 -0.0963 -0.7512
 8373TIP3    H246611   1.099   1.214  15.382 -0.4689  1.6505 -0.9291
 8374TIP3   OH246612   0.530   6.225   5.418 -0.0165 -0.3444  0.3116
 8374TIP3    H146613   0.568   6.189   5.498  2.1263 -0.4485 -0.6875
 8374TIP3    H246614   0.563   6.169   5.348 -0.3510  0.8325 -0.8286
 8375TIP3   OH246615   5.508   2.185  10.524  0.4914 -0.2325 -0.1120
 8375TIP3    H146616   5.536   2.180  10.433 -0.3052  0.3841 -0.4051
 8375TIP3    H246617   5.534   2.273  10.552  0.8802 -0.4795  0.3055
 8376TIP3   OH246618   5.468   0.303   1.269  0.2999  0.1318 -0.3829
 8376TIP3    H146619   5.464   0.341   1.357  0.0906 -0.8295  0.0389
 8376TIP3    H246620   5.559   0.315   1.242  0.2982  0.6852 -0.1561
 8377TIP3   OH246621   2.195   6.290  12.160 -0.3469  0.0446  0.8136
 8377TIP3    H146622   2.147   6.333  12.230 -3.6542  0.0924 -1.2365
 8377TIP3    H246623   2.167   6.335  12.080  0.1982 -2.4080 -0.8994
 8378TIP3   OH246624   6.693   2.402  11.491 -0.0480 -0.0790  0.0386
 8378TIP3    H146625   6.679   2.472  11.427 -1.7613 -0.6094 -0.2301
 8378TIP3    H246626   6.657   2.324  11.449  1.9844 -1.1807  0.2690
 8379TIP3   OH246627   6.582   3.116  16.831  0.4465 -0.8236  0.4347
 8379TIP3    H146628   6.631   3.108  16.749  1.7917 -1.1730  1.2511
 8379TIP3    H246629   6.576   3.027  16.865  0.3986 -0.6087  1.0044
 8380TIP3   OH246630   3.821   2.873  13.788 -0.4471  0.2693 -0.5426
 8380TIP3    H146631   3.816   2.897  13.696 -0.9001  0.1606 -0.5505
 8380TIP3    H246632   3.763   2.936  13.832  0.3939  0.8312 -0.2260
 8381TIP3   OH246633   1.733   2.793  13.410  0.0181  0.0842 -0.2093
 8381TIP3    H146634   1.662   2.769  13.469 -0.1306  1.7923  0.3792
 8381TIP3    H246635   1.774   2.710  13.386  0.7503 -0.6290  3.1019
 8382TIP3   OH246636   2.273   0.156  16.256  0.4828 -0.3290 -0.3378
 8382TIP3    H146637   2.358   0.173  16.216  0.0355 -1.9387 -2.1231
 8382TIP3    H246638   2.223   0.237  16.242  1.4255  0.3314  0.0075
 8383TIP3   OH246639   4.922   5.686  10.695  0.1405  0.3412  0.5642
 8383TIP3    H146640   4.973   5.749  10.746  1.4746  0.3882 -0.7640
 8383TIP3    H246641   4.954   5.695  10.606 -1.5068 -0.3718 -0.1515
 8384TIP3   OH246642   3.352   1.349   3.944  0.2727 -0.0782 -0.0825
 8384TIP3    H146643   3.306   1.429   3.919  1.3347  0.8811  0.9048
 8384TIP3    H246644   3.365   1.357   4.038  1.1900 -0.9985 -0.1101
 8385TIP3   OH246645   3.642   0.525   3.741 -0.9629 -0.1199 -0.4009
 8385TIP3    H146646   3.599   0.441   3.733 -1.2341  0.1501 -2.0359
 8385TIP3    H246647   3.609   0.561   3.824 -4.9532  0.6569 -2.1092
 8386TIP3   OH246648   3.115   6.350   3.525 -0.3787  0.0366  0.4833
 8386TIP3    H146649   3.119   6.383   3.435  1.5905  1.0957  0.9098
 8386TIP3    H246650   3.124   6.255   3.515  1.1979  0.2356 -0.4115
 8387TIP3   OH246651   5.846   1.612  15.154 -0.2172 -0.5680  0.1534
 8387TIP3    H146652   5.881   1.700  15.136 -1.3373  0.1758  1.4000
 8387TIP3    H246653   5.760   1.612  15.113 -0.0100 -1.2850 -0.2921
 8388TIP3   OH246654   5.023   3.578   5.601  0.5013 -0.6494  0.0072
 8388TIP3    H146655   5.051   3.503   5.549  0.5006 -0.8194  0.2517
 8388TIP3    H246656   5.058   3.561   5.689 -1.0423 -1.2732  0.5416
 8389TIP3   OH246657   6.093   2.352  15.969  0.0396  0.3082 -0.7433
 8389TIP3    H146658   6.001   2.375  15.982 -0.1324  0.2291 -1.7307
 8389TIP3    H246659   6.118   2.306  16.049 -0.7514  0.4184 -0.4251
 8390TIP3   OH246660   1.943   1.488  10.908 -0.4280  0.4520  0.0408
 8390TIP3    H146661   1.947   1.450  10.820  0.5019  0.2319  0.1616
 8390TIP3    H246662   1.888   1.565  10.899  1.9398  2.0883 -1.3989
 8391TIP3   OH246663   1.789   0.410  13.910  0.7378  0.6431 -0.0550
 8391TIP3    H146664   1.757   0.408  13.820 -0.0928 -0.6278  0.2426
 8391TIP3    H246665   1.719   0.454  13.959 -0.1410 -1.2164  0.4247
 8392TIP3   OH246666   3.752   0.748  11.559 -0.1989 -0.2293 -0.2255
 8392TIP3    H146667   3.798   0.758  11.642 -0.9528  1.2952  0.0430
 8392TIP3    H246668   3.685   0.683  11.576  0.8529 -1.3550 -0.2095
 8393TIP3   OH246669   0.590   4.661   2.782 -0.0864 -0.0640  0.6362
 8393TIP3    H146670   0.659   4.721   2.757 -0.6722 -0.4068 -2.0487
 8393TIP3    H246671   0.636   4.582   2.812  0.7584 -0.5177 -1.6752
 8394TIP3   OH246672   1.918   2.683  10.996  0.2657  0.2349  0.3987
 8394TIP3    H146673   1.970   2.603  10.995 -1.0649 -0.8393  3.3634
 8394TIP3    H246674   1.860   2.676  10.921 -0.4013 -2.0679  1.0721
 8395TIP3   OH246675   4.972   2.479   2.203 -0.4376 -0.5236 -0.3807
 8395TIP3    H146676   5.049   2.495   2.149  0.0178  0.2423  0.4696
 8395TIP3    H246677   4.898   2.483   2.142  0.2418 -2.5718 -1.4520
 8396TIP3   OH246678   5.758   1.870   2.008 -0.2736 -0.0104  0.4678
 8396TIP3    H146679   5.824   1.904   1.947 -0.5412  2.1089  1.2557
 8396TIP3    H246680   5.685   1.845   1.952 -0.1260  0.9244 -0.1839
 8397TIP3   OH246681   5.288   1.898   2.342  0.0191 -0.1043  0.2794
 8397TIP3    H146682   5.230   1.865   2.411 -0.0979 -0.8603 -0.1617
 8397TIP3    H246683   5.229   1.937   2.278 -0.0534 -1.1291 -0.3080
 8398TIP3   OH246684   2.846   4.074   0.874 -0.4779  0.1126  0.3651
 8398TIP3    H146685   2.907   4.085   0.947 -1.0499  0.5129  0.7936
 8398TIP3    H246686   2.868   3.989   0.837  0.8080  0.5657  0.0568
 8399TIP3   OH246687   6.719   4.828   2.586 -0.4280 -0.0672 -0.5816
 8399TIP3    H146688   6.747   4.751   2.636 -3.0625 -0.1978  0.8699
 8399TIP3    H246689   6.687   4.889   2.652 -2.6904  0.3559 -1.9576
 8400TIP3   OH246690   0.430   5.438   1.478 -0.6152  0.3731  0.0097
 8400TIP3    H146691   0.430   5.533   1.473  0.1759  0.3869  0.1500
 8400TIP3    H246692   0.489   5.417   1.550 -1.2927 -0.2111  0.4106
 8401TIP3   OH246693   6.027   4.625  16.241 -0.1507  0.5006  0.1255
 8401TIP3    H146694   6.116   4.616  16.275 -0.9059  0.6308  2.2795
 8401TIP3    H246695   6.002   4.537  16.214 -0.0023  0.1155  1.2200
 8402TIP3   OH246696   2.456   4.685  11.778  0.1112 -0.3882  0.2589
 8402TIP3    H146697   2.540   4.641  11.766 -0.4984 -1.0518 -1.9416
 8402TIP3    H246698   2.426   4.705  11.690 -2.7319 -1.4731  0.8796
 8403TIP3   OH246699   4.056   5.589   3.477  0.8328  0.0089 -0.1070
 8403TIP3    H146700   4.011   5.534   3.541  1.8656 -0.3828  0.3092
 8403TIP3    H246701   4.070   5.672   3.521  2.7363 -0.6871  0.7242
 8404TIP3   OH246702   4.994   4.503   5.455 -0.1804  0.4205  0.4849
 8404TIP3    H146703   4.946   4.560   5.395  0.0586  1.0936  0.9265
 8404TIP3    H246704   4.957   4.523   5.541  0.2340  0.2464  0.7036
 8405TIP3   OH246705   3.694   5.116  15.145 -0.4417  0.4960 -0.0195
 8405TIP3    H146706   3.790   5.120  15.137 -0.3531  1.4196  1.1093
 8405TIP3    H246707   3.667   5.052  15.079  0.6482  2.4910 -2.5761
 8406TIP3   OH246708   5.880   0.915  11.337  0.1461 -0.5394  0.2097
 8406TIP3    H146709   5.867   0.827  11.304 -0.3070  0.0365 -1.2275
 8406TIP3    H246710   5.835   0.971  11.274  0.3293  0.7112  1.1509
 8407TIP3   OH246711   5.274   6.363  13.943 -0.6795 -0.2990  0.3969
 8407TIP3    H146712   5.326   6.424  13.891 -0.9239  0.5286  1.0864
 8407TIP3    H246713   5.306   6.276  13.919  0.1755  0.1381 -0.0767
 8408TIP3   OH246714   3.438   5.644  15.384 -0.7356 -0.7434 -0.1900
 8408TIP3    H146715   3.521   5.661  15.428 -0.2595 -0.8858 -1.0040
 8408TIP3    H246716   3.440   5.700  15.306 -2.1071  0.4520  0.5810
 8409TIP3   OH246717   6.494   4.229  16.172 -0.0202 -0.7236  0.5525
 8409TIP3    H146718   6.520   4.175  16.246 -1.2208 -1.7753  0.2277
 8409TIP3    H246719   6.560   4.299  16.169  1.1272 -1.7334  1.4337
 8410TIP3   OH246720   1.375   0.047  14.812 -0.9520 -0.0185  0.4069
 8410TIP3    H146721   1.405   0.099  14.737 -2.7822  1.7868  0.8310
 8410TIP3    H246722   1.431  -0.030  14.811  0.6568  1.0621 -1.4029
 8411TIP3   OH246723   5.507   5.946  15.574  0.0437 -0.3066  0.0571
 8411TIP3    H146724   5.500   6.001  15.496  0.1192  0.9207  0.8795
 8411TIP3    H246725   5.418   5.913  15.588  0.0314 -0.5410 -0.5403
 8412TIP3   OH246726   1.550   4.962  12.025  0.2346 -0.2206 -0.1334
 8412TIP3    H146727   1.502   4.887  11.991  0.6136 -0.4112 -0.2577
 8412TIP3    H246728   1.584   5.006  11.947 -1.7652  1.3284 -0.2168
 8413TIP3   OH246729   1.362   4.474   3.824  0.3305 -0.1447 -0.4737
 8413TIP3    H146730   1.420   4.398   3.828 -0.6217 -0.8951 -0.6015
 8413TIP3    H246731   1.286   4.443   3.776 -0.8042  0.3894  0.9118
 8414TIP3   OH246732   4.844   1.204   5.288 -0.0951 -0.3960  0.3281
 8414TIP3    H146733   4.774   1.138   5.289 -0.9458  0.3796 -1.7572
 8414TIP3    H246734   4.920   1.158   5.252 -0.2586 -0.6291  0.2751
 8415TIP3   OH246735   4.225   2.063  12.145  0.2370 -0.0572  0.3346
 8415TIP3    H146736   4.150   2.014  12.180 -0.1456  0.7552  0.6720
 8415TIP3    H246737   4.243   2.129  12.212 -0.9121  1.9419 -1.2333
 8416TIP3   OH246738   5.285   2.921   1.238 -0.3252  0.5899  0.3974
 8416TIP3    H146739   5.368   2.941   1.281 -0.3616 -0.3698  0.9509
 8416TIP3    H246740   5.225   2.990   1.268 -0.3460 -0.0541  1.9129
 8417TIP3   OH246741   3.929   4.168  15.069  0.2685 -0.1028  0.4606
 8417TIP3    H146742   3.855   4.147  15.126 -1.4729  0.5892 -1.4509
 8417TIP3    H246743   3.962   4.252  15.101 -0.7218  0.3031  0.4330
 8418TIP3   OH246744   2.668   2.777  14.760  0.1294 -0.3504  0.4800
 8418TIP3    H146745   2.591   2.827  14.789 -1.1502 -1.7407 -0.3722
 8418TIP3    H246746   2.673   2.703  14.820  0.7306 -0.3385  0.4490
 8419TIP3   OH246747   6.370   2.166  11.388 -0.1866 -0.2166  0.8492
 8419TIP3    H146748   6.375   2.233  11.457 -1.0382 -0.0093  0.7151
 8419TIP3    H246749   6.407   2.088  11.428 -0.4225 -0.0230  1.4579
 8420TIP3   OH246750   5.374   1.921  12.488 -0.4317 -1.0176  0.1503
 8420TIP3    H146751   5.366   1.856  12.418  1.1385 -0.9061 -0.1784
 8420TIP3    H246752   5.344   2.003  12.448 -0.2492 -1.1016 -0.1611
 8421TIP3   OH246753   4.594   4.668   2.576  0.1933 -0.3013 -0.5816
 8421TIP3    H146754   4.607   4.763   2.570  1.2247 -0.4785 -1.6485
 8421TIP3    H246755   4.525   4.649   2.513 -2.7400  0.1381  2.2494
 8422TIP3   OH246756   0.239   5.166  17.109  0.3944 -0.3273  0.0351
 8422TIP3    H146757   0.281   5.212  17.036  0.2365  1.6121  1.1148
 8422TIP3    H246758   0.298   5.180  17.183 -0.0191 -1.3149  0.5647
 8423TIP3   OH246759   4.041   2.621  15.927  0.6084 -0.0030  0.3228
 8423TIP3    H146760   4.070   2.687  15.864  0.4934 -0.7641 -0.5585
 8423TIP3    H246761   4.120   2.598  15.976  1.3231 -1.2478 -1.3040
 8424TIP3   OH246762   2.220   2.421   2.928  0.1343  0.1581  0.8227
 8424TIP3    H146763   2.212   2.395   3.019 -0.4471 -0.1060  0.7008
 8424TIP3    H246764   2.133   2.450   2.903 -0.1747 -1.4714 -0.1589
 8425TIP3   OH246765   1.554   2.312   5.733  0.5420 -0.6527 -0.5920
 8425TIP3    H146766   1.491   2.379   5.708  0.1555 -1.4039 -1.7214
 8425TIP3    H246767   1.629   2.360   5.766 -0.3442  0.2813  0.1111
 8426TIP3   OH246768   3.018   0.905  12.418 -0.0050 -0.0026 -0.3604
 8426TIP3    H146769   3.107   0.884  12.389 -0.5331 -0.7824 -1.5117
 8426TIP3    H246770   2.966   0.829  12.393 -1.0118  0.4357  0.2994
 8427TIP3   OH246771   2.420   5.482  15.588 -0.3350 -0.3923 -0.0457
 8427TIP3    H146772   2.441   5.480  15.681  0.1086  1.6055 -0.0472
 8427TIP3    H246773   2.488   5.538  15.549 -0.7854 -0.7944 -1.4891
 8428TIP3   OH246774   4.518   0.271  15.426  0.3485  0.2658  0.1614
 8428TIP3    H146775   4.600   0.314  15.402  2.0352 -1.7034  1.9726
 8428TIP3    H246776   4.542   0.179  15.439 -2.1018 -0.3330  1.0064
 8429TIP3   OH246777   1.935   3.897   6.170  0.7319  0.2670 -0.7640
 8429TIP3    H146778   2.016   3.845   6.176 -0.5298 -2.0715 -2.2235
 8429TIP3    H246779   1.904   3.903   6.260  1.6652 -0.2844 -0.3845
 8430TIP3   OH246780   0.498   3.190  14.892  1.2445 -0.0872 -0.1626
 8430TIP3    H146781   0.518   3.226  14.805 -0.0764  0.4127 -0.2783
 8430TIP3    H246782   0.557   3.238  14.951 -0.3433  2.2438 -0.3436
 8431TIP3   OH246783   1.133   2.962  12.898  0.1648  0.9409 -0.5668
 8431TIP3    H146784   1.102   3.046  12.865  0.8238  1.6825  0.6355
 8431TIP3    H246785   1.208   2.984  12.952 -0.8618 -0.1713  1.4328
 8432TIP3   OH246786   1.275   0.586  14.645 -0.3788  0.2522  0.4857
 8432TIP3    H146787   1.230   0.502  14.632  2.3507 -1.2028 -0.3340
 8432TIP3    H246788   1.320   0.603  14.563 -0.1169  2.0793  0.9599
 8433TIP3   OH246789   2.925   0.925  11.357  0.1694 -0.1569  0.5084
 8433TIP3    H146790   2.909   0.961  11.444  2.2337 -1.8843  1.7267
 8433TIP3    H246791   2.909   0.831  11.367 -1.3171 -0.1785 -1.5056
 8434TIP3   OH246792   3.402   5.151   5.139 -0.0696 -0.2785  0.4335
 8434TIP3    H146793   3.372   5.073   5.092 -0.6066  1.4185 -2.3056
 8434TIP3    H246794   3.324   5.206   5.147  0.7039  0.8720  0.3180
 8435TIP3   OH246795   3.053   4.208  14.305 -0.1531  0.2172 -0.2686
 8435TIP3    H146796   2.984   4.143  14.295 -0.7622  0.4947  1.7499
 8435TIP3    H246797   3.008   4.292  14.298 -0.0765  0.4020  1.1123
 8436TIP3   OH246798   6.314   0.816  11.413 -0.3655 -0.0385 -0.1337
 8436TIP3    H146799   6.381   0.780  11.356  0.7680  1.2820  0.3034
 8436TIP3    H246800   6.309   0.755  11.486  0.1026 -0.3246 -0.3386
 8437TIP3   OH246801   2.577   3.942   2.948 -0.1967 -0.0087  0.1187
 8437TIP3    H146802   2.527   4.011   2.991  0.0824 -0.0806  0.5605
 8437TIP3    H246803   2.668   3.964   2.966 -0.0412  0.3027 -0.9484
 8438TIP3   OH246804   5.783   5.411   2.646 -0.1093  0.0347 -0.4299
 8438TIP3    H146805   5.798   5.356   2.723 -3.7418 -2.8525 -1.4530
 8438TIP3    H246806   5.838   5.372   2.578  0.9833  0.8256 -0.0284
 8439TIP3   OH246807   0.180   5.778   1.245  0.4050 -0.3833 -0.1951
 8439TIP3    H146808   0.210   5.706   1.189  0.9358  0.0586 -0.4883
 8439TIP3    H246809   0.096   5.805   1.208  1.0304  0.3026 -1.1509
 8440TIP3   OH246810   3.186   3.118   1.580 -0.2729 -0.6054  0.2491
 8440TIP3    H146811   3.246   3.171   1.632  0.9633  0.2245 -1.8879
 8440TIP3    H246812   3.099   3.144   1.611  0.1925  3.3070 -1.0817
 8441TIP3   OH246813   5.326   0.727   5.473  0.4425 -0.0889  0.0196
 8441TIP3    H146814   5.326   0.631   5.479  0.1133 -0.0310  1.0683
 8441TIP3    H246815   5.259   0.746   5.407  1.6003 -0.6186 -1.3787
 8442TIP3   OH246816   0.485   4.680   3.068 -0.5370  0.1121 -0.3564
 8442TIP3    H146817   0.559   4.686   3.008 -0.0086 -1.0361  0.1563
 8442TIP3    H246818   0.524   4.682   3.155 -1.3238  2.1650  0.0206
 8443TIP3   OH246819   4.856   6.256   1.454  0.1989  0.3304  0.8897
 8443TIP3    H146820   4.882   6.276   1.544 -0.0475 -1.7468  1.4756
 8443TIP3    H246821   4.937   6.258   1.404  0.5421  0.1522  1.4375
 8444TIP3   OH246822   0.724   4.034  15.843  0.1769  0.0284 -0.6947
 8444TIP3    H146823   0.705   4.078  15.760 -0.8509 -0.7462 -0.8898
 8444TIP3    H246824   0.819   4.024  15.844  0.2849  0.9061 -1.3283
 8445TIP3   OH246825   3.791   5.395  14.066  0.2644 -0.4482 -0.3956
 8445TIP3    H146826   3.775   5.312  14.111  0.9188 -0.5555 -0.3481
 8445TIP3    H246827   3.853   5.441  14.123 -0.4267  0.2657 -0.2007
 8446TIP3   OH246828   4.088   5.510  13.932 -0.1422 -0.3013  0.3566
 8446TIP3    H146829   3.998   5.530  13.905  0.5655  1.1844 -1.0068
 8446TIP3    H246830   4.130   5.595  13.943  1.1530 -0.9753  0.8571
 8447TIP3   OH246831   0.593   5.933  16.068 -0.2236 -0.1908  0.0183
 8447TIP3    H146832   0.557   6.018  16.093  0.3833  0.0791 -0.0172
 8447TIP3    H246833   0.580   5.877  16.145  0.9950  0.4315  0.6943
 8448TIP3   OH246834   5.465   3.404  15.421  0.1868 -0.3041 -0.2759
 8448TIP3    H146835   5.474   3.353  15.501  0.6966  0.2755  0.0428
 8448TIP3    H246836   5.407   3.476  15.445 -1.6226 -1.4355 -1.0750
 8449TIP3   OH246837   3.818   4.275  15.565  0.0559  0.6324  0.4804
 8449TIP3    H146838   3.884   4.282  15.634 -0.0913 -1.2872  0.8619
 8449TIP3    H246839   3.863   4.233  15.492 -0.3169  0.8471  0.1196
 8450TIP3   OH246840   5.274   2.493  13.500 -0.3673  0.3429  0.1072
 8450TIP3    H146841   5.217   2.518  13.427 -0.9803 -2.1010 -0.3533
 8450TIP3    H246842   5.238   2.409  13.531  0.8560  0.5023  2.1682
 8451TIP3   OH246843   5.484   3.647  13.904 -0.4316  0.2464  0.6122
 8451TIP3    H146844   5.442   3.679  13.983  1.1695  2.4174  0.6776
 8451TIP3    H246845   5.577   3.638  13.927  0.2840  1.9804 -1.1904
 8452TIP3   OH246846   1.344   3.140   6.307  0.1706  0.3933  0.1837
 8452TIP3    H146847   1.270   3.138   6.367  1.0260  1.1902  1.3165
 8452TIP3    H246848   1.389   3.056   6.321 -0.7217 -0.2831 -0.8254
 8453TIP3   OH246849   0.406   6.138   1.712  0.1417  0.0353  0.1923
 8453TIP3    H146850   0.427   6.231   1.720 -1.1893  0.5519 -1.5982
 8453TIP3    H246851   0.319   6.130   1.752  0.3630 -0.4877  0.5718
 8454TIP3   OH246852   2.100   0.819   4.466 -0.6584  0.4936 -0.2487
 8454TIP3    H146853   2.044   0.772   4.528  1.7788  0.1142  1.8430
 8454TIP3    H246854   2.038   0.865   4.409 -3.0790 -0.8515  1.0974
 8455TIP3   OH246855   4.388   3.583  15.638 -0.3011  0.4565  0.2951
 8455TIP3    H146856   4.440   3.504  15.650  0.3867  0.8080 -0.3064
 8455TIP3    H246857   4.408   3.611  15.549 -1.6756  0.4930 -0.0348
 8456TIP3   OH246858   4.949   5.509   4.659 -0.1251 -0.2518  0.0700
 8456TIP3    H146859   4.967   5.602   4.644 -0.4278 -0.3831 -1.1677
 8456TIP3    H246860   4.954   5.499   4.754 -2.7512  1.5753  0.4940
 8457TIP3   OH246861   3.824   4.814  15.782 -0.3384 -0.2003  0.0730
 8457TIP3    H146862   3.828   4.851  15.694  1.7399  0.9192  0.5749
 8457TIP3    H246863   3.841   4.888  15.840 -0.3093 -1.1762  1.3559
 8458TIP3   OH246864   0.589   0.310   1.016 -0.0157 -0.3358 -0.2441
 8458TIP3    H146865   0.622   0.249   1.081  1.7101  0.7938  0.0239
 8458TIP3    H246866   0.544   0.378   1.067  0.3924 -0.0163 -0.3015
 8459TIP3   OH246867   1.035   6.138   6.238  0.7231 -0.2337 -0.5039
 8459TIP3    H146868   1.055   6.068   6.300 -1.1362 -0.2082  0.1695
 8459TIP3    H246869   1.102   6.205   6.255  0.8052 -0.6272  0.8183
 8460TIP3   OH246870   4.911   6.693   2.184  0.3177 -0.0723  0.2234
 8460TIP3    H146871   4.989   6.637   2.190  2.2122  2.4656  1.0918
 8460TIP3    H246872   4.876   6.695   2.273 -1.1735 -1.6754 -0.2814
 8461TIP3   OH246873   2.146   3.597   2.668  0.0759  0.2792 -0.4395
 8461TIP3    H146874   2.208   3.588   2.596  0.6797 -0.1329  0.1160
 8461TIP3    H246875   2.094   3.674   2.645  0.7780  0.6265 -0.9306
 8462TIP3   OH246876   4.129   0.984  14.026  0.0696 -0.4554  0.0478
 8462TIP3    H146877   4.053   1.013  14.077  1.0267 -0.8448  1.8004
 8462TIP3    H246878   4.106   0.898  13.993 -0.4554 -0.3312  0.0927
 8463TIP3   OH246879   0.875   5.821   6.008 -0.2453 -0.0134 -0.3593
 8463TIP3    H146880   0.959   5.859   6.034  0.1092 -0.5475 -0.6968
 8463TIP3    H246881   0.836   5.790   6.090  0.3787 -0.7256 -0.3174
 8464TIP3   OH246882   0.363   5.375  16.326  0.0856  0.2217 -0.6707
 8464TIP3    H146883   0.402   5.327  16.399 -1.4478  0.4875  0.3430
 8464TIP3    H246884   0.385   5.322  16.249 -0.2441 -1.3059  0.2437
 8465TIP3   OH246885   0.728   6.508  12.901 -0.7241  0.6271  0.2075
 8465TIP3    H146886   0.821   6.526  12.914 -0.4802  0.0960 -0.6516
 8465TIP3    H246887   0.687   6.527  12.985  0.6715 -2.3953  1.7489
 8466TIP3   OH246888   5.696   1.304   3.142  0.2476 -0.3444  0.1131
 8466TIP3    H146889   5.615   1.333   3.099 -0.1143  0.3294  1.1940
 8466TIP3    H246890   5.683   1.327   3.234  1.9286  0.3369  0.2122
 8467TIP3   OH246891   6.678   2.279   1.098 -0.6669 -0.1543  0.4375
 8467TIP3    H146892   6.718   2.193   1.091 -1.1104 -0.4215  1.0786
 8467TIP3    H246893   6.654   2.287   1.190  2.5110  2.0607  1.2688
 8468TIP3   OH246894   1.377   2.067  11.301 -0.2468  0.2140  0.1495
 8468TIP3    H146895   1.295   2.055  11.253  0.1070  1.2530 -0.7615
 8468TIP3    H246896   1.445   2.040  11.239  0.2272  1.7152 -0.0192
 8469TIP3   OH246897   1.951   1.512   4.095 -0.5498 -0.1254  0.0926
 8469TIP3    H146898   2.023   1.449   4.099 -0.0306  0.4655  0.0764
 8469TIP3    H246899   1.881   1.471   4.147  0.0832 -0.3244  0.8037
 8470TIP3   OH246900   6.081   3.847  14.939  0.0562  0.1388  0.0356
 8470TIP3    H146901   6.035   3.835  14.856 -0.5894 -0.7122  0.5128
 8470TIP3    H246902   6.014   3.880  14.999  0.1122 -0.8821  0.6714
 8471TIP3   OH246903   1.773   5.161  14.862 -0.0181  0.1596  0.4069
 8471TIP3    H146904   1.854   5.113  14.846 -0.7518 -1.1488  0.4827
 8471TIP3    H246905   1.785   5.201  14.948  1.3713  1.8016 -0.4711
 8472TIP3   OH246906   5.722   6.038  16.174  0.3540  0.1673  0.0668
 8472TIP3    H146907   5.645   6.015  16.227 -0.8557  1.4277 -1.0665
 8472TIP3    H246908   5.737   6.130  16.194  0.6438  0.3224 -0.8385
 8473TIP3   OH246909   0.117   1.437   4.940  0.1464  0.2510  0.2643
 8473TIP3    H146910   0.150   1.394   5.019  0.9690 -0.3137 -0.3653
 8473TIP3    H246911   0.169   1.517   4.933  0.4968  0.0056 -0.0158
 8474TIP3   OH246912   0.821   6.803   4.976  0.6732  0.9004  0.2826
 8474TIP3    H146913   0.876   6.803   5.054 -0.2561 -0.2342  0.9571
 8474TIP3    H246914   0.882   6.784   4.904  1.4486  1.4811  0.7675
 8475TIP3   OH246915   0.845   4.092   5.823  0.3972 -0.4337  0.4652
 8475TIP3    H146916   0.821   4.025   5.887 -0.4477 -0.1259  0.4805
 8475TIP3    H246917   0.862   4.171   5.876  0.7976 -0.4748  0.3990
 8476TIP3   OH246918   2.613   5.358  11.291 -0.2350 -0.6346  0.2135
 8476TIP3    H146919   2.567   5.292  11.239  1.1034 -2.4917  1.2925
 8476TIP3    H246920   2.622   5.433  11.232  0.5070 -2.3557 -1.9947
 8477TIP3   OH246921   2.827   5.164  13.064 -0.0223  0.2293 -0.0655
 8477TIP3    H146922   2.842   5.252  13.028 -1.3418  0.2437 -0.6193
 8477TIP3    H246923   2.811   5.109  12.987 -0.9286 -0.1394  0.3724
 8478TIP3   OH246924   2.466   4.293   1.166 -0.3558 -0.6156 -0.0281
 8478TIP3    H146925   2.547   4.274   1.212  0.3870  2.2492  0.0273
 8478TIP3    H246926   2.487   4.282   1.073 -0.2980 -1.1761  0.0525
 8479TIP3   OH246927   1.064   0.150  13.924 -0.4304 -0.3649 -0.0315
 8479TIP3    H146928   1.120   0.157  14.001 -2.7359  0.2271  1.6964
 8479TIP3    H246929   1.125   0.138  13.851  1.8298 -1.3539  1.8937
 8480TIP3   OH246930   0.969   5.433   3.630  0.8601  0.3084 -0.1467
 8480TIP3    H146931   1.013   5.352   3.604  1.7165  0.4197  0.8981
 8480TIP3    H246932   0.941   5.418   3.720 -2.9035 -0.4149 -1.2473
 8481TIP3   OH246933   6.075   6.374   4.486 -0.1698 -0.1176 -0.3460
 8481TIP3    H146934   6.018   6.420   4.425  1.2263 -1.3073 -2.6902
 8481TIP3    H246935   6.164   6.401   4.462  0.4223  0.1732  1.8980
 8482TIP3   OH246936   5.072   1.810   4.114  0.3817 -0.1652  0.7591
 8482TIP3    H146937   5.021   1.807   4.033 -0.2448 -1.4241  1.1717
 8482TIP3    H246938   5.127   1.888   4.105 -0.4651  0.3331 -0.3946
 8483TIP3   OH246939   5.773   2.165   5.250 -0.1343  0.3620  0.2385
 8483TIP3    H146940   5.805   2.123   5.330 -0.5731  0.6096  0.5538
 8483TIP3    H246941   5.850   2.206   5.212 -0.0402  0.8050  0.8900
 8484TIP3   OH246942   4.213   1.837   1.147 -0.0778  0.5142  0.3985
 8484TIP3    H146943   4.276   1.872   1.209  0.2902 -0.4553  0.5971
 8484TIP3    H246944   4.222   1.891   1.069  1.2573  0.1830  0.2987
 8485TIP3   OH246945   2.050   5.773   5.060  0.7836  0.0167  0.0527
 8485TIP3    H146946   1.966   5.814   5.082  0.4186 -0.1588 -0.9377
 8485TIP3    H246947   2.089   5.751   5.144 -0.0279  0.3769  0.5372
 8486TIP3   OH246948   3.987   2.844   2.945  0.2984 -0.2398  0.4232
 8486TIP3    H146949   4.052   2.907   2.976  0.5447  0.3474 -1.2049
 8486TIP3    H246950   4.038   2.774   2.904 -0.0606 -0.2071 -0.0902
 8487TIP3   OH246951   1.823   6.206  11.309  0.3385  0.7841 -0.3579
 8487TIP3    H146952   1.863   6.282  11.268  0.1942  0.6271 -0.7954
 8487TIP3    H246953   1.873   6.131  11.276 -0.8501  0.5002 -1.6389
 8488TIP3   OH246954   2.230   3.882  16.964 -0.1007 -0.3723  0.3344
 8488TIP3    H146955   2.317   3.857  16.995  0.3745  1.1709  0.3401
 8488TIP3    H246956   2.230   3.862  16.871  0.8001  0.9408  0.0308
 8489TIP3   OH246957   2.180   0.740   1.989 -0.3143 -0.6585  0.0737
 8489TIP3    H146958   2.184   0.779   2.077 -0.3011 -1.8193  0.5992
 8489TIP3    H246959   2.247   0.786   1.939 -0.8456  0.5599  0.4447
 8490TIP3   OH246960   0.984   0.670  11.416 -0.2379 -0.1466  0.4354
 8490TIP3    H146961   1.012   0.593  11.465  0.9802  0.4434  0.7013
 8490TIP3    H246962   0.890   0.659  11.405 -0.0144 -1.9376 -0.0053
 8491TIP3   OH246963   5.826   1.845   2.681 -0.1783  0.0263  0.1941
 8491TIP3    H146964   5.916   1.862   2.653 -0.1015  0.4447  0.6842
 8491TIP3    H246965   5.803   1.762   2.640 -0.0698  0.6181 -1.1065
 8492TIP3   OH246966   0.312   6.572  11.846 -0.1758  0.0987 -0.2009
 8492TIP3    H146967   0.223   6.607  11.854 -0.4367 -0.4584 -0.5424
 8492TIP3    H246968   0.315   6.498  11.907  0.7524  1.4020  1.4041
 8493TIP3   OH246969   6.040   3.034   3.883 -0.3281  0.5409 -0.3940
 8493TIP3    H146970   5.971   2.978   3.917  0.9579 -0.8635 -0.0193
 8493TIP3    H246971   6.033   3.025   3.788 -1.5143  1.5103 -0.4284
 8494TIP3   OH246972   5.848   2.440  11.309 -0.1867  0.1774  0.2195
 8494TIP3    H146973   5.901   2.403  11.380 -0.5728 -0.2644  0.2837
 8494TIP3    H246974   5.766   2.390  11.312 -0.5616  0.7727  0.0474
 8495TIP3   OH246975   2.352   2.811  14.790 -0.0545 -0.3574 -0.2585
 8495TIP3    H146976   2.329   2.806  14.883  0.4135  0.5571 -0.0717
 8495TIP3    H246977   2.334   2.724  14.755 -0.4745 -0.6383  0.6363
 8496TIP3   OH246978   2.660   3.136   0.260  0.1276 -0.4103 -0.5867
 8496TIP3    H146979   2.618   3.136   0.174 -0.3676  0.1497 -0.3557
 8496TIP3    H246980   2.594   3.098   0.318  0.4559 -0.7732 -0.4488
 8497TIP3   OH246981   5.504   3.345  16.570 -0.2228 -0.4272 -0.2567
 8497TIP3    H146982   5.564   3.325  16.498  1.4947  0.8158  0.7538
 8497TIP3    H246983   5.444   3.271  16.573  1.1643 -1.6537 -1.4416
 8498TIP3   OH246984   1.176   3.633  16.972 -0.1805 -0.2654 -0.0280
 8498TIP3    H146985   1.267   3.663  16.979  0.1883  0.1074 -3.9445
 8498TIP3    H246986   1.183   3.538  16.962 -0.3171 -0.3196  0.3588
 8499TIP3   OH246987   6.474   0.164  12.993  0.2498  0.0216 -0.0883
 8499TIP3    H146988   6.569   0.173  12.979  0.1372  0.3348 -0.6604
 8499TIP3    H246989   6.445   0.251  13.019 -0.1911  0.4248 -1.8180
 8500TIP3   OH246990   6.323   3.861   4.259 -0.3680 -0.2722  0.3526
 8500TIP3    H146991   6.229   3.872   4.247 -0.2812  0.1381  0.0258
 8500TIP3    H246992   6.349   3.798   4.192 -0.3316 -0.0324  0.1428
 8501TIP3   OH246993   1.886   5.269  14.353 -0.1038  0.1231 -0.0208
 8501TIP3    H146994   1.905   5.243  14.443  0.4174 -1.2447 -0.5067
 8501TIP3    H246995   1.971   5.265  14.308 -0.7518 -2.0045 -1.2225
 8502TIP3   OH246996   3.698   4.853   0.681  0.2440  0.4814  1.0819
 8502TIP3    H146997   3.716   4.887   0.768  0.7459  0.6434  0.9164
 8502TIP3    H246998   3.684   4.931   0.627  0.6069  0.4085  0.8763
 8503TIP3   OH246999   6.099   0.026   3.756 -0.2240 -0.4358  0.1821
 8503TIP3    H147000   6.172   0.006   3.815  0.3408  4.1251  1.4233
 8503TIP3    H247001   6.023  -0.016   3.796  0.7444 -0.2870  2.2865
 8504TIP3   OH247002   2.867   2.926   5.803 -0.3420 -0.1016  0.3569
 8504TIP3    H147003   2.943   2.876   5.830  0.0723  0.4066  0.1641
 8504TIP3    H247004   2.903   3.011   5.775 -0.8370 -0.2861 -0.9140
 8505TIP3   OH247005   1.074   5.584  11.392 -0.2311 -0.2481 -0.3344
 8505TIP3    H147006   0.983   5.614  11.389  0.2492  1.4731  0.5487
 8505TIP3    H247007   1.095   5.563  11.301 -0.8894  1.4438 -0.9292
 8506TIP3   OH247008   0.959   3.201   1.120  0.1464 -0.2767  0.2022
 8506TIP3    H147009   0.949   3.296   1.125  0.8685 -0.1921  0.1234
 8506TIP3    H247010   0.923   3.177   1.035  3.8293  0.4982 -1.7942
 8507TIP3   OH247011   4.508   4.624   3.515  0.0448  0.2066  0.0565
 8507TIP3    H147012   4.515   4.614   3.420  1.8796 -0.6507  0.2294
 8507TIP3    H247013   4.527   4.717   3.531 -2.7990  0.9810 -0.5403
 8508TIP3   OH247014   5.631   1.499   5.760  0.2952 -0.4131 -0.0742
 8508TIP3    H147015   5.669   1.500   5.672  0.2645 -0.2792 -0.0863
 8508TIP3    H247016   5.592   1.411   5.768 -0.7461 -0.0208 -0.6453
 8509TIP3   OH247017   4.156   0.670  11.208  0.0568  0.0514 -0.0509
 8509TIP3    H147018   4.074   0.648  11.252 -0.3252  0.8023 -0.3665
 8509TIP3    H247019   4.138   0.657  11.115  0.6317 -0.8094 -0.0511
 8510TIP3   OH247020   0.343   5.437  14.958 -0.0404  0.8148  0.5013
 8510TIP3    H147021   0.386   5.442  15.043  1.0515  0.4800 -0.0136
 8510TIP3    H247022   0.410   5.403  14.899 -1.0055  0.3138 -0.3405
 8511TIP3   OH247023   1.667   5.715   5.082  0.1999  0.1357 -0.2771
 8511TIP3    H147024   1.664   5.619   5.081 -0.4360  0.1515 -0.0713
 8511TIP3    H247025   1.599   5.740   5.144  0.1062  0.7360 -0.6228
 8512TIP3   OH247026   1.249   2.029  16.007 -0.4625  0.0826 -1.0705
 8512TIP3    H147027   1.213   2.113  16.036 -0.7474 -0.3617 -0.1100
 8512TIP3    H247028   1.227   2.025  15.914 -0.7346  0.9234 -1.0519
 8513TIP3   OH247029   0.894   2.434   4.633  0.1599  0.4891  0.3864
 8513TIP3    H147030   0.985   2.429   4.661  1.9166 -0.6500 -4.6130
 8513TIP3    H247031   0.871   2.345   4.607 -1.2704  1.2989 -1.3506
 8514TIP3   OH247032   4.852   6.526  12.529  0.1509 -0.2569  0.7304
 8514TIP3    H147033   4.906   6.472  12.473 -0.9136 -0.0408 -0.5525
 8514TIP3    H247034   4.891   6.613  12.524  1.0152 -0.5737  1.6531
 8515TIP3   OH247035   2.625   1.909   4.194  0.3138 -0.1973 -0.0844
 8515TIP3    H147036   2.533   1.929   4.209  0.2225  0.8762 -1.7793
 8515TIP3    H247037   2.624   1.832   4.137  0.3447  1.1871 -2.0418
 8516TIP3   OH247038   3.818   4.463  12.218 -0.0811  0.0497  0.0691
 8516TIP3    H147039   3.804   4.471  12.124  1.4742 -2.0023 -0.4146
 8516TIP3    H247040   3.735   4.490  12.257 -1.0828  0.0399 -1.9218
 8517TIP3   OH247041   6.790   1.271   5.748  0.2592  0.4463 -0.2832
 8517TIP3    H147042   6.811   1.191   5.700  1.2422  0.5787 -0.1019
 8517TIP3    H247043   6.695   1.280   5.741 -0.0217 -1.3949  0.7353
 8518TIP3   OH247044   3.103   0.238  16.483  0.4506  0.4912 -0.5126
 8518TIP3    H147045   3.022   0.207  16.442 -0.3781  2.3931 -0.4382
 8518TIP3    H247046   3.152   0.278  16.411 -0.6656  3.1506  0.0446
 8519TIP3   OH247047   6.200   5.057   4.365  0.2417 -0.0346 -0.1438
 8519TIP3    H147048   6.197   5.145   4.328 -0.9330  0.3418  0.7695
 8519TIP3    H247049   6.268   5.012   4.315  1.2309  1.5340 -0.2732
 8520TIP3   OH247050   4.852   1.411  16.489  0.3059  0.4721 -0.3182
 8520TIP3    H147051   4.856   1.319  16.516 -0.9636  0.0749 -1.3475
 8520TIP3    H247052   4.878   1.460  16.567 -0.7408 -0.7044  0.8250
 8521TIP3   OH247053   0.633   6.537  16.931  0.7334  0.0828  0.5718
 8521TIP3    H147054   0.665   6.607  16.988 -0.3878 -0.1318  1.5166
 8521TIP3    H247055   0.692   6.463  16.949  1.6514  0.6417 -0.1059
 8522TIP3   OH247056   3.420   3.531  16.382  0.4060  0.3699 -0.1683
 8522TIP3    H147057   3.460   3.591  16.319  0.3415 -0.3157 -0.8932
 8522TIP3    H247058   3.431   3.573  16.467  1.2291  0.9436 -0.5436
 8523TIP3   OH247059   2.082   3.594   3.982  0.4969 -0.0538 -0.1516
 8523TIP3    H147060   2.123   3.533   3.920  1.8204  1.1645 -0.5442
 8523TIP3    H247061   1.989   3.591   3.961  1.0020  1.1311 -3.0103
 8524TIP3   OH247062   1.791   5.454  14.613  0.1603  0.2575  0.2197
 8524TIP3    H147063   1.839   5.371  14.610  0.7127  0.5956 -0.7749
 8524TIP3    H247064   1.846   5.512  14.666 -1.4801 -0.7379  3.2119
 8525TIP3   OH247065   3.748   3.225  10.996  0.3326  0.2349  0.1247
 8525TIP3    H147066   3.719   3.242  11.086 -3.3531 -1.5415 -0.5136
 8525TIP3    H247067   3.742   3.130  10.987  1.4082  0.3019 -1.7848
 8526TIP3   OH247068   1.249   2.215   0.217 -0.3406  0.4400 -0.1757
 8526TIP3    H147069   1.282   2.303   0.235 -0.9288  0.5793  0.2310
 8526TIP3    H247070   1.222   2.218   0.125 -0.6983  0.7948 -0.0638
 8527TIP3   OH247071   6.796   0.325  14.337  0.0542  0.4000  0.4566
 8527TIP3    H147072   6.796   0.411  14.380 -2.6132  0.4705  0.5104
 8527TIP3    H247073   6.735   0.335  14.264  2.9163 -0.3011 -2.2666
 8528TIP3   OH247074   5.943   4.426  13.191 -0.2939 -0.6509 -0.0210
 8528TIP3    H147075   5.947   4.507  13.140  1.3574  0.9489  2.4238
 8528TIP3    H247076   6.020   4.376  13.163 -0.3114 -0.5462 -0.2578
 8529TIP3   OH247077   1.451   4.654  16.549  0.3546  0.1046  0.6765
 8529TIP3    H147078   1.489   4.575  16.510 -0.4552 -0.7247  1.5271
 8529TIP3    H247079   1.527   4.704  16.581  0.9427  0.1917 -0.7745
 8530TIP3   OH247080   2.698   2.215  14.368 -0.5242 -0.0172 -0.3408
 8530TIP3    H147081   2.733   2.273  14.301 -1.6348  0.9827 -0.1015
 8530TIP3    H247082   2.656   2.144  14.320  0.0731 -0.1510 -0.6633
 8531TIP3   OH247083   2.825   2.463  13.959  0.1103 -0.1911 -0.2629
 8531TIP3    H147084   2.795   2.396  14.021  0.2497  0.5830  0.6726
 8531TIP3    H247085   2.848   2.538  14.014 -0.9737  0.9915 -1.3654
 8532TIP3   OH247086   5.623   0.066  12.687 -0.1923  0.0162 -0.1868
 8532TIP3    H147087   5.683  -0.007  12.671 -0.4519 -0.1532 -0.4098
 8532TIP3    H247088   5.650   0.101  12.772 -0.1355 -0.4114 -0.0224
 8533TIP3   OH247089   6.269   4.677  16.401  0.2269 -0.0022  0.9007
 8533TIP3    H147090   6.269   4.762  16.357 -0.9286 -0.6160 -0.3624
 8533TIP3    H247091   6.362   4.652  16.404  0.4219  0.4638 -0.4515
 8534TIP3   OH247092   2.863   4.535   2.239 -0.0248  0.1569  0.0637
 8534TIP3    H147093   2.863   4.591   2.317 -0.8439 -1.9070  1.6376
 8534TIP3    H247094   2.954   4.534   2.209 -0.0421  2.5785 -0.2772
 8535TIP3   OH247095   0.411   0.201   2.543 -0.3170 -0.2439  0.6963
 8535TIP3    H147096   0.416   0.117   2.588 -2.4218 -0.4264  0.6627
 8535TIP3    H247097   0.388   0.179   2.453 -3.7666  0.3862  1.2989
 8536TIP3   OH247098   4.903   4.481  16.810 -0.4388 -0.8827 -0.1400
 8536TIP3    H147099   4.995   4.499  16.829 -0.7978 -1.9718  3.3931
 8536TIP3    H247100   4.873   4.559  16.763  1.6152  0.8020  1.1592
 8537TIP3   OH247101   3.033   3.510  15.210  0.3439  0.3481  0.3887
 8537TIP3    H147102   2.938   3.518  15.219  0.3889  1.3564  0.0350
 8537TIP3    H247103   3.068   3.554  15.287  0.5289 -0.0413  0.5288
 8538TIP3   OH247104   0.848   0.671  10.319 -0.1849 -0.2670  0.0054
 8538TIP3    H147105   0.817   0.621  10.244  0.3245  0.6342 -0.8345
 8538TIP3    H247106   0.785   0.652  10.389 -1.0268 -0.6349 -0.8336
 8539TIP3   OH247107   1.544   0.101   0.148  0.1387 -0.0539 -0.2790
 8539TIP3    H147108   1.582   0.042   0.213  0.7010  1.8260  1.2138
 8539TIP3    H247109   1.618   0.152   0.115 -0.6194  1.5775  0.4098
 8540TIP3   OH247110   5.110   5.075   0.082 -0.0260 -0.2061 -0.4541
 8540TIP3    H147111   5.090   5.069  -0.011 -1.0286  0.0845 -0.2740
 8540TIP3    H247112   5.025   5.093   0.123  0.5337  0.5507  0.4187
 8541TIP3   OH247113   1.939   3.291  10.910 -0.3132 -0.1336 -0.9040
 8541TIP3    H147114   1.861   3.314  10.961 -0.1321  0.6199 -0.9456
 8541TIP3    H247115   1.956   3.370  10.858  0.1811 -0.4790 -1.2676
 8542TIP3   OH247116   1.140   3.974  17.087  0.2376 -0.4416  0.1029
 8542TIP3    H147117   1.100   4.044  17.137  1.8444  1.5113 -1.1618
 8542TIP3    H247118   1.187   3.922  17.152  2.3855  2.0948  0.7551
 8543TIP3   OH247119   0.322   5.465   5.900 -0.1539 -0.3058  0.2029
 8543TIP3    H147120   0.371   5.470   5.982 -0.3963  1.4777  0.2604
 8543TIP3    H247121   0.242   5.417   5.924 -0.4586  0.6278  1.1476
 8544TIP3   OH247122   1.619   4.617  14.819  0.0203  0.8292  1.0266
 8544TIP3    H147123   1.589   4.566  14.743  0.2682  0.9014  0.8782
 8544TIP3    H247124   1.544   4.619  14.878  0.0630  0.1366  1.1122
 8545TIP3   OH247125   1.243   0.816   0.172 -0.3554  0.2752 -0.0763
 8545TIP3    H147126   1.332   0.851   0.172 -0.3229  0.2572 -1.2485
 8545TIP3    H247127   1.191   0.881   0.217  0.3545 -0.0305  1.2350
 8546TIP3   OH247128   6.390   1.862  13.432  0.3985  0.6223 -0.2744
 8546TIP3    H147129   6.430   1.793  13.485 -0.1066  0.5668  0.0437
 8546TIP3    H247130   6.374   1.821  13.347  0.3931  0.4426 -0.1877
 8547TIP3   OH247131   6.407   0.492  14.454 -0.1874  0.0458 -0.4256
 8547TIP3    H147132   6.331   0.523  14.502  1.8322  0.3451  2.9086
 8547TIP3    H247133   6.414   0.551  14.379 -2.3204  0.9580  0.0227
 8548TIP3   OH247134   5.235   4.820   0.169 -0.1954 -0.5085  0.1163
 8548TIP3    H147135   5.162   4.760   0.187  0.5014 -1.6787 -0.8453
 8548TIP3    H247136   5.193   4.905   0.159 -1.2223 -0.8200  1.4050
 8549TIP3   OH247137   2.017   1.109  13.224 -0.4829 -0.3560 -0.2891
 8549TIP3    H147138   2.080   1.062  13.169 -2.2499 -2.4844 -0.6209
 8549TIP3    H247139   2.065   1.126  13.305  0.4554 -2.1958 -0.3900
 8550TIP3   OH247140   1.955   5.242  14.629  0.0288 -0.1196  0.0225
 8550TIP3    H147141   2.032   5.271  14.580 -0.0980 -2.4987 -1.7213
 8550TIP3    H247142   1.964   5.147  14.635 -1.6019 -0.2318  1.9075
 8551TIP3   OH247143   1.418   5.740   2.668 -0.2699  0.3765 -0.1994
 8551TIP3    H147144   1.505   5.757   2.632  0.2583 -0.5213  0.6056
 8551TIP3    H247145   1.414   5.792   2.748 -1.4860  2.4622 -1.4998
 8552TIP3   OH247146   0.315   4.309  15.402 -0.4756 -0.4491  0.5328
 8552TIP3    H147147   0.386   4.340  15.347  0.8993 -1.2351  1.7861
 8552TIP3    H247148   0.266   4.248  15.347 -0.3121  0.2425 -0.4042
 8553TIP3   OH247149   2.302   2.919  10.884  0.0861 -0.1382 -0.0734
 8553TIP3    H147150   2.256   2.868  10.817  1.2655  0.2841 -1.2402
 8553TIP3    H247151   2.266   2.888  10.966 -0.7027 -1.3747 -0.8543
 8554TIP3   OH247152   0.898   2.392  15.657  0.4344 -0.2697 -0.6281
 8554TIP3    H147153   0.985   2.431  15.666  0.3565 -0.1839 -0.2036
 8554TIP3    H247154   0.881   2.391  15.563  0.5710  0.4349 -0.6632
 8555TIP3   OH247155   1.775   0.560   3.779  0.6251  0.1416  0.4033
 8555TIP3    H147156   1.838   0.500   3.819  0.8664  0.0287 -0.1358
 8555TIP3    H247157   1.701   0.504   3.756  0.3171  0.2772  1.0513
 8556TIP3   OH247158   3.491   4.404  14.202 -0.0912  0.0724  0.0133
 8556TIP3    H147159   3.501   4.491  14.164  1.0539  0.8929  2.0800
 8556TIP3    H247160   3.566   4.354  14.168  0.7465  0.7057  0.8913
 8557TIP3   OH247161   3.605   2.255   3.480 -0.2474  0.1296 -0.0489
 8557TIP3    H147162   3.579   2.308   3.404 -1.4016 -0.2122  0.0874
 8557TIP3    H247163   3.700   2.258   3.480 -0.2690  1.5537 -0.5139
 8558TIP3   OH247164   2.166   2.109   3.489  0.3509  0.0175 -0.1256
 8558TIP3    H147165   2.134   2.029   3.447  0.7297  0.7940 -1.9665
 8558TIP3    H247166   2.097   2.132   3.551 -1.0306 -0.3071 -1.4728
 8559TIP3   OH247167   6.725   4.075   2.872  0.3390  0.1665  0.0557
 8559TIP3    H147168   6.739   4.079   2.967 -0.6964  1.3521  0.1787
 8559TIP3    H247169   6.686   3.989   2.857  0.6996 -0.1115  0.6701
 8560TIP3   OH247170   1.827   6.437  16.743 -0.0011  0.4761  0.1591
 8560TIP3    H147171   1.739   6.467  16.721 -0.0951  0.9691  1.1666
 8560TIP3    H247172   1.882   6.515  16.735  0.3183  0.2090 -0.2893
 8561TIP3   OH247173   5.314   6.396  11.215  0.8298 -0.0396 -0.2282
 8561TIP3    H147174   5.267   6.320  11.182 -0.0636 -0.1545  1.2433
 8561TIP3    H247175   5.406   6.371  11.211  0.6279 -0.7189 -0.8790
 8562TIP3   OH247176   3.911   6.781   2.902 -0.0428  0.2998  0.8480
 8562TIP3    H147177   3.976   6.838   2.858  0.4668  0.0532  1.2707
 8562TIP3    H247178   3.964   6.713   2.943 -0.6942 -1.0149 -0.4030
 8563TIP3   OH247179   6.455   4.187   2.297 -0.7017  0.6459  0.0257
 8563TIP3    H147180   6.523   4.251   2.317 -0.5751  0.3075  0.7276
 8563TIP3    H247181   6.503   4.113   2.259 -0.6832  0.4256  0.4776
 8564TIP3   OH247182   0.151   0.378   2.900  0.4272  0.0012  0.1388
 8564TIP3    H147183   0.099   0.313   2.948  0.9795 -0.6686 -0.1669
 8564TIP3    H247184   0.237   0.377   2.943  0.2864  0.9246  0.4769
 8565TIP3   OH247185   6.277   1.604   4.065  0.8227  0.3030 -0.2063
 8565TIP3    H147186   6.360   1.562   4.089 -0.0279 -2.0033 -0.9966
 8565TIP3    H247187   6.216   1.531   4.054 -1.3646  1.9442  0.4464
 8566TIP3   OH247188   4.056   4.279   4.761 -0.4143  0.2119  0.3625
 8566TIP3    H147189   3.961   4.289   4.754 -0.3967 -0.1412 -0.3830
 8566TIP3    H247190   4.082   4.233   4.682  0.5368  1.3227 -0.0084
 8567TIP3   OH247191   4.168   4.158  12.825 -0.5964  0.6284 -0.9468
 8567TIP3    H147192   4.236   4.119  12.770 -1.4934 -0.4056 -1.3649
 8567TIP3    H247193   4.169   4.251  12.804  1.0282  0.7160 -0.5602
 8568TIP3   OH247194   2.808   0.882  14.926  0.0571  0.1563  0.8977
 8568TIP3    H147195   2.764   0.935  14.858 -0.0621  2.5009  2.6617
 8568TIP3    H247196   2.891   0.927  14.941  0.9106 -1.4051  1.0527
 8569TIP3   OH247197   3.543   3.715  16.803  0.8995  0.4598 -0.6266
 8569TIP3    H147198   3.621   3.669  16.773  1.4237 -0.9595  2.4891
 8569TIP3    H247199   3.472   3.652  16.793  1.0681 -0.0020  0.8873
 8570TIP3   OH247200   3.920   3.992  12.803  0.2452 -0.2551 -0.2958
 8570TIP3    H147201   3.835   4.035  12.792 -0.1608 -1.4243 -2.1938
 8570TIP3    H247202   3.970   4.019  12.725  1.2026 -0.5178  0.2103
 8571TIP3   OH247203   5.914   3.334   2.175  0.2083 -0.6258 -0.0554
 8571TIP3    H147204   5.830   3.354   2.216 -0.5709 -0.2456 -1.7663
 8571TIP3    H247205   5.979   3.375   2.233 -0.8804  0.4629  0.4396
 8572TIP3   OH247206   4.868   3.928  11.756 -0.1901 -0.8640  0.4707
 8572TIP3    H147207   4.935   3.927  11.824 -0.1681  0.8268  0.5082
 8572TIP3    H247208   4.830   4.015  11.760 -0.9153 -1.0695 -0.9877
 8573TIP3   OH247209   3.815   0.411  12.514  0.1875 -0.0803 -0.2833
 8573TIP3    H147210   3.892   0.466  12.499  0.3364 -0.2121 -0.0164
 8573TIP3    H247211   3.741   0.472  12.509  0.3004  0.0289 -0.6328
 8574TIP3   OH247212   1.142   4.607   1.454 -0.7071 -0.2479 -0.5441
 8574TIP3    H147213   1.112   4.689   1.414 -1.2859  0.2436  0.8459
 8574TIP3    H247214   1.144   4.625   1.548  0.5771 -1.3846 -0.3198
 8575TIP3   OH247215   5.446   5.193  13.877 -0.8179 -0.1840 -0.4247
 8575TIP3    H147216   5.413   5.217  13.791 -2.4143  0.9349  0.4586
 8575TIP3    H247217   5.485   5.106  13.865 -1.6973 -0.3706 -2.0959
 8576TIP3   OH247218   2.614   1.916  11.727 -0.0680 -0.3367 -0.1692
 8576TIP3    H147219   2.615   1.856  11.652 -1.6153  1.5494 -1.8435
 8576TIP3    H247220   2.686   1.886  11.783 -1.7293 -4.6771 -0.0069
 8577TIP3   OH247221   0.410   0.269   3.931  0.3281 -0.0361  0.3335
 8577TIP3    H147222   0.398   0.180   3.963  0.4364 -0.0338  0.3805
 8577TIP3    H247223   0.346   0.278   3.860  1.7926 -0.8792 -1.1467
 8578TIP3   OH247224   3.122   3.957   2.493 -0.4071  0.4321 -0.5571
 8578TIP3    H147225   3.119   3.992   2.582  1.8810 -0.9349  0.1617
 8578TIP3    H247226   3.155   4.030   2.440  0.3208  0.6271  0.1420
 8579TIP3   OH247227   1.130   0.020  12.913 -0.5812 -0.0968  0.1832
 8579TIP3    H147228   1.224   0.016  12.929 -0.4907  2.1985  0.5403
 8579TIP3    H247229   1.119  -0.007  12.822  0.5972  0.9211 -0.2809
 8580TIP3   OH247230   5.162   2.087   0.950 -0.0579 -0.1905  0.0589
 8580TIP3    H147231   5.185   2.164   1.002 -0.1194  0.4484 -0.8307
 8580TIP3    H247232   5.084   2.114   0.901 -0.6741 -1.1644  0.4734
 8581TIP3   OH247233   2.854   0.146   2.462  0.3681 -0.1160  0.2828
 8581TIP3    H147234   2.873   0.234   2.430 -0.1760  0.3888  1.2888
 8581TIP3    H247235   2.923   0.127   2.525  0.0591 -0.0900  0.6344
 8582TIP3   OH247236   5.914   4.010   1.714 -0.4250  0.5186 -0.4141
 8582TIP3    H147237   5.958   3.948   1.772  0.5529 -0.8292 -2.4921
 8582TIP3    H247238   5.825   4.015   1.749 -0.3670 -1.6004  0.2075
 8583TIP3   OH247239   5.924   3.518  14.324  0.3399  0.0572 -0.5026
 8583TIP3    H147240   5.859   3.455  14.356  0.0324  1.4666  1.9229
 8583TIP3    H247241   5.903   3.600  14.370  2.1028  1.3256 -1.8041
 8584TIP3   OH247242   3.279   0.168  10.962  0.3063 -0.1591  0.0391
 8584TIP3    H147243   3.280   0.224  11.039  2.7085 -2.8409  2.1558
 8584TIP3    H247244   3.203   0.112  10.973  0.7535 -0.6656  0.5991
 8585TIP3   OH247245   1.941   0.156  14.519 -0.3681  0.9366  0.3196
 8585TIP3    H147246   1.940   0.061  14.508  1.6662  0.8135  0.6872
 8585TIP3    H247247   2.026   0.182  14.484  0.4718  2.2108  3.0500
 8586TIP3   OH247248   5.356   1.225   3.242 -0.2093 -0.7198 -0.2432
 8586TIP3    H147249   5.376   1.287   3.172 -0.8192 -0.6354 -0.3438
 8586TIP3    H247250   5.278   1.178   3.212 -1.0074 -0.0838  0.7471
 8587TIP3   OH247251   1.733   3.613  16.846 -0.0675  0.0066  0.2572
 8587TIP3    H147252   1.737   3.663  16.927  0.0471  0.0456  0.2275
 8587TIP3    H247253   1.770   3.528  16.868  0.0174  0.0368  0.2310
 8588TIP3   OH247254   6.385   1.352  15.353  0.1927  0.2648  0.4065
 8588TIP3    H147255   6.310   1.408  15.333 -1.4762 -1.0630  2.5702
 8588TIP3    H247256   6.391   1.351  15.448  1.8181 -1.1492  0.3482
 8589TIP3   OH247257   0.487   3.321  11.546  0.0020  0.5903  0.1453
 8589TIP3    H147258   0.481   3.230  11.515 -0.6889  0.9650 -0.8811
 8589TIP3    H247259   0.451   3.319  11.634  1.0101 -0.3219  0.5573
 8590TIP3   OH247260   3.457   1.902  14.202  0.1301 -0.8490 -0.1025
 8590TIP3    H147261   3.478   1.970  14.265  0.7865  0.7474 -1.9544
 8590TIP3    H247262   3.519   1.832  14.221  0.9596  0.0008  0.4007
 8591TIP3   OH247263   1.846   4.316  14.263  0.2682  0.1610  0.5243
 8591TIP3    H147264   1.763   4.357  14.286  0.5464  0.6270  0.7249
 8591TIP3    H247265   1.883   4.374  14.196 -0.7577 -1.4425 -1.5204
 8592TIP3   OH247266   2.740   5.550  11.122  0.1303 -0.2358 -0.1516
 8592TIP3    H147267   2.798   5.530  11.048 -0.1825  1.9955 -1.0602
 8592TIP3    H247268   2.717   5.642  11.111 -0.2696  0.0591  2.5198
 8593TIP3   OH247269   3.630   6.737  12.903 -0.7000 -0.4899 -0.0970
 8593TIP3    H147270   3.678   6.774  12.978  0.6324 -2.6878  0.2270
 8593TIP3    H247271   3.593   6.655  12.937  0.9302 -2.1500 -2.1024
 8594TIP3   OH247272   1.355   6.106  17.034  0.0482  0.2831  0.3526
 8594TIP3    H147273   1.266   6.092  17.002 -0.0751 -0.4927  1.0037
 8594TIP3    H247274   1.411   6.098  16.956 -0.3513 -0.3542  0.1267
 8595TIP3   OH247275   2.752   4.891  12.664 -0.3391 -0.6366  0.2032
 8595TIP3    H147276   2.662   4.895  12.695  0.1131 -0.4140  1.5961
 8595TIP3    H247277   2.805   4.904  12.743  0.9055  0.2757 -0.7284
 8596TIP3   OH247278   5.468   4.649   3.347 -0.4990 -0.7587 -0.5240
 8596TIP3    H147279   5.377   4.679   3.355  0.0222  1.0387 -0.9592
 8596TIP3    H247280   5.506   4.704   3.279  1.1825 -0.8074  0.3220
 8597TIP3   OH247281   0.843   6.338   0.165  0.3798  0.0496  0.3269
 8597TIP3    H147282   0.844   6.433   0.168 -1.4217  0.1048  0.4648
 8597TIP3    H247283   0.928   6.314   0.129  0.4760  1.7513 -0.6739
 8598TIP3   OH247284   1.116   3.081  16.116  0.2670 -0.2664  0.2105
 8598TIP3    H147285   1.028   3.117  16.130 -1.2016 -1.8983 -3.5477
 8598TIP3    H247286   1.161   3.148  16.065  0.5071 -0.2762  0.4087
 8599TIP3   OH247287   4.826   0.877  14.637  0.5067 -0.4111 -0.0719
 8599TIP3    H147288   4.793   0.815  14.702  0.0112  1.5883  1.6934
 8599TIP3    H247289   4.806   0.963  14.674  0.7338  0.8304 -2.6355
 8600TIP3   OH247290   3.962   3.546   6.006  0.4073 -0.2047  0.0859
 8600TIP3    H147291   3.901   3.507   6.069 -1.0151 -1.9360 -2.1924
 8600TIP3    H247292   3.966   3.638   6.030 -0.8407 -0.6149  2.0727
 8601TIP3   OH247293   1.271   2.725   5.840  0.4386 -0.2106  0.0387
 8601TIP3    H147294   1.340   2.778   5.878 -0.2800 -0.2234  1.4226
 8601TIP3    H247295   1.276   2.743   5.746  0.1637  2.3883  0.4406
 8602TIP3   OH247296   6.317   5.946  12.058 -0.4489 -0.1912 -0.3993
 8602TIP3    H147297   6.345   6.021  12.005 -0.5316  2.3378  2.8421
 8602TIP3    H247298   6.285   5.984  12.140 -4.1217 -3.5746  0.0407
 8603TIP3   OH247299   5.705   5.692   5.520  0.2148  0.0624 -0.1908
 8603TIP3    H147300   5.695   5.776   5.564 -1.2856 -0.0259 -0.3384
 8603TIP3    H247301   5.655   5.631   5.574 -0.1557 -0.3953 -1.0398
 8604TIP3   OH247302   0.463   3.050  11.509 -0.2155 -0.0500  0.3644
 8604TIP3    H147303   0.538   3.005  11.549 -0.0381  1.2369  1.6018
 8604TIP3    H247304   0.457   3.014  11.421  1.9005 -0.1595  0.2103
 8605TIP3   OH247305   4.370   3.269   0.071  0.1950 -0.1770 -0.0502
 8605TIP3    H147306   4.439   3.263   0.138  0.4872  0.1268 -0.3165
 8605TIP3    H247307   4.302   3.209   0.101  0.1245  0.2801  0.7550
 8606TIP3   OH247308   5.935   4.118  13.565  0.4197  0.4536 -0.0907
 8606TIP3    H147309   5.850   4.124  13.608 -0.8898 -0.4965 -2.3789
 8606TIP3    H247310   5.955   4.207  13.538  1.2006  1.0485  2.1726
 8607TIP3   OH247311   2.846   6.433  11.633  0.3060 -0.4330 -0.4255
 8607TIP3    H147312   2.920   6.489  11.655 -0.4954  0.2947  0.5173
 8607TIP3    H247313   2.879   6.376  11.563  1.5895  0.2031 -0.3709
 8608TIP3   OH247314   6.198   2.786   6.063 -0.5999  0.3883 -0.0458
 8608TIP3    H147315   6.146   2.726   6.010 -0.3445 -1.5672  1.7839
 8608TIP3    H247316   6.133   2.837   6.112 -0.8629 -1.1570  1.2801
 8609TIP3   OH247317   0.754   1.064  13.151 -0.7237  0.4226 -0.7304
 8609TIP3    H147318   0.660   1.043  13.153 -0.7132  0.3636  1.1218
 8609TIP3    H247319   0.765   1.132  13.218  0.5806  0.3180 -0.8101
 8610TIP3   OH247320   3.887   2.300   0.802 -0.4104 -0.1450 -0.3498
 8610TIP3    H147321   3.804   2.317   0.847  0.2279 -0.5131  0.9900
 8610TIP3    H247322   3.901   2.206   0.811  1.9743  0.3506  2.7909
 8611TIP3   OH247323   3.059   2.647  12.198 -0.0302  0.0034  0.7821
 8611TIP3    H147324   3.133   2.669  12.142 -0.1741 -1.3681 -0.0098
 8611TIP3    H247325   2.992   2.616  12.137 -0.5697 -0.5323  1.6346
 8612TIP3   OH247326   3.468   2.973   4.395 -0.0558 -0.6368  0.1454
 8612TIP3    H147327   3.510   2.998   4.478  0.1643  0.5199 -0.2912
 8612TIP3    H247328   3.443   3.056   4.355  0.3621 -1.1403 -1.2172
 8613TIP3   OH247329   6.731   6.210   1.927 -0.1332 -0.7128 -0.1065
 8613TIP3    H147330   6.743   6.296   1.967 -0.4238 -0.6227 -0.2105
 8613TIP3    H247331   6.760   6.223   1.836 -2.8707  0.0637 -0.9668
 8614TIP3   OH247332   0.429   6.633  15.675  0.1370 -0.5003  0.9840
 8614TIP3    H147333   0.520   6.661  15.672 -0.1584  0.5170  1.1139
 8614TIP3    H247334   0.379   6.714  15.687 -0.9468 -0.7683 -1.1795
 8615TIP3   OH247335   1.163   1.619  15.366 -0.2323  0.0237 -0.1265
 8615TIP3    H147336   1.180   1.713  15.367 -0.2152  0.0209 -0.1784
 8615TIP3    H247337   1.249   1.579  15.376 -0.4545  0.0342  2.4228
 8616TIP3   OH247338   0.041   1.117   2.365  0.2051  0.1958 -0.6558
 8616TIP3    H147339  -0.044   1.147   2.333 -0.0656  1.1104  0.7960
 8616TIP3    H247340   0.027   1.026   2.390 -1.0352  0.9192  1.6156
 8617TIP3   OH247341   3.226   5.022  15.852  0.1464 -0.5391 -0.2630
 8617TIP3    H147342   3.297   5.082  15.875  0.6142 -0.9198 -0.6961
 8617TIP3    H247343   3.147   5.064  15.887  0.3929  0.5661 -0.9706
 8618TIP3   OH247344   1.626   5.537   0.688  0.1690 -0.1720  0.2958
 8618TIP3    H147345   1.625   5.445   0.661 -3.1233  0.1379 -1.1425
 8618TIP3    H247346   1.646   5.534   0.781  0.6781 -2.3025  0.1727
 8619TIP3   OH247347   4.966   3.445  14.298 -0.4121  0.5979  0.2855
 8619TIP3    H147348   4.899   3.428  14.365 -0.9437  0.3266 -0.3096
 8619TIP3    H247349   5.033   3.378  14.315 -0.2929  0.8591  0.8731
 8620TIP3   OH247350   3.174   2.002   5.327  0.2169 -0.6067 -0.4655
 8620TIP3    H147351   3.141   2.014   5.416  0.1259 -0.6721 -0.4914
 8620TIP3    H247352   3.103   2.032   5.271  0.3468 -0.3834 -0.5130
 8621TIP3   OH247353   4.860   2.704   5.432  0.2662 -0.2417 -0.0298
 8621TIP3    H147354   4.879   2.783   5.482 -0.4995 -0.1609  0.1376
 8621TIP3    H247355   4.922   2.707   5.358 -0.9502  1.4543 -1.0538
 8622TIP3   OH247356   2.248   6.485  15.612  0.2375 -0.3566  0.2541
 8622TIP3    H147357   2.157   6.457  15.623 -0.2154  0.5426 -0.9137
 8622TIP3    H247358   2.247   6.537  15.531  1.5128  0.8054  0.9383
 8623TIP3   OH247359   3.763   5.682  13.164 -0.3355  0.1261 -0.0883
 8623TIP3    H147360   3.753   5.598  13.118 -0.6159 -1.0670  1.9967
 8623TIP3    H247361   3.673   5.714  13.174 -0.2866  0.3222 -0.2967
 8624TIP3   OH247362   1.651   1.125   3.754 -0.1238 -0.2520  0.3251
 8624TIP3    H147363   1.690   1.135   3.667  0.1948  2.5938  0.7028
 8624TIP3    H247364   1.661   1.032   3.775  2.2053 -0.5022 -1.5466
 8625TIP3   OH247365   5.971   3.293   3.964  0.3823  0.0375 -0.2783
 8625TIP3    H147366   6.050   3.320   4.011  0.5091 -0.3720 -0.2544
 8625TIP3    H247367   5.993   3.207   3.926  0.3063  0.3875 -1.1423
 8626TIP3   OH247368   2.767   0.390  16.505 -0.0105 -0.0715  0.4616
 8626TIP3    H147369   2.814   0.323  16.455  0.6415  2.4331 -2.6685
 8626TIP3    H247370   2.681   0.395  16.461 -0.4662  0.3884  1.3904
 8627TIP3   OH247371   1.711   0.662   4.062  0.5561  0.4439  0.3007
 8627TIP3    H147372   1.681   0.739   4.110  0.4876  1.4275 -1.2711
 8627TIP3    H247373   1.649   0.652   3.990  0.3959 -1.2708  0.6379
 8628TIP3   OH247374   0.874   3.709   2.300  0.1145 -0.6735 -0.5871
 8628TIP3    H147375   0.944   3.671   2.353 -2.0444 -1.4540  1.9391
 8628TIP3    H247376   0.894   3.803   2.299  1.0115 -0.8218  0.4247
 8629TIP3   OH247377   4.036   2.559  16.861  0.9195 -0.1848 -0.1774
 8629TIP3    H147378   3.963   2.528  16.915  0.9451 -0.1286 -0.1103
 8629TIP3    H247379   4.109   2.501  16.883  0.7852 -0.4946 -0.5372
 8630TIP3   OH247380   4.118   2.483   4.682 -0.5020 -0.1636 -0.0402
 8630TIP3    H147381   4.186   2.512   4.743  0.8107 -2.3684 -0.3308
 8630TIP3    H247382   4.060   2.559   4.672  0.6002  1.0455  2.0317
 8631TIP3   OH247383   2.003   4.126   2.233 -0.5227 -0.6326 -0.0511
 8631TIP3    H147384   2.089   4.084   2.239 -1.0307 -1.6587  0.2590
 8631TIP3    H247385   1.988   4.137   2.139  1.5663  3.0689 -0.1470
 8632TIP3   OH247386   2.814   4.327   1.893 -0.3338  0.2549  0.1371
 8632TIP3    H147387   2.777   4.414   1.906 -2.7355 -0.7011  0.1639
 8632TIP3    H247388   2.793   4.305   1.803 -0.8664 -0.7722  0.4966
 8633TIP3   OH247389   2.177   2.820  11.109 -0.5117  0.5483  0.1137
 8633TIP3    H147390   2.164   2.730  11.137 -1.7906  1.0483  1.2087
 8633TIP3    H247391   2.093   2.863  11.124 -0.5570  1.4625 -2.2618
 8634TIP3   OH247392   4.683   6.191  15.624 -0.3757 -0.5232  0.0422
 8634TIP3    H147393   4.625   6.132  15.672 -0.4800 -0.4660 -0.0139
 8634TIP3    H247394   4.711   6.141  15.548  2.2347 -1.7940  1.6704
 8635TIP3   OH247395   1.325   3.208  16.295  0.1919  0.2686  0.1634
 8635TIP3    H147396   1.256   3.227  16.359  0.6543  2.5995  0.0872
 8635TIP3    H247397   1.295   3.253  16.216  0.6431 -0.7969 -0.6297
 8636TIP3   OH247398   5.229   1.799   5.423 -0.9192  0.3162  0.5268
 8636TIP3    H147399   5.286   1.816   5.347 -2.8725 -0.1063 -1.1041
 8636TIP3    H247400   5.282   1.826   5.498  0.9073  1.2598 -0.9990
 8637TIP3   OH247401   4.495   2.693   1.663  1.2244 -0.1419  0.8026
 8637TIP3    H147402   4.577   2.645   1.672  0.3665 -2.0539 -1.0075
 8637TIP3    H247403   4.492   2.718   1.571  0.4984  1.3383  1.1998
 8638TIP3   OH247404   1.627   1.068   1.822  0.1480 -0.5258 -0.7619
 8638TIP3    H147405   1.615   0.992   1.879 -1.7872 -0.0350 -0.4260
 8638TIP3    H247406   1.674   1.132   1.876 -1.0468 -0.3287  0.0923
 8639TIP3   OH247407   3.319   2.625   2.299  0.1640  0.0484  0.1583
 8639TIP3    H147408   3.356   2.603   2.384  1.6585  0.2714 -0.4029
 8639TIP3    H247409   3.365   2.569   2.237 -0.1143  0.6515 -0.6212
 8640TIP3   OH247410   5.489   6.039   1.607 -0.0857 -0.4292 -0.1201
 8640TIP3    H147411   5.536   6.119   1.582  0.4593 -0.1854  1.5302
 8640TIP3    H247412   5.417   6.070   1.662 -1.2021 -0.9343 -1.2518
 8641TIP3   OH247413   1.974   1.007  16.126  0.4043 -0.6610  0.4425
 8641TIP3    H147414   1.927   0.932  16.161  0.2285 -1.1116 -0.6975
 8641TIP3    H247415   1.972   1.072  16.196  3.2543 -2.7638  2.7201
 8642TIP3   OH247416   3.221   4.490  17.112  0.3606  0.4165  0.0966
 8642TIP3    H147417   3.169   4.471  17.191 -0.2384  1.8102  0.0611
 8642TIP3    H247418   3.167   4.552  17.063  0.8714 -0.1868 -1.2760
 8643TIP3   OH247419   0.179   1.343   3.177 -0.1347  0.2835 -0.4088
 8643TIP3    H147420   0.142   1.271   3.127 -2.0190  1.6033 -0.9790
 8643TIP3    H247421   0.185   1.309   3.267 -0.2170 -0.8411 -0.8179
 8644TIP3   OH247422   5.298   2.875   0.648  0.1993  0.4409 -0.3769
 8644TIP3    H147423   5.236   2.939   0.682 -0.0192 -0.0539  0.1802
 8644TIP3    H247424   5.367   2.927   0.608  0.3955  1.0593  0.7142
 8645TIP3   OH247425   3.341   5.636   5.358  0.2313  0.1136  0.2623
 8645TIP3    H147426   3.365   5.723   5.390  0.0132  0.5887 -0.8376
 8645TIP3    H247427   3.398   5.621   5.282  0.0620 -0.5831  0.2617
 8646TIP3   OH247428   5.263   5.207  12.166  0.4434  0.5009  0.5483
 8646TIP3    H147429   5.270   5.137  12.101 -1.6274 -0.0489  0.8448
 8646TIP3    H247430   5.291   5.286  12.121 -0.6258  0.0741 -0.9193
 8647TIP3   OH247431   0.951   3.199  11.886 -0.2332 -0.5436 -0.4001
 8647TIP3    H147432   0.950   3.181  11.792  1.2050  3.6597 -1.4609
 8647TIP3    H247433   0.859   3.198  11.912 -0.6611 -1.7351 -1.8383
 8648TIP3   OH247434   6.624   1.073  11.741  0.5779 -0.1760 -0.2054
 8648TIP3    H147435   6.715   1.100  11.741  1.2591 -2.2577  1.0271
 8648TIP3    H247436   6.577   1.147  11.780  1.8189  0.6302 -0.1762
 8649TIP3   OH247437   0.910   0.147  14.728 -0.4554 -0.2868 -0.7260
 8649TIP3    H147438   0.924   0.072  14.786  1.3813  1.4920  1.3046
 8649TIP3    H247439   0.946   0.119  14.644  1.5377 -1.2295  0.3715
 8650TIP3   OH247440   3.143   4.171   4.661 -0.1554  0.2778  0.4596
 8650TIP3    H147441   3.238   4.177   4.656  0.1142 -2.7864  0.3406
 8650TIP3    H247442   3.120   4.224   4.738  1.7890 -0.0155  1.3093
 8651TIP3   OH247443   0.078   2.896   5.408  0.2492 -0.2788 -0.3075
 8651TIP3    H147444   0.119   2.957   5.346  0.3166 -0.3111 -0.2943
 8651TIP3    H247445   0.148   2.873   5.469  0.0810  0.0677  0.0199
 8652TIP3   OH247446   5.048   3.106   4.863  0.3265  0.1116 -0.0728
 8652TIP3    H147447   5.087   3.059   4.937 -1.1813  1.1996  1.4924
 8652TIP3    H247448   4.972   3.054   4.839  0.2540  0.2730 -0.1922
 8653TIP3   OH247449   6.105   5.128  14.225 -0.8506 -0.5460  0.4166
 8653TIP3    H147450   6.161   5.119  14.303  0.0525  1.7180  0.1014
 8653TIP3    H247451   6.083   5.221  14.222 -0.8871 -0.5778 -2.0021
 8654TIP3   OH247452   3.592   2.082   2.363  0.1721 -0.1004  0.3722
 8654TIP3    H147453   3.663   2.113   2.419  0.7695  1.2647 -1.0762
 8654TIP3    H247454   3.537   2.159   2.350  0.9078  0.0959 -2.1503
 8655TIP3   OH247455   3.532   1.621   3.073 -0.6153 -0.8751 -0.4680
 8655TIP3    H147456   3.575   1.655   2.994 -1.2693  1.2016  0.0045
 8655TIP3    H247457   3.588   1.549   3.101  0.2652 -0.9140 -2.1612
 8656TIP3   OH247458   6.388   0.072   1.210 -0.3207  0.2594 -0.1969
 8656TIP3    H147459   6.337  -0.006   1.188 -1.0696  0.5134  0.6009
 8656TIP3    H247460   6.383   0.127   1.132 -0.9917  0.1309 -0.2510
 8657TIP3   OH247461   1.869   4.050   0.515  0.1515  0.0229 -0.3334
 8657TIP3    H147462   1.878   3.977   0.577 -0.0922 -0.9799 -1.4540
 8657TIP3    H247463   1.843   4.125   0.570 -1.4087 -1.1451  0.6073
 8658TIP3   OH247464   2.833   2.754  15.666 -0.2449  0.0099  0.4692
 8658TIP3    H147465   2.766   2.733  15.731 -1.7452 -0.0285 -1.0223
 8658TIP3    H247466   2.815   2.845  15.643  0.6263  0.1955  0.5076
 8659TIP3   OH247467   6.676   6.349  12.563 -0.2567 -0.7573  0.2447
 8659TIP3    H147468   6.766   6.363  12.591 -0.2810 -0.6798  0.2821
 8659TIP3    H247469   6.679   6.354  12.467 -0.6697  1.9062  0.3183
 8660TIP3   OH247470   5.049   2.218   0.196 -0.6654 -0.4765 -0.5951
 8660TIP3    H147471   5.090   2.234   0.111 -0.8946  2.3545 -0.2777
 8660TIP3    H247472   4.957   2.201   0.176 -1.1968  2.3194 -0.9084
 8661TIP3   OH247473   1.938   6.176  15.041  0.7466  0.5173 -0.1871
 8661TIP3    H147474   2.013   6.119  15.022 -0.6718 -2.0952  1.3872
 8661TIP3    H247475   1.927   6.170  15.136 -2.1657 -0.3187 -0.4715
 8662TIP3   OH247476   6.499   4.094   4.622 -0.0362 -0.0292  0.1973
 8662TIP3    H147477   6.483   4.044   4.702 -1.2815 -0.4826 -0.3060
 8662TIP3    H247478   6.581   4.059   4.588  0.2772 -0.1383  1.0375
 8663TIP3   OH247479   4.037   3.300  12.711  0.0122  0.2635  0.3057
 8663TIP3    H147480   3.965   3.363  12.715 -1.6516 -1.5310  0.2758
 8663TIP3    H247481   4.063   3.289  12.803  0.8215  1.4794  0.2511
 8664TIP3   OH247482   6.739   3.175  13.295  0.0562 -0.0341  0.0599
 8664TIP3    H147483   6.733   3.271  13.301  3.2876  0.3967 -1.4970
 8664TIP3    H247484   6.741   3.157  13.201  0.2444 -1.5909  0.3347
 8665TIP3   OH247485   1.554   2.985  13.694 -0.0781 -0.4184  0.5599
 8665TIP3    H147486   1.471   3.027  13.715  0.1018  0.7120 -0.7977
 8665TIP3    H247487   1.621   3.043  13.730  0.1532 -1.3491  1.6913
 8666TIP3   OH247488   2.154   5.829   2.650  0.4363 -0.2127  0.1823
 8666TIP3    H147489   2.196   5.794   2.571  1.5868  0.3483  0.5156
 8666TIP3    H247490   2.218   5.815   2.719  0.6403  1.8317  0.4714
 8667TIP3   OH247491   4.267   3.560   2.080  0.2257 -0.9537 -0.0431
 8667TIP3    H147492   4.341   3.572   2.141  0.6419 -1.2052 -0.4920
 8667TIP3    H247493   4.277   3.471   2.048 -0.7604 -1.2759  0.5117
 8668TIP3   OH247494   0.747   5.500   0.697 -0.1619  0.0625  0.3331
 8668TIP3    H147495   0.676   5.557   0.727 -0.6297 -0.2299 -0.1980
 8668TIP3    H247496   0.741   5.423   0.755  1.0102  0.8898  1.6144
 8669TIP3   OH247497   5.936   3.169  16.718  0.2360  0.4244 -0.2643
 8669TIP3    H147498   6.010   3.114  16.746 -1.4860 -0.8481  2.1495
 8669TIP3    H247499   5.887   3.113  16.657  0.8590  1.0337 -1.3620
 8670TIP3   OH247500   1.333   5.047   4.855  0.2632  0.7913  0.3411
 8670TIP3    H147501   1.400   4.989   4.892 -1.3459  0.3979  2.8696
 8670TIP3    H247502   1.380   5.127   4.831  1.7905  0.1356  1.0587
 8671TIP3   OH247503   6.815   1.068   0.602  0.0900  0.2428  0.4190
 8671TIP3    H147504   6.867   1.137   0.642  1.1290 -0.7151  0.7727
 8671TIP3    H247505   6.844   1.065   0.511  1.4077 -0.9313  0.8416
 8672TIP3   OH247506   3.809   1.220  16.917  0.0292  0.0908  0.2647
 8672TIP3    H147507   3.718   1.223  16.889  0.6891  0.3268 -2.1593
 8672TIP3    H247508   3.846   1.145  16.870  1.2483  0.4466  0.6072
 8673TIP3   OH247509   6.262   2.074   5.463 -0.0206  0.2696  0.1531
 8673TIP3    H147510   6.304   2.159   5.471  0.3441 -0.0133  1.4633
 8673TIP3    H247511   6.277   2.031   5.547  0.6720 -1.4872 -0.7942
 8674TIP3   OH247512   0.936   3.789   1.152  0.7454 -0.5265 -0.3274
 8674TIP3    H147513   0.972   3.876   1.168  1.8450 -0.8591 -0.8520
 8674TIP3    H247514   1.000   3.729   1.190  2.0983 -1.2384 -3.3853
 8675TIP3   OH247515   4.566   0.703  10.334  0.4452  0.5334  0.2764
 8675TIP3    H147516   4.640   0.731  10.389 -0.8884 -0.8960  3.0417
 8675TIP3    H247517   4.489   0.715  10.390 -0.7151 -3.9937  0.0557
 8676TIP3   OH247518   5.191   5.960  15.769 -0.0976  0.7298  0.3478
 8676TIP3    H147519   5.211   5.893  15.834  2.8175  0.2166 -0.9581
 8676TIP3    H247520   5.241   6.037  15.797 -0.9067  1.3646  0.0990
 8677TIP3   OH247521   4.677   5.458   3.777  0.0196 -0.1536 -0.1823
 8677TIP3    H147522   4.754   5.420   3.735  1.6370  0.4624  2.0387
 8677TIP3    H247523   4.616   5.475   3.705  2.4073  0.3778 -2.2091
 8678TIP3   OH247524   4.457   5.181   3.041 -0.3294  0.0579  0.2740
 8678TIP3    H147525   4.401   5.128   2.984  0.2289 -0.4730  0.2047
 8678TIP3    H247526   4.543   5.138   3.037 -0.4069 -0.3202  1.9553
 8679TIP3   OH247527   2.605   2.030   0.573  0.4675 -0.0316 -0.0763
 8679TIP3    H147528   2.604   2.061   0.663  1.3981  1.5123 -0.5683
 8679TIP3    H247529   2.515   2.001   0.557 -0.0311  0.8946  0.9370
 8680TIP3   OH247530   5.227   3.543   4.980 -0.2993  0.6253 -0.2488
 8680TIP3    H147531   5.265   3.627   5.003 -0.9859  0.5672  1.2203
 8680TIP3    H247532   5.212   3.499   5.065 -3.0192  0.4002 -0.7465
 8681TIP3   OH247533   0.530   5.516   6.060 -0.0782 -0.2281 -0.1518
 8681TIP3    H147534   0.616   5.474   6.068 -0.7073 -1.4346  0.6526
 8681TIP3    H247535   0.525   5.573   6.137  0.0513 -0.0330 -0.2850
 8682TIP3   OH247536   4.568   6.320  15.984  0.4647  0.1532 -0.2508
 8682TIP3    H147537   4.598   6.353  16.069 -0.4022  1.4758 -0.4374
 8682TIP3    H247538   4.475   6.301  15.998  0.7210 -1.3683 -0.4203
 8683TIP3   OH247539   4.331   1.402   0.290  0.5848  0.0809  0.2969
 8683TIP3    H147540   4.333   1.370   0.199  0.9608  0.2443  0.2428
 8683TIP3    H247541   4.409   1.364   0.330  0.7530  0.5058  0.3783
 8684TIP3   OH247542   0.541   3.498  11.817 -0.8690  0.3542 -0.3175
 8684TIP3    H147543   0.611   3.511  11.753 -1.4614 -0.1755 -1.0960
 8684TIP3    H247544   0.519   3.405  11.810 -1.7524  0.5426 -0.1925
 8685TIP3   OH247545   5.753   1.950  13.487  0.0314 -1.2396 -0.1126
 8685TIP3    H147546   5.669   1.962  13.531 -0.3347  1.3095 -1.3210
 8685TIP3    H247547   5.746   2.002  13.407  2.9315 -0.5211 -0.0232
 8686TIP3   OH247548   1.126   2.412   0.490 -0.5734  0.7344 -0.1924
 8686TIP3    H147549   1.211   2.455   0.496 -0.9071  1.1832  2.6819
 8686TIP3    H247550   1.085   2.450   0.412  2.9093 -1.7295 -3.6350
 8687TIP3   OH247551   1.271   3.042   5.693 -0.1702 -0.6761 -0.2483
 8687TIP3    H147552   1.308   3.012   5.776  0.7337  0.3942 -0.2473
 8687TIP3    H247553   1.209   3.110   5.717  0.1400 -0.3193 -0.4463
 8688TIP3   OH247554   3.030   6.747   1.175 -0.0295  0.3461 -0.9325
 8688TIP3    H147555   2.981   6.673   1.140 -1.0324  0.8509 -0.6507
 8688TIP3    H247556   2.963   6.803   1.215  0.9417  0.2888  0.8913
 8689TIP3   OH247557   6.480   1.180   2.720 -0.2777 -0.6651  0.3203
 8689TIP3    H147558   6.467   1.162   2.814  0.0432 -1.1282  0.2814
 8689TIP3    H247559   6.536   1.108   2.690  1.1384  0.4586  0.1664
 8690TIP3   OH247560   4.390   4.213   4.610  0.0306  0.3172  0.2543
 8690TIP3    H147561   4.369   4.176   4.695 -0.7298  3.1090  1.4041
 8690TIP3    H247562   4.484   4.230   4.613  0.1564 -0.3660  0.1962
 8691TIP3   OH247563   3.653   6.577  15.976  0.2691 -0.2263 -0.2827
 8691TIP3    H147564   3.636   6.499  16.027  0.4055  0.8472  1.4663
 8691TIP3    H247565   3.749   6.583  15.972  0.2609 -0.2988 -0.6743
 8692TIP3   OH247566   2.319   3.458  13.103  0.1162 -0.1130 -0.3185
 8692TIP3    H147567   2.305   3.507  13.184 -0.8148 -0.3786 -0.3098
 8692TIP3    H247568   2.326   3.367  13.131 -0.7499 -0.2681 -0.5743
 8693TIP3   OH247569   6.367   4.098   3.605  0.4084 -0.0501 -0.1552
 8693TIP3    H147570   6.363   4.009   3.569 -2.4702 -0.1194  0.0636
 8693TIP3    H247571   6.370   4.086   3.700 -0.1391  0.0684 -0.1199
 8694TIP3   OH247572   6.235   4.415   1.403 -0.2275  0.1467  0.2944
 8694TIP3    H147573   6.321   4.384   1.375  0.1530  1.1226  0.3254
 8694TIP3    H247574   6.249   4.447   1.492 -0.4741  0.8238  0.1015
 8695TIP3   OH247575   4.021   6.405   1.952 -0.7722 -0.4106 -0.6390
 8695TIP3    H147576   4.023   6.422   2.046  0.3524  0.0881 -0.7433
 8695TIP3    H247577   4.073   6.326   1.940  1.2696  0.9175 -1.0857
 8696TIP3   OH247578   3.573   6.545  13.408  0.1925 -0.2206  0.0622
 8696TIP3    H147579   3.648   6.493  13.438  3.0460  1.4577 -3.4052
 8696TIP3    H247580   3.596   6.635  13.431 -1.6019  0.2150  0.3003
 8697TIP3   OH247581   0.924   1.856   5.656  0.0615  0.4901 -0.4049
 8697TIP3    H147582   0.989   1.879   5.722  1.2092 -1.8101 -0.6290
 8697TIP3    H247583   0.918   1.934   5.601  2.6613  0.8248 -0.3682
 8698TIP3   OH247584   0.080   5.001  12.765 -0.5126  0.3707  0.1083
 8698TIP3    H147585   0.079   4.963  12.677 -0.7706  0.6546 -0.0145
 8698TIP3    H247586   0.108   5.091  12.752  0.3652  0.1538  0.4316
 8699TIP3   OH247587   4.997   2.430   3.568  0.6164  0.2139 -0.1285
 8699TIP3    H147588   4.976   2.510   3.520  0.7205 -0.1210 -0.7482
 8699TIP3    H247589   4.916   2.405   3.611  0.5297  0.5353 -0.1067
 8700TIP3   OH247590   6.506   0.754   1.446 -0.7550 -0.2671  0.6512
 8700TIP3    H147591   6.472   0.843   1.437 -0.6483 -0.1862  1.0386
 8700TIP3    H247592   6.525   0.726   1.356 -1.2546 -0.0830  0.4871
 8701TIP3   OH247593   1.137   4.285  10.992  0.0527  0.0180 -0.3057
 8701TIP3    H147594   1.214   4.329  11.029 -1.4127  1.3526  1.3448
 8701TIP3    H247595   1.123   4.210  11.049  0.1747 -0.2809 -0.6660
 8702TIP3   OH247596   1.796   4.298  13.253 -0.1228 -0.3425  0.2583
 8702TIP3    H147597   1.752   4.345  13.182 -0.6021 -0.8459  0.2193
 8702TIP3    H247598   1.831   4.368  13.309 -2.0255  0.1166  0.9773
 8703TIP3   OH247599   5.681   0.041   5.913  0.0889 -0.2135  0.5626
 8703TIP3    H147600   5.635   0.125   5.906  0.8426  0.2776  1.3199
 8703TIP3    H247601   5.739   0.052   5.988  2.6640 -0.1890 -1.2948
 8704TIP3   OH247602   2.412   4.005   5.612 -0.3857 -0.0617 -0.3040
 8704TIP3    H147603   2.410   4.100   5.619  1.2714  0.0962 -1.5171
 8704TIP3    H247604   2.369   3.986   5.529  1.0927 -0.1920 -1.0715
 8705TIP3   OH247605   5.978   0.066  11.518 -0.5910  0.3959 -0.0763
 8705TIP3    H147606   5.916   0.067  11.591 -0.5448 -0.4623 -0.0162
 8705TIP3    H247607   5.960  -0.017  11.473 -1.3639  1.3933 -1.6910
 8706TIP3   OH247608   1.786   0.160  16.946 -0.1238  0.1490  0.0385
 8706TIP3    H147609   1.826   0.073  16.944  0.4196  0.3887  0.3047
 8706TIP3    H247610   1.857   0.220  16.921  0.0090  0.6871  1.5896
 8707TIP3   OH247611   2.857   2.213  12.143  0.2056  0.4301  0.3513
 8707TIP3    H147612   2.802   2.152  12.194  1.6741 -0.3641  1.0401
 8707TIP3    H247613   2.866   2.289  12.200 -0.3232  0.6506  0.1510
 8708TIP3   OH247614   4.439   2.738  15.877 -0.2447 -0.3174 -0.1315
 8708TIP3    H147615   4.480   2.738  15.964 -3.1335 -1.2938  1.3741
 8708TIP3    H247616   4.510   2.720  15.817  1.4365 -2.7969  2.3467
 8709TIP3   OH247617   3.442   3.696  13.454 -0.3240 -0.2173  0.0571
 8709TIP3    H147618   3.404   3.668  13.371 -0.3760  0.8492 -0.2901
 8709TIP3    H247619   3.401   3.780  13.473  1.7680  0.9484 -0.2787
 8710TIP3   OH247620   0.668   0.731   1.757  0.5170 -0.1062 -0.0106
 8710TIP3    H147621   0.595   0.792   1.762 -0.1033 -0.8196 -0.3320
 8710TIP3    H247622   0.664   0.681   1.838 -0.4477 -1.3659 -0.8025
 8711TIP3   OH247623   1.462   3.894   3.276 -1.0037 -0.5390  0.2815
 8711TIP3    H147624   1.454   3.889   3.181 -2.5879 -1.4402  0.4404
 8711TIP3    H247625   1.553   3.919   3.290 -0.9348  0.3801 -1.4829
 8712TIP3   OH247626   0.655   1.527   6.693  0.2869  0.2411 -0.1300
 8712TIP3    H147627   0.654   1.455   6.756  1.9606  0.3503  0.0551
 8712TIP3    H247628   0.730   1.509   6.637 -0.2871  0.9514 -1.1652
 8713TIP3   OH247629   0.615   3.119   0.960 -0.9667 -0.0963  0.0379
 8713TIP3    H147630   0.593   3.157   0.875  1.4312 -0.6495 -0.9197
 8713TIP3    H247631   0.668   3.042   0.938 -0.1232 -0.1368  2.0207
 8714TIP3   OH247632   0.865   2.731   4.960  0.4870 -0.0485 -0.6765
 8714TIP3    H147633   0.892   2.762   4.873 -1.1725 -0.7087 -1.4615
 8714TIP3    H247634   0.772   2.753   4.965  0.6303  0.2674  1.0935
 8715TIP3   OH247635   6.656   0.303   4.859 -0.0593  0.1142 -0.0391
 8715TIP3    H147636   6.743   0.278   4.890  0.4292  2.1815  0.3821
 8715TIP3    H247637   6.662   0.299   4.764  0.7549  0.9774 -0.0383
 8716TIP3   OH247638   4.044   6.492   3.566 -0.1298  0.7101  0.6269
 8716TIP3    H147639   4.026   6.398   3.569 -0.9694  0.8802  2.6628
 8716TIP3    H247640   4.096   6.509   3.645 -0.7091  2.0727  0.7476
 8717TIP3   OH247641   1.750   5.475   3.593  0.3543 -0.1873  0.0021
 8717TIP3    H147642   1.756   5.405   3.529  1.2877 -0.0392 -0.0883
 8717TIP3    H247643   1.660   5.508   3.585  0.4551 -0.1725 -1.2179
 8718TIP3   OH247644   3.749   3.219   0.245 -0.4025  0.2149 -0.1939
 8718TIP3    H147645   3.793   3.203   0.162 -2.3978 -0.1201 -1.2654
 8718TIP3    H247646   3.738   3.314   0.248 -0.4657  0.2169 -0.4147
 8719TIP3   OH247647   6.329   6.620   4.999 -0.0073 -0.4125 -0.3257
 8719TIP3    H147648   6.398   6.687   5.001 -1.6988  1.4382  1.2313
 8719TIP3    H247649   6.281   6.637   4.918 -0.3558  0.2373  0.0052
 8720TIP3   OH247650   1.888   6.151   5.945 -0.2549  0.0832 -0.1358
 8720TIP3    H147651   1.916   6.111   5.862  1.3422 -0.9680  0.8528
 8720TIP3    H247652   1.878   6.077   6.005 -0.8908  0.8678  0.7521
 8721TIP3   OH247653   2.077   0.246   4.460  0.2467  0.0089 -0.0513
 8721TIP3    H147654   2.041   0.231   4.548  0.6067 -0.8325 -0.0402
 8721TIP3    H247655   2.081   0.341   4.452 -1.1275  0.1083  0.2878
 8722TIP3   OH247656   4.293   6.818  15.103 -0.1400  0.0149  0.0461
 8722TIP3    H147657   4.311   6.768  15.183  0.0334 -0.4203 -0.2627
 8722TIP3    H247658   4.341   6.772  15.035 -0.4316  0.2817 -0.3421
 8723TIP3   OH247659   1.143   0.857  13.031 -0.1105  0.2641  0.5018
 8723TIP3    H147660   1.226   0.902  13.043  0.2382  0.0752 -0.9400
 8723TIP3    H247661   1.167   0.764  13.022 -0.3708  0.2883 -0.6466
 8724TIP3   OH247662   5.164   5.742  12.874  0.2559 -0.4496  0.3833
 8724TIP3    H147663   5.227   5.811  12.893  1.0699 -0.8080 -0.8976
 8724TIP3    H247664   5.218   5.668  12.845 -0.7867  0.0040 -3.1537
 8725TIP3   OH247665   3.598   6.384   0.900  0.4784  0.0951  0.2071
 8725TIP3    H147666   3.534   6.351   0.837  0.7837  1.0792 -0.6512
 8725TIP3    H247667   3.680   6.386   0.852  0.8119  0.4399  0.7819
 8726TIP3   OH247668   2.631   6.230  14.044  0.8189  0.1079 -0.1106
 8726TIP3    H147669   2.649   6.138  14.066  0.4159 -0.3102 -1.3991
 8726TIP3    H247670   2.537   6.232  14.026  0.4627  1.1807  1.6514
 8727TIP3   OH247671   4.602   1.459  16.372  0.3314 -0.2114  0.3518
 8727TIP3    H147672   4.680   1.431  16.421 -0.4390  0.2168  1.8717
 8727TIP3    H247673   4.637   1.518  16.304  1.2283  1.0788  1.8695
 8728TIP3   OH247674   4.886   4.276   1.183  0.2169 -0.1513 -0.9138
 8728TIP3    H147675   4.917   4.313   1.100 -0.1837 -1.1547 -1.5401
 8728TIP3    H247676   4.962   4.278   1.241  0.6432  0.0847 -1.4730
 8729TIP3   OH247677   6.169   0.178  14.587  0.1709 -0.1865  0.0191
 8729TIP3    H147678   6.113   0.244  14.628  0.1357  0.3606 -0.8932
 8729TIP3    H247679   6.128   0.161  14.502  0.5120 -0.9479  0.0019
 8730TIP3   OH247680   4.930   1.691   6.079  0.0028  0.0173  0.2844
 8730TIP3    H147681   4.933   1.728   6.168 -0.8420 -0.9373  0.7369
 8730TIP3    H247682   4.982   1.610   6.086  0.2791  0.1522 -0.2047
 8731TIP3   OH247683   0.827   0.606  10.911  0.4244 -0.3585  0.2608
 8731TIP3    H147684   0.805   0.697  10.931 -1.1020 -0.4170 -0.9621
 8731TIP3    H247685   0.856   0.608  10.820 -1.0481 -1.2690 -0.2666
 8732TIP3   OH247686   2.297   0.695  11.583  0.1145 -0.2113  0.3588
 8732TIP3    H147687   2.203   0.712  11.590  0.2137 -0.1510  2.0837
 8732TIP3    H247688   2.337   0.782  11.572 -0.1536 -0.4122 -3.4001
 8733TIP3   OH247689   4.468   5.274   5.296 -0.2583  0.3239  0.5396
 8733TIP3    H147690   4.533   5.263   5.227 -0.3904 -0.5527  0.5343
 8733TIP3    H247691   4.448   5.184   5.324 -2.5672  0.4549 -0.5030
 8734TIP3   OH247692   5.804   0.390  13.627 -0.1166 -0.6297 -0.1840
 8734TIP3    H147693   5.786   0.425  13.540 -0.2041 -1.4610 -0.5040
 8734TIP3    H247694   5.880   0.439  13.657 -0.1118 -0.3101 -0.7028
 8735TIP3   OH247695   3.664   4.701   4.965 -0.1529 -0.3315 -0.0094
 8735TIP3    H147696   3.719   4.624   4.971  1.7048  0.9488  0.4394
 8735TIP3    H247697   3.700   4.761   5.031 -1.8656  0.7264  0.0365
 8736TIP3   OH247698   3.483   1.583   5.550  0.4928 -0.0988  0.3547
 8736TIP3    H147699   3.397   1.578   5.592  0.3139  1.6616  0.2612
 8736TIP3    H247700   3.484   1.510   5.489 -0.6425 -0.5777  0.8854
 8737TIP3   OH247701   5.041   0.553  15.628 -0.5666 -0.0275  0.1871
 8737TIP3    H147702   4.949   0.558  15.601 -0.6680 -1.3937  0.1796
 8737TIP3    H247703   5.054   0.460  15.649  0.9839  0.0256 -0.4176
 8738TIP3   OH247704   5.856   1.424  13.558  0.1919 -0.0233 -0.1441
 8738TIP3    H147705   5.795   1.456  13.492 -1.5338 -3.0134 -0.1661
 8738TIP3    H247706   5.820   1.455  13.641 -0.5498 -0.5342 -0.2686
 8739TIP3   OH247707   2.445   3.660  13.558  0.1370  0.4771  0.2853
 8739TIP3    H147708   2.530   3.675  13.516 -0.3403  1.1909 -0.4499
 8739TIP3    H247709   2.412   3.581  13.515 -0.0921  0.8754 -0.2805
 8740TIP3   OH247710   0.822   4.924   5.667  0.2530 -0.1422  0.4628
 8740TIP3    H147711   0.741   4.946   5.712  0.5994 -0.1977  1.1234
 8740TIP3    H247712   0.889   4.925   5.736  0.2502 -3.6548  0.6692
 8741TIP3   OH247713   2.680   2.831   5.207 -0.5893 -0.5647 -0.0540
 8741TIP3    H147714   2.707   2.922   5.201  0.1930 -0.6787  1.3683
 8741TIP3    H247715   2.600   2.833   5.260  0.8348 -0.8834  2.2484
 8742TIP3   OH247716   6.604   2.527   3.168  0.0417 -0.0534  0.2949
 8742TIP3    H147717   6.532   2.467   3.188  0.2149 -0.5168 -0.4622
 8742TIP3    H247718   6.567   2.614   3.183 -1.4493 -0.1441 -2.3710
 8743TIP3   OH247719   1.527   2.428  13.984  0.1368  0.3599  0.1570
 8743TIP3    H147720   1.548   2.522  13.981 -3.6411  1.3396  0.0285
 8743TIP3    H247721   1.469   2.414  13.910  1.7549 -2.5017 -0.6988
 8744TIP3   OH247722   4.792   2.152   1.637  0.3385 -0.0876 -0.0785
 8744TIP3    H147723   4.810   2.244   1.659 -0.0197  0.4239 -1.8130
 8744TIP3    H247724   4.867   2.104   1.672  1.7079  1.1665 -1.1909
 8745TIP3   OH247725   6.546   5.338   0.631 -0.5856 -0.7995 -0.2694
 8745TIP3    H147726   6.608   5.376   0.569 -1.8549 -0.6039 -1.4734
 8745TIP3    H247727   6.506   5.413   0.675  0.1499 -0.9308  0.6554
 8746TIP3   OH247728   3.015   4.870   5.661 -0.1073 -0.4320  0.1915
 8746TIP3    H147729   2.989   4.912   5.743 -3.2023 -0.9122 -0.4270
 8746TIP3    H247730   3.002   4.777   5.677 -1.1007 -0.5044 -0.9191
 8747TIP3   OH247731   5.865   1.419  12.009 -0.4234 -0.3667 -0.6504
 8747TIP3    H147732   5.891   1.329  11.992 -1.0978 -0.9417  1.1436
 8747TIP3    H247733   5.830   1.418  12.098 -0.2871  1.7037 -0.5135
 8748TIP3   OH247734   1.693   2.507  14.570  0.1859  0.1378 -0.5567
 8748TIP3    H147735   1.635   2.550  14.508  0.2729  0.5892 -0.3243
 8748TIP3    H247736   1.745   2.577  14.609  1.0444 -0.2823 -0.9119
 8749TIP3   OH247737   0.096   5.196   0.872  0.1412 -0.8951 -0.4835
 8749TIP3    H147738   0.049   5.260   0.924 -0.0960 -0.6121 -1.0423
 8749TIP3    H247739   0.051   5.113   0.890 -0.3194 -0.6954 -0.7046
 8750TIP3   OH247740   3.372   5.974  15.837  0.2592  0.1779  0.4007
 8750TIP3    H147741   3.377   5.946  15.745  1.8369  1.1463  0.1541
 8750TIP3    H247742   3.301   6.037  15.839 -1.1623 -1.3370  0.3030
 8751TIP3   OH247743   6.524   5.332  15.603  0.2087  0.1504  0.0197
 8751TIP3    H147744   6.474   5.385  15.665  0.3633 -1.1427  1.3082
 8751TIP3    H247745   6.458   5.298  15.542 -0.1249  0.4386  0.2156
 8752TIP3   OH247746   3.745   5.763   4.913 -0.2773 -0.0910  0.1448
 8752TIP3    H147747   3.799   5.773   4.835  0.4496  1.8320  0.8364
 8752TIP3    H247748   3.788   5.694   4.963  0.9532  0.6652  0.1743
 8753TIP3   OH247749   3.893   5.497   0.700 -0.1343  0.0751  0.1001
 8753TIP3    H147750   3.962   5.431   0.699 -0.6102 -0.5440  2.1080
 8753TIP3    H247751   3.904   5.542   0.784 -1.0308  1.2270 -0.3713
 8754TIP3   OH247752   1.647   0.040   4.108 -0.4701 -0.3579  0.7558
 8754TIP3    H147753   1.611  -0.045   4.082 -0.4328  0.2181 -1.4384
 8754TIP3    H247754   1.741   0.032   4.090 -0.4717  0.1302  0.4976
 8755TIP3   OH247755   2.674   0.687   1.316  0.3099  0.6504 -0.3357
 8755TIP3    H147756   2.662   0.701   1.222  0.1437  0.9980 -0.2663
 8755TIP3    H247757   2.743   0.748   1.341  0.7826  0.1254 -0.3429
 8756TIP3   OH247758   5.209   3.181  15.697 -0.0636 -0.2138 -0.1356
 8756TIP3    H147759   5.243   3.195  15.785 -0.3334  1.2621 -0.2381
 8756TIP3    H247760   5.229   3.089  15.677 -0.7093 -0.8203  1.7611
 8757TIP3   OH247761   4.014   0.084  14.817 -0.2580 -0.6226  0.0848
 8757TIP3    H147762   3.970   0.141  14.880 -0.4291 -0.2882 -0.3340
 8757TIP3    H247763   4.105   0.114  14.817 -1.1636  3.1591 -3.8033
 8758TIP3   OH247764   2.415   5.525  13.533  0.3501 -0.0267 -0.1363
 8758TIP3    H147765   2.413   5.446  13.480  0.4970  0.5961 -1.1100
 8758TIP3    H247766   2.323   5.541  13.556  0.4098 -0.9269  0.7891
 8759TIP3   OH247767   1.189   5.912   0.905  0.6196  0.4741 -0.1065
 8759TIP3    H147768   1.135   5.854   0.960 -1.2237  1.8556 -0.3727
 8759TIP3    H247769   1.128   5.946   0.840  1.4635  3.1363  0.3739
 8760TIP3   OH247770   5.700   4.319   0.494 -0.3388  0.3071  0.1615
 8760TIP3    H147771   5.715   4.413   0.483 -0.0514  0.3391  0.7828
 8760TIP3    H247772   5.651   4.311   0.575 -0.8982 -0.0411 -0.2060
 8761TIP3   OH247773   5.579   5.695   1.230  0.6446 -0.1625  0.7688
 8761TIP3    H147774   5.537   5.618   1.269 -0.1533  0.5119  1.2748
 8761TIP3    H247775   5.535   5.769   1.270  2.1407  0.5867  1.0812
 8762TIP3   OH247776   3.566   5.360   2.059 -1.1669 -0.3213 -0.6949
 8762TIP3    H147777   3.531   5.393   1.976  1.8866  0.8520 -1.6355
 8762TIP3    H247778   3.566   5.265   2.048 -0.1596 -0.1679 -2.3976
 8763TIP3   OH247779   3.684   4.427  16.204 -0.7343  0.3663  0.1118
 8763TIP3    H147780   3.775   4.459  16.200 -1.2362  1.7263 -2.0587
 8763TIP3    H247781   3.674   4.376  16.124 -1.1219 -2.1999  1.6864
 8764TIP3   OH247782   1.955   0.436   3.942  0.1285 -0.8654 -0.0527
 8764TIP3    H147783   2.047   0.423   3.967 -0.3426 -2.3064  1.0599
 8764TIP3    H247784   1.905   0.386   4.006 -1.5687  1.2298  0.3490
 8765TIP3   OH247785   1.018   2.525  12.945 -0.0995  0.3843  0.4144
 8765TIP3    H147786   1.060   2.598  12.989 -1.5871  0.8198  1.2034
 8765TIP3    H247787   1.009   2.553  12.854  0.9161  0.4377  0.3231
 8766TIP3   OH247788   3.109   6.166  12.182 -0.8956 -0.1072 -0.0820
 8766TIP3    H147789   3.132   6.090  12.128  2.6795  1.8852 -1.7183
 8766TIP3    H247790   3.040   6.210  12.133  0.6680  0.4093 -1.9497
 8767TIP3   OH247791   2.247   0.154  13.629 -0.1581  0.4073  0.1264
 8767TIP3    H147792   2.252   0.062  13.656 -2.5480 -0.4847 -2.0930
 8767TIP3    H247793   2.303   0.160  13.552 -0.1084  0.8031  0.1912
 8768TIP3   OH247794   5.011   5.582  14.082 -0.1189 -0.3332  0.1749
 8768TIP3    H147795   4.930   5.615  14.122  0.2154 -0.4386  0.9553
 8768TIP3    H247796   5.039   5.511  14.140  1.5426  0.9318  1.0091
 8769TIP3   OH247797   2.067   6.598  16.365 -0.0244 -0.1125 -0.0031
 8769TIP3    H147798   2.148   6.570  16.323 -0.5375 -1.7462  0.0211
 8769TIP3    H247799   2.001   6.536  16.334 -1.7708  2.4304 -1.7296
 8770TIP3   OH247800   6.587   3.643  14.925  0.3151  0.1197  0.4174
 8770TIP3    H147801   6.666   3.610  14.881 -0.4540 -0.5952 -0.4785
 8770TIP3    H247802   6.562   3.573  14.985 -1.6534 -1.3252 -1.9074
 8771TIP3   OH247803   3.162   4.774  13.277 -0.0697  0.0240 -0.0489
 8771TIP3    H147804   3.154   4.689  13.233 -2.3740 -0.3555  0.9535
 8771TIP3    H247805   3.229   4.760  13.345 -0.8082 -1.1783  0.4541
 8772TIP3   OH247806   6.097   0.428   2.617 -0.0538  0.1733  0.5240
 8772TIP3    H147807   6.068   0.382   2.696 -0.0809 -1.6034 -0.4886
 8772TIP3    H247808   6.064   0.518   2.629 -1.2350 -0.3998  1.9026
 8773TIP3   OH247809   0.641   4.336   5.835  0.2724  0.2745 -0.1722
 8773TIP3    H147810   0.729   4.350   5.870  0.4959 -1.1280 -0.0961
 8773TIP3    H247811   0.628   4.242   5.843 -1.3254  0.4926 -0.0016
 8774TIP3   OH247812   5.234   2.236  17.249 -0.0368  0.0512 -0.0186
 8774TIP3    H147813   5.298   2.275  17.309  0.9384  0.4568 -1.2932
 8774TIP3    H247814   5.216   2.150  17.287  1.4798 -0.1916  0.2375
 8775TIP3   OH247815   6.397   3.448  12.805  0.0063  0.6195  0.0381
 8775TIP3    H147816   6.333   3.508  12.842 -1.4248 -1.1830  0.6186
 8775TIP3    H247817   6.399   3.374  12.866  1.6480  0.0228 -0.6846
 8776TIP3   OH247818   5.374   4.465   0.781  0.0954 -0.3123  0.3410
 8776TIP3    H147819   5.311   4.433   0.845 -0.8680 -0.5263 -0.6923
 8776TIP3    H247820   5.435   4.392   0.768 -0.7556 -0.9166 -0.3060
 8777TIP3   OH247821   6.214   4.725   0.214 -0.2608 -0.4743  0.2549
 8777TIP3    H147822   6.292   4.694   0.168 -0.4839 -0.4268 -0.1648
 8777TIP3    H247823   6.243   4.738   0.304  0.4714  0.4752 -0.0949
 8778TIP3   OH247824   1.485   4.871  13.080  0.1785 -0.1426 -0.7249
 8778TIP3    H147825   1.450   4.793  13.124 -0.1999  0.0562 -0.6678
 8778TIP3    H247826   1.493   4.845  12.989  1.4763 -0.7353 -0.4650
 8779TIP3   OH247827   5.222   3.754   0.554  0.4746 -0.3834  0.1978
 8779TIP3    H147828   5.182   3.815   0.492  0.1349 -1.0807 -0.2763
 8779TIP3    H247829   5.289   3.806   0.599  0.0547  0.3901 -0.0563
 8780TIP3   OH247830   5.773   1.425  12.824 -0.0055  0.0264  0.3696
 8780TIP3    H147831   5.774   1.367  12.748  3.0350 -2.0438  1.7580
 8780TIP3    H247832   5.690   1.408  12.867 -1.9055  1.4145 -2.4572
 8781TIP3   OH247833   1.612   6.617  15.654 -0.0288  0.5580  0.4015
 8781TIP3    H147834   1.674   6.624  15.582  0.8090  0.9672  1.1328
 8781TIP3    H247835   1.615   6.525  15.680  1.1312  0.7668  1.1266
 8782TIP3   OH247836   3.272   2.666   0.718  0.3336  0.0273 -0.2074
 8782TIP3    H147837   3.262   2.608   0.643  2.5633 -1.7990  0.7657
 8782TIP3    H247838   3.188   2.658   0.765 -1.4395  1.8822 -2.8026
 8783TIP3   OH247839   0.563   5.600   3.081 -0.0328  0.3703  0.4463
 8783TIP3    H147840   0.506   5.604   3.005  0.2386 -1.5798  0.0897
 8783TIP3    H247841   0.521   5.536   3.139  1.2632 -0.3757  0.6053
 8784TIP3   OH247842   5.110   3.133  14.665  0.4213  0.6259  0.6174
 8784TIP3    H147843   5.083   3.102  14.752 -0.3073 -1.5634 -0.3218
 8784TIP3    H247844   5.051   3.088  14.605  1.0643  1.9239 -1.0405
 8785TIP3   OH247845   1.380   5.637  12.869  0.4552  0.1020  0.2761
 8785TIP3    H147846   1.429   5.648  12.788 -1.4590  0.2900 -0.9061
 8785TIP3    H247847   1.403   5.713  12.922  1.9374 -0.1653  0.0606
 8786TIP3   OH247848   2.249   1.187   2.864 -0.5501  1.3905  0.1910
 8786TIP3    H147849   2.168   1.226   2.833 -1.6631  0.6129  1.9680
 8786TIP3    H247850   2.289   1.255   2.918 -0.5367  1.4091  0.1578
 8787TIP3   OH247851   1.291   3.353  15.171  0.0339  0.3000  0.1385
 8787TIP3    H147852   1.203   3.387  15.189 -0.9536 -1.6959 -0.5536
 8787TIP3    H247853   1.298   3.355  15.076  0.4865 -0.1412  0.1591
 8788TIP3   OH247854   6.221   5.433  12.523 -0.0461  0.2165 -0.2110
 8788TIP3    H147855   6.255   5.523  12.527 -1.3241  0.7265 -0.3216
 8788TIP3    H247856   6.126   5.444  12.528 -0.2049 -1.3330  3.8413
 8789TIP3   OH247857   0.070   6.704  12.410 -0.4116 -0.3651  0.6929
 8789TIP3    H147858   0.158   6.743  12.412 -0.4027 -0.3746  0.5367
 8789TIP3    H247859   0.033   6.733  12.327 -1.1720  0.9503  1.4508
 8790TIP3   OH247860   3.269   0.036  14.220  0.1992  0.2888  0.4273
 8790TIP3    H147861   3.197   0.092  14.191 -2.3803 -2.6246  0.7770
 8790TIP3    H247862   3.250   0.019  14.313  0.7659 -1.3080  0.2801
 8791TIP3   OH247863   1.994   3.813  17.076 -0.2010 -0.0414  0.7455
 8791TIP3    H147864   1.989   3.722  17.105 -0.7242 -0.5410 -0.8096
 8791TIP3    H247865   2.082   3.822  17.041 -0.0780  0.1239  1.0902
 8792TIP3   OH247866   1.846   0.751  15.763 -0.0616  0.3499  0.2224
 8792TIP3    H147867   1.831   0.657  15.771 -0.0901  0.2812 -0.5389
 8792TIP3    H247868   1.884   0.777  15.847  0.3834 -0.4259  0.2653
 8793TIP3   OH247869   1.033   5.149   0.522  0.5775  0.4253 -0.1258
 8793TIP3    H147870   1.073   5.236   0.523 -0.6563  1.0161  1.5987
 8793TIP3    H247871   1.104   5.091   0.493  1.6507  1.8759 -0.5605
 8794TIP3   OH247872   2.726   2.445   3.127 -0.0297 -0.3885 -0.3727
 8794TIP3    H147873   2.691   2.505   3.192 -0.7799  0.7641 -1.7703
 8794TIP3    H247874   2.739   2.500   3.049  1.2238 -1.6251 -1.0717
 8795TIP3   OH247875   3.721   1.549   0.223  0.1246  0.9138  0.3157
 8795TIP3    H147876   3.681   1.480   0.170 -1.4492  1.1942  1.0815
 8795TIP3    H247877   3.777   1.502   0.285  0.2234  0.4357 -0.1267
 8796TIP3   OH247878   5.096   1.278   6.211 -0.2019  0.1708  0.1960
 8796TIP3    H147879   5.134   1.226   6.140  1.9267  1.9804 -0.1222
 8796TIP3    H247880   5.031   1.221   6.252  1.2131 -2.2990 -0.8083
 8797TIP3   OH247881   2.025   2.870   6.112 -0.3284  0.4099  0.5259
 8797TIP3    H147882   1.995   2.848   6.201 -1.5278 -2.3766 -0.4580
 8797TIP3    H247883   1.958   2.834   6.055  1.7335 -0.2635 -1.6131
 8798TIP3   OH247884   3.665   6.605  15.693  0.2703  0.3732 -0.0782
 8798TIP3    H147885   3.618   6.540  15.640 -0.2159  0.8082 -0.1919
 8798TIP3    H247886   3.634   6.589  15.783 -0.0067  0.5818 -0.1361
 8799TIP3   OH247887   0.664   4.710  14.875  0.4436  0.6603 -0.9654
 8799TIP3    H147888   0.599   4.780  14.884  0.7605  0.9346 -0.7629
 8799TIP3    H247889   0.623   4.645  14.818 -0.2374  0.5522 -0.3609
 8800TIP3   OH247890   5.877   5.890  17.042  0.0286 -0.4605 -0.1980
 8800TIP3    H147891   5.946   5.951  17.015  1.7273 -2.1559  0.0410
 8800TIP3    H247892   5.902   5.806  17.002 -1.5187 -1.3052  0.4863
 8801TIP3   OH247893   1.392   0.970  10.947  0.1687 -0.7499  0.1623
 8801TIP3    H147894   1.404   0.909  11.020 -1.3623  1.2154  2.2444
 8801TIP3    H247895   1.462   1.035  10.958 -1.0505  0.4788  0.9815
 8802TIP3   OH247896   1.345   4.540  11.304 -0.2490  0.4310 -0.0524
 8802TIP3    H147897   1.255   4.572  11.296 -0.3192 -0.1621 -2.2993
 8802TIP3    H247898   1.344   4.455  11.259  1.0545 -0.4528  1.4609
 8803TIP3   OH247899   0.791   3.841  13.157 -0.6736 -0.3218 -0.6884
 8803TIP3    H147900   0.802   3.770  13.094 -2.5038 -1.3560  0.1026
 8803TIP3    H247901   0.803   3.800  13.243 -0.3674  0.6287 -0.2541
 8804TIP3   OH247902   2.928   3.110   1.721  0.6682 -0.1889  0.1845
 8804TIP3    H147903   2.928   3.014   1.720 -0.6294 -0.2442  1.6026
 8804TIP3    H247904   2.895   3.133   1.808 -0.0944  1.5335 -0.5164
 8805TIP3   OH247905   4.026   6.578  14.180  0.9534 -0.2052 -0.1832
 8805TIP3    H147906   4.033   6.671  14.201  1.5221 -0.3126  0.1271
 8805TIP3    H247907   3.955   6.573  14.116 -0.3240  0.2433  1.1173
 8806TIP3   OH247908   1.629   3.340   6.037 -0.2020 -0.0602  0.3934
 8806TIP3    H147909   1.540   3.352   6.071 -0.7907 -1.3869 -0.5829
 8806TIP3    H247910   1.682   3.401   6.087 -2.0411  2.6286 -0.6760
 8807TIP3   OH247911   5.848   2.942  11.009 -0.1493  0.0058  0.3436
 8807TIP3    H147912   5.863   2.872  10.946  1.2298  1.9016 -1.5636
 8807TIP3    H247913   5.758   2.970  10.993 -0.8332 -1.4541  1.3552
 8808TIP3   OH247914   3.367   2.213  15.913 -0.3196  0.1509 -0.1916
 8808TIP3    H147915   3.422   2.232  15.837 -1.3114  1.0376 -0.7101
 8808TIP3    H247916   3.399   2.273  15.981  1.0659 -1.1663  0.3574
 8809TIP3   OH247917   3.716   6.644   0.065 -0.9642 -0.3414 -0.1181
 8809TIP3    H147918   3.676   6.607  -0.014 -2.4741  0.1604  0.3927
 8809TIP3    H247919   3.665   6.608   0.137 -0.0524 -0.2246  0.6007
 8810TIP3   OH247920   0.511   2.148   2.580 -0.2519 -0.1483 -0.0655
 8810TIP3    H147921   0.527   2.081   2.646 -1.5438  0.5765  1.0312
 8810TIP3    H247922   0.539   2.107   2.498 -0.0290 -1.6300  0.7034
 8811TIP3   OH247923   0.878   5.574  11.824  0.0532 -0.1899  0.2688
 8811TIP3    H147924   0.841   5.499  11.778  1.2453 -0.3957 -0.3853
 8811TIP3    H247925   0.956   5.598  11.774  0.5769  0.4927  1.3578
 8812TIP3   OH247926   2.217   0.573   5.787  0.1208 -0.1539 -0.3536
 8812TIP3    H147927   2.250   0.507   5.848  1.3104  0.1977 -0.5865
 8812TIP3    H247928   2.268   0.560   5.708 -1.3803 -0.5703 -1.2912
 8813TIP3   OH247929   2.258   2.837   1.666 -0.1793  0.5166 -0.2597
 8813TIP3    H147930   2.177   2.802   1.703  0.2008  1.5209  1.6615
 8813TIP3    H247931   2.323   2.768   1.677 -0.4087  0.2725 -0.4248
 8814TIP3   OH247932   3.823   3.238   3.875 -0.0974  0.0463 -0.3434
 8814TIP3    H147933   3.769   3.162   3.852 -0.5931 -0.1910  1.4940
 8814TIP3    H247934   3.762   3.299   3.917  0.7940  0.3481  0.5372
 8815TIP3   OH247935   2.975   6.505   4.655  0.3164  0.5312  0.2876
 8815TIP3    H147936   3.068   6.525   4.648 -0.1176  2.2926 -0.9267
 8815TIP3    H247937   2.972   6.421   4.702  2.3650  1.9145  3.1884
 8816TIP3   OH247938   4.498   4.423   2.209  0.1679 -0.4403  0.2700
 8816TIP3    H147939   4.446   4.433   2.129 -0.2679 -0.4100  0.5512
 8816TIP3    H247940   4.509   4.329   2.219  0.3261 -0.4387  0.1077
 8817TIP3   OH247941   0.050   0.083   2.196 -0.6366 -0.5289  0.1531
 8817TIP3    H147942   0.120   0.136   2.235 -0.8066  0.1657 -0.4562
 8817TIP3    H247943   0.002   0.048   2.271 -1.9503  2.0907  0.6941
 8818TIP3   OH247944   2.948   3.402  15.514 -0.2394  0.4630 -0.3802
 8818TIP3    H147945   3.006   3.475  15.490  0.1704 -0.1351 -1.2648
 8818TIP3    H247946   2.862   3.443  15.525 -0.1582  1.0039 -1.5367
 8819TIP3   OH247947   3.741   3.724  13.289 -0.0955  0.2207  0.1570
 8819TIP3    H147948   3.812   3.776  13.327 -0.0943 -0.5473  1.2328
 8819TIP3    H247949   3.661   3.767  13.319 -0.1156  1.0423 -0.9952
 8820TIP3   OH247950   3.436   2.634   3.590  0.3327 -0.3313  0.0950
 8820TIP3    H147951   3.448   2.727   3.606  2.5633  0.1331 -3.2294
 8820TIP3    H247952   3.386   2.630   3.509 -0.8753 -2.1110  0.8700
 8821TIP3   OH247953   2.498   0.834  14.863 -0.7815  0.0337  0.1515
 8821TIP3    H147954   2.459   0.904  14.916  0.6954  1.7870 -0.9388
 8821TIP3    H247955   2.450   0.837  14.781 -0.5466 -0.0543  0.0103
 8822TIP3   OH247956   6.383   4.885   4.200 -0.1128  0.3067 -0.3974
 8822TIP3    H147957   6.418   4.808   4.155  0.1148  0.9431 -1.3350
 8822TIP3    H247958   6.459   4.927   4.240 -0.3296 -0.3198  0.7097
 8823TIP3   OH247959   2.990   2.298  13.438 -0.6296 -0.1016 -0.1898
 8823TIP3    H147960   3.031   2.249  13.510 -2.9469 -0.0089  1.2904
 8823TIP3    H247961   2.972   2.231  13.371 -0.0103 -0.5093  0.0408
 8824TIP3   OH247962   6.546   1.523   0.036  0.4168  0.1922  0.1966
 8824TIP3    H147963   6.468   1.471   0.020  0.6387 -0.0731 -0.0396
 8824TIP3    H247964   6.569   1.559  -0.050 -0.2819  1.4725  0.5195
 8825TIP3   OH247965   1.156   3.957   4.816 -0.3716 -1.0870  0.0567
 8825TIP3    H147966   1.173   4.046   4.788  0.2438 -1.6472 -1.4402
 8825TIP3    H247967   1.066   3.939   4.789 -0.5970 -0.8339  0.6242
 8826TIP3   OH247968   1.467   4.310   0.577  0.1799 -0.9053 -0.2922
 8826TIP3    H147969   1.549   4.333   0.619 -0.3750 -1.2190  1.0034
 8826TIP3    H247970   1.422   4.394   0.566  0.7235 -0.7127 -1.1610
 8827TIP3   OH247971   5.463   2.190   6.110  0.1286  0.1848 -0.4013
 8827TIP3    H147972   5.494   2.131   6.041 -1.3341 -1.3828  0.2073
 8827TIP3    H247973   5.538   2.200   6.168  0.1649 -1.8900 -0.0178
 8828TIP3   OH247974   5.649   5.955  11.639  0.6220 -0.0063  0.1838
 8828TIP3    H147975   5.555   5.937  11.651  1.0231 -1.5255  1.3473
 8828TIP3    H247976   5.689   5.869  11.631  1.9641  0.6111 -0.0269
 8829TIP3   OH247977   0.605   0.992  12.829  0.2060 -0.1728 -0.0603
 8829TIP3    H147978   0.649   1.077  12.839  0.8586 -0.6827  1.7534
 8829TIP3    H247979   0.590   0.984  12.734  4.1130  0.0066 -0.8800
 8830TIP3   OH247980   1.979   3.900   1.109  0.7092  0.4795 -0.1769
 8830TIP3    H147981   1.976   3.993   1.087  2.4710  0.7695  0.6495
 8830TIP3    H247982   1.972   3.898   1.204 -1.1918 -0.3907 -0.2954
 8831TIP3   OH247983   2.265   1.916  15.209  0.6663 -1.0949  0.1582
 8831TIP3    H147984   2.275   2.010  15.195  0.7592 -0.9580  1.1075
 8831TIP3    H247985   2.192   1.891  15.153  2.9487 -1.1904 -3.1074
 8832TIP3   OH247986   5.016   6.307  16.238  0.3030 -0.6929 -0.6112
 8832TIP3    H147987   5.070   6.281  16.313 -1.2665  0.4744  1.0259
 8832TIP3    H247988   4.963   6.229  16.219  0.9186 -1.0933 -0.7099
 8833TIP3   OH247989   0.525   0.063   0.692 -0.3166  0.2249 -0.0299
 8833TIP3    H147990   0.443   0.023   0.720 -0.2328 -1.6379 -2.1535
 8833TIP3    H247991   0.593   0.003   0.723 -0.0167  0.0389 -0.9824
 8834TIP3   OH247992   2.941   3.353   5.124  0.3262 -0.2249 -0.1717
 8834TIP3    H147993   2.890   3.420   5.170 -0.7441 -0.8047 -0.4938
 8834TIP3    H247994   3.024   3.349   5.173 -0.3335 -0.0086  1.0000
 8835TIP3   OH247995   5.861   6.379  17.027  0.2176  0.5273 -0.3132
 8835TIP3    H147996   5.901   6.293  17.019 -0.4815  0.2712 -1.2109
 8835TIP3    H247997   5.896   6.414  17.109  3.1185  0.7979 -1.5518
 8836TIP3   OH247998   0.376   0.084   1.119 -0.2935  0.3312  0.6028
 8836TIP3    H147999   0.451   0.115   1.171 -0.7822  1.0019  0.9202
 8836TIP3    H248000   0.319   0.042   1.182 -0.6092  0.6261  0.5165
 8837TIP3   OH248001   3.400   3.013  15.681 -0.1952  0.6906 -0.0988
 8837TIP3    H148002   3.441   2.958  15.614 -1.2897 -2.4503  1.6036
 8837TIP3    H248003   3.307   2.989  15.679 -0.6426  2.1493  1.0728
 8838TIP3   OH248004   4.688   3.405  12.684 -0.7058 -0.0960 -0.2551
 8838TIP3    H148005   4.731   3.320  12.695 -0.1528  0.2848  0.6124
 8838TIP3    H248006   4.645   3.398  12.599 -0.9078 -1.3432 -0.0824
 8839TIP3   OH248007   5.030   2.803  15.847 -0.1311 -0.0300 -0.2428
 8839TIP3    H148008   4.993   2.891  15.858 -1.8419 -0.5135 -1.6471
 8839TIP3    H248009   4.994   2.752  15.920  0.1757  0.2326  0.0906
 8840TIP3   OH248010   3.111   5.762   6.105  0.3937  0.2971 -0.3646
 8840TIP3    H148011   3.196   5.784   6.143  0.0495  0.6672  0.1946
 8840TIP3    H248012   3.092   5.674   6.137 -0.3764  1.0030  1.1996
 8841TIP3   OH248013   5.645   2.833  15.381 -0.3772 -0.1308 -0.1551
 8841TIP3    H148014   5.637   2.761  15.319 -1.0527 -0.3240  0.1468
 8841TIP3    H248015   5.738   2.834  15.405 -0.2554 -0.5222 -0.6056
 8842TIP3   OH248016   1.768   1.773  16.836  0.5738  0.0572  0.1801
 8842TIP3    H148017   1.809   1.712  16.897  1.0706 -2.5251 -2.4935
 8842TIP3    H248018   1.674   1.761  16.848  0.6635 -1.4851 -0.4434
 8843TIP3   OH248019   1.775   2.549   1.274  0.5301  0.4305 -0.2851
 8843TIP3    H148020   1.798   2.552   1.367  2.9826  1.2098 -0.8470
 8843TIP3    H248021   1.728   2.631   1.259 -0.9195 -0.2206  0.4595
 8844TIP3   OH248022   0.610   4.776   1.967  0.0198 -0.3982  0.6226
 8844TIP3    H148023   0.556   4.728   2.031 -1.0205 -1.7462 -1.1749
 8844TIP3    H248024   0.657   4.840   2.020 -2.5215  0.1491  2.4673
 8845TIP3   OH248025   4.820   4.914  16.785 -0.6533  0.1783  0.4143
 8845TIP3    H148026   4.902   4.961  16.776  1.2130 -2.5359  1.7876
 8845TIP3    H248027   4.824   4.844  16.720 -1.8196 -0.0728  0.5697
 8846TIP3   OH248028   3.421   5.220  16.743  0.2351 -0.7629 -0.2671
 8846TIP3    H148029   3.478   5.185  16.812 -2.1292 -1.5551  1.4339
 8846TIP3    H248030   3.412   5.149  16.680 -1.5106 -1.9420  1.2225
 8847TIP3   OH248031   2.020   6.053  13.005 -0.0633  0.2939 -0.0085
 8847TIP3    H148032   1.979   6.021  12.925  1.0534 -1.5882  0.1176
 8847TIP3    H248033   1.994   5.991  13.073 -1.6699  2.3079  1.3448
 8848TIP3   OH248034   5.507   5.364  14.579 -0.2246  0.3754 -0.3099
 8848TIP3    H148035   5.461   5.287  14.546  0.3332  0.9607 -2.6565
 8848TIP3    H248036   5.442   5.434  14.576 -0.5042  0.2070  1.0627
 8849TIP3   OH248037   4.911   4.077  16.193  0.4259  0.1128  0.3403
 8849TIP3    H148038   4.947   4.018  16.127  0.7055  2.0940 -1.3596
 8849TIP3    H248039   4.983   4.137  16.214 -1.1272  2.8575 -1.5915
 8850TIP3   OH248040   0.952   3.165  13.228  0.0854  0.0294  0.4393
 8850TIP3    H148041   1.026   3.137  13.174 -1.2966 -0.5919 -1.2417
 8850TIP3    H248042   0.967   3.259  13.242  2.7138 -0.5877  2.7691
 8851TIP3   OH248043   2.997   0.326  11.048 -0.2278  0.9781 -0.5539
 8851TIP3    H148044   3.029   0.343  10.960 -0.6484  1.8236 -0.5508
 8851TIP3    H248045   2.984   0.231  11.051  2.2838  0.5561 -0.5443
 8852TIP3   OH248046   6.722   2.171  13.232 -0.0952  0.2218 -0.4949
 8852TIP3    H148047   6.649   2.148  13.289  0.5174 -1.1895 -0.2383
 8852TIP3    H248048   6.753   2.256  13.266 -0.4402 -0.0631  0.5668
 8853TIP3   OH248049   3.017   5.977  11.070 -0.1207  0.2485  0.4276
 8853TIP3    H148050   3.109   5.960  11.053 -0.5148 -2.5315  0.7050
 8853TIP3    H248051   2.999   6.059  11.023  2.7423  1.6070  1.4516
 8854TIP3   OH248052   2.492   2.315   4.335  0.3930  0.1557  0.8242
 8854TIP3    H148053   2.449   2.253   4.276  0.5019 -1.3212  2.2054
 8854TIP3    H248054   2.420   2.358   4.381  0.2919  1.6896 -0.6976
 8855TIP3   OH248055   5.792   5.660  11.669 -0.1622  0.2627 -0.0391
 8855TIP3    H148056   5.752   5.591  11.616 -0.0051  0.3383 -0.2618
 8855TIP3    H248057   5.848   5.613  11.731 -0.5430  0.1604  0.2310
 8856TIP3   OH248058   4.270   4.592   0.900 -0.3113 -0.1810  0.1806
 8856TIP3    H148059   4.238   4.504   0.878  0.3213 -0.4989  0.4991
 8856TIP3    H248060   4.309   4.582   0.987  1.6227 -0.0846 -0.6209
 8857TIP3   OH248061   5.845   2.139   0.253 -0.2424  0.2529 -0.2353
 8857TIP3    H148062   5.902   2.178   0.187  2.0715  0.2725  1.6085
 8857TIP3    H248063   5.815   2.212   0.306  1.0907 -0.0542  1.0070
 8858TIP3   OH248064   0.677   5.297  16.165  0.0070  0.1153 -0.3069
 8858TIP3    H148065   0.590   5.265  16.142 -1.1958  0.8088  2.7144
 8858TIP3    H248066   0.668   5.392  16.170  1.1387  0.2562 -0.6400
 8859TIP3   OH248067   0.521   2.486   3.171 -0.1162 -0.2542 -0.1105
 8859TIP3    H148068   0.481   2.410   3.129 -2.1694  0.8541 -0.2777
 8859TIP3    H248069   0.447   2.543   3.194  1.3841  2.2406 -1.0317
 8860TIP3   OH248070   5.284   0.617  15.065 -0.0206  0.0480  0.6270
 8860TIP3    H148071   5.235   0.580  15.138  0.3531 -0.8860  0.4148
 8860TIP3    H248072   5.217   0.647  15.004 -0.3565  1.8213  1.8037
 8861TIP3   OH248073   3.826   0.670   4.062 -0.2990  0.3705  0.2332
 8861TIP3    H148074   3.830   0.715   3.978  1.9265  0.7430  0.5010
 8861TIP3    H248075   3.732   0.669   4.083 -0.7007  2.2873 -1.1478
 8862TIP3   OH248076   5.019   4.144   3.782 -1.1491 -0.3947 -0.9717
 8862TIP3    H148077   5.014   4.062   3.732 -2.4908 -0.9590  0.0028
 8862TIP3    H248078   5.105   4.180   3.761  0.4488 -3.1564  0.2603
 8863TIP3   OH248079   0.747   1.427  11.412  0.3008  0.5845 -0.3730
 8863TIP3    H148080   0.767   1.402  11.503  1.0738 -1.0594 -0.9564
 8863TIP3    H248081   0.792   1.511  11.400  0.3080  0.7530  0.7145
 8864TIP3   OH248082   4.361   2.284   1.321  0.1611 -0.4448  0.2431
 8864TIP3    H148083   4.350   2.319   1.232  0.2018  0.9833  0.7707
 8864TIP3    H248084   4.283   2.314   1.368  0.4365 -0.6634  0.8478
 8865TIP3   OH248085   0.673   2.107   3.116  0.4753  0.4538  0.1466
 8865TIP3    H148086   0.662   2.128   3.023  2.1475  1.3373  0.1097
 8865TIP3    H248087   0.688   2.012   3.118  0.0004  0.3639 -0.4363
 8866TIP3   OH248088   2.087   3.842   6.554 -0.3236 -0.3992 -0.8449
 8866TIP3    H148089   1.996   3.844   6.524 -0.7515  2.2004  0.3180
 8866TIP3    H248090   2.092   3.913   6.618  2.8007  0.2833 -1.6926
 8867TIP3   OH248091   3.312   3.892   2.114  0.0261 -0.5019 -0.0825
 8867TIP3    H148092   3.243   3.875   2.049  0.7028 -0.6533 -0.7791
 8867TIP3    H248093   3.385   3.924   2.062  0.0947  0.7979  0.7811
 8868TIP3   OH248094   4.531   5.528   4.676  0.0516 -0.0318  0.2656
 8868TIP3    H148095   4.526   5.507   4.770 -1.0164  0.3583  0.3042
 8868TIP3    H248096   4.494   5.452   4.632  0.4348 -0.1602  0.1621
 8869TIP3   OH248097   4.938   3.652  14.568 -0.2674  0.8528 -0.3236
 8869TIP3    H148098   4.928   3.557  14.559  0.2990  0.7963 -0.3967
 8869TIP3    H248099   4.913   3.670  14.658  2.0648  0.2703  0.5260
 8870TIP3   OH248100   2.011   6.666  12.295  0.0619 -0.1873  0.5729
 8870TIP3    H148101   1.984   6.721  12.368  2.5292  2.4109 -0.2897
 8870TIP3    H248102   2.042   6.585  12.335 -0.3456  0.4277  2.2010
 8871TIP3   OH248103   5.391   4.553   3.724 -0.0568 -0.2426  0.2997
 8871TIP3    H148104   5.395   4.628   3.665 -2.9861 -1.1246 -1.2144
 8871TIP3    H248105   5.481   4.543   3.757  0.8092  2.7431 -0.8596
 8872TIP3   OH248106   3.569   6.386   3.877 -0.1247  0.0585 -0.3198
 8872TIP3    H148107   3.628   6.369   3.951 -1.7113  1.6912  1.4355
 8872TIP3    H248108   3.626   6.426   3.811  1.5400 -2.3711 -0.4636
 8873TIP3   OH248109   0.057   1.577  15.179  0.3309  0.3310 -0.1304
 8873TIP3    H148110   0.117   1.588  15.253  1.5543  0.1608 -1.0616
 8873TIP3    H248111   0.025   1.487  15.188  0.5401  0.2793  0.1323
 8874TIP3   OH248112   5.077   2.907  17.034 -0.1375  0.1037 -0.2293
 8874TIP3    H148113   5.114   2.819  17.025 -2.0464 -0.7545 -0.2446
 8874TIP3    H248114   4.993   2.903  16.987 -0.2578  1.9549 -0.2573
 8875TIP3   OH248115   6.761   0.714   6.316 -0.2806  0.7839 -0.0713
 8875TIP3    H148116   6.767   0.670   6.401 -0.8850  1.7631  0.5090
 8875TIP3    H248117   6.697   0.663   6.267  0.5787 -0.1953 -0.2230
 8876TIP3   OH248118   1.247   2.915   4.770 -0.3991 -0.6411 -0.0890
 8876TIP3    H148119   1.318   2.878   4.717  0.1175  2.9732 -2.2528
 8876TIP3    H248120   1.286   2.926   4.857  0.6230 -1.6160 -0.4003
 8877TIP3   OH248121   4.507   6.529   0.380 -0.0831  0.0142 -0.4298
 8877TIP3    H148122   4.539   6.587   0.310  1.2619  1.4499  1.2566
 8877TIP3    H248123   4.567   6.455   0.378 -0.7398 -0.5146 -1.4795
 8878TIP3   OH248124   5.232   0.379  10.810  0.5675 -0.1018 -0.0117
 8878TIP3    H148125   5.308   0.324  10.789 -1.1545 -2.2436 -1.0257
 8878TIP3    H248126   5.249   0.461  10.764  2.2736 -0.5227 -0.1955
 8879TIP3   OH248127   0.182   2.924   4.113 -0.0527 -0.1510  0.0266
 8879TIP3    H148128   0.142   2.840   4.137  1.0766 -0.7978 -0.2541
 8879TIP3    H248129   0.111   2.987   4.119 -1.1934 -1.3075 -0.8155
 8880TIP3   OH248130   3.164   1.392  13.155 -1.1177  0.4731  0.1982
 8880TIP3    H148131   3.129   1.354  13.236  1.3825 -1.3780  0.5160
 8880TIP3    H248132   3.166   1.486  13.171 -2.2994  0.3045  1.5635
 8881TIP3   OH248133   2.137   5.402  12.704 -0.0604 -0.1576 -0.0614
 8881TIP3    H148134   2.077   5.408  12.630  1.0147 -2.0832 -1.1657
 8881TIP3    H248135   2.188   5.483  12.701 -1.4858  0.7745 -0.0481
 8882TIP3   OH248136   0.349   5.654  12.715 -0.2544 -0.1354 -0.6075
 8882TIP3    H148137   0.268   5.633  12.760 -1.5659  1.1529 -2.2448
 8882TIP3    H248138   0.407   5.688  12.784 -0.0329 -3.5365  1.0838
 8883TIP3   OH248139   4.758   0.849  10.516 -0.3729  0.1802 -0.3649
 8883TIP3    H148140   4.734   0.772  10.568 -0.4567  0.6556  0.3047
 8883TIP3    H248141   4.719   0.923  10.562  0.3701  0.7154 -0.5682
 8884TIP3   OH248142   4.266   0.768  11.995  0.1484 -0.7605 -0.1959
 8884TIP3    H148143   4.180   0.727  11.992  0.2049 -0.9555  0.7328
 8884TIP3    H248144   4.248   0.861  12.006  0.0322 -0.5736 -1.7431
 8885TIP3   OH248145   6.783   6.221   3.619 -0.6423  0.3402  0.2777
 8885TIP3    H148146   6.848   6.151   3.625 -1.0025  0.0217  0.5094
 8885TIP3    H248147   6.718   6.188   3.556 -0.4616  0.7538 -0.1296
 8886TIP3   OH248148   2.930   4.261  14.009  0.1855  0.1026 -0.0308
 8886TIP3    H148149   2.913   4.331  14.073  1.8222  0.9548 -0.4611
 8886TIP3    H248150   2.985   4.303  13.943  0.5856 -1.4206 -0.6949
 8887TIP3   OH248151   4.270   4.482  12.846  0.2639 -0.2573  0.8596
 8887TIP3    H148152   4.350   4.529  12.869  0.6578 -0.3999 -0.1567
 8887TIP3    H248153   4.209   4.551  12.819  0.7348 -0.2686 -0.3170
 8888TIP3   OH248154   0.079   3.680  15.472 -0.0185  0.3405 -0.0483
 8888TIP3    H148155   0.001   3.640  15.510  0.4724 -1.3408 -0.7388
 8888TIP3    H248156   0.152   3.629  15.507  0.8143  1.9563  0.6732
 8889TIP3   OH248157   1.361   1.171   5.490  0.6475  0.1094 -0.1362
 8889TIP3    H148158   1.279   1.219   5.475 -0.5581 -1.8988 -0.3898
 8889TIP3    H248159   1.429   1.237   5.483 -0.9625  1.9488  0.4799
 8890TIP3   OH248160   6.104   4.321   0.416 -0.5188 -0.0212  0.0068
 8890TIP3    H148161   6.144   4.340   0.331 -0.7658 -0.0844 -0.1235
 8890TIP3    H248162   6.067   4.405   0.444 -0.4407 -0.0013  0.0495
 8891TIP3   OH248163   5.515   3.569   5.880  0.5947 -0.3356  0.3062
 8891TIP3    H148164   5.598   3.535   5.845  0.7381 -0.6297  0.9232
 8891TIP3    H248165   5.468   3.491   5.908  0.3410 -0.1224  0.4728
 8892TIP3   OH248166   6.527   5.082   0.490 -0.3515 -0.1616  0.1780
 8892TIP3    H148167   6.575   5.090   0.407 -1.4740  0.3281 -0.4521
 8892TIP3    H248168   6.546   5.164   0.537 -0.8998  0.2297 -0.2646
 8893TIP3   OH248169   1.895   0.077   6.508  0.5027  0.2908 -0.4619
 8893TIP3    H148170   1.929   0.148   6.562  0.2676 -0.4504  0.6862
 8893TIP3    H248171   1.804   0.067   6.536  0.7137 -0.8727 -0.1566
 8894TIP3   OH248172   5.282   6.116   1.767 -0.2280  0.1889 -0.1516
 8894TIP3    H148173   5.273   6.198   1.817 -1.7301  0.9436 -1.5739
 8894TIP3    H248174   5.222   6.055   1.810  1.6962 -0.6149  1.6038
 8895TIP3   OH248175   0.073   2.088  15.791 -0.0276  0.3892 -0.1229
 8895TIP3    H148176   0.030   2.008  15.819  1.5125 -1.8311 -3.4926
 8895TIP3    H248177   0.048   2.099  15.700  2.1903  2.0516 -0.6307
 8896TIP3   OH248178   0.645   6.377   6.029  0.2348  0.2248 -0.4266
 8896TIP3    H148179   0.716   6.317   6.053  0.8176  0.1580 -2.2003
 8896TIP3    H248180   0.573   6.352   6.087  1.9248  0.9988  2.1676
 8897TIP3   OH248181   4.786   6.662  17.069  0.4701 -0.1686  0.2313
 8897TIP3    H148182   4.705   6.641  17.117 -0.2485 -2.4075 -1.7793
 8897TIP3    H248183   4.769   6.749  17.032 -0.9605 -0.5121  0.0057
 8898TIP3   OH248184   3.423   0.930   2.241 -0.4132 -0.0443 -0.1543
 8898TIP3    H148185   3.345   0.892   2.202 -0.7707 -1.7389  2.0580
 8898TIP3    H248186   3.436   0.882   2.322  1.8000  1.5406  0.5351
 8899TIP3   OH248187   6.740   2.604  11.315  0.1909 -0.7748  0.8780
 8899TIP3    H148188   6.664   2.660  11.298  0.0845 -1.3286 -0.5732
 8899TIP3    H248189   6.812   2.665  11.327 -0.0539 -0.2824 -0.0314
 8900TIP3   OH248190   1.807   3.401   6.575 -0.5770 -0.2205 -0.1348
 8900TIP3    H148191   1.849   3.345   6.640 -2.1627 -0.9445  0.3186
 8900TIP3    H248192   1.864   3.477   6.568  1.4387 -1.6847 -0.4637
 8901TIP3   OH248193   1.337   5.555   4.259  0.0579  0.3448  0.2251
 8901TIP3    H148194   1.398   5.581   4.328  3.1198  0.3241 -2.2702
 8901TIP3    H248195   1.330   5.632   4.202  0.2768 -0.6496 -1.2054
 8902TIP3   OH248196   5.887   1.561  14.059  0.3335  0.1542 -0.0704
 8902TIP3    H148197   5.919   1.504  13.989  1.4190  0.1299  0.4242
 8902TIP3    H248198   5.845   1.634  14.013  0.7775 -0.0027 -0.7385
 8903TIP3   OH248199   4.604   0.204   2.751  0.5067  0.0761 -0.2132
 8903TIP3    H148200   4.648   0.262   2.813 -2.2432  1.1090  0.9288
 8903TIP3    H248201   4.674   0.172   2.694  2.7617  1.0987  1.8219
 8904TIP3   OH248202   6.091   0.513  17.179 -0.3294  0.2296  0.1105
 8904TIP3    H148203   6.064   0.567  17.105  0.2090 -1.0855 -1.0852
 8904TIP3    H248204   6.014   0.461  17.200 -0.2215 -0.0051 -0.0775
 8905TIP3   OH248205   2.193   4.209  16.515 -0.3710 -0.1066 -0.1619
 8905TIP3    H148206   2.273   4.243  16.473 -0.3667 -2.6221 -2.5010
 8905TIP3    H248207   2.123   4.266  16.483  0.1553  0.4606 -0.3295
 8906TIP3   OH248208   5.101   5.030  15.321  0.2870  0.1817 -0.6684
 8906TIP3    H148209   5.086   5.029  15.226 -0.7431 -0.3555 -0.5051
 8906TIP3    H248210   5.019   5.062  15.358 -0.0909 -1.6219  0.1578
 8907TIP3   OH248211   1.728   5.134  14.189  0.2753  0.1285 -0.2567
 8907TIP3    H148212   1.760   5.216  14.226 -1.9317  0.3794  1.2893
 8907TIP3    H248213   1.691   5.087  14.263 -0.9531 -1.0573 -1.5620
 8908TIP3   OH248214   2.298   0.722   0.103  0.1500  0.2963  0.3503
 8908TIP3    H148215   2.291   0.626   0.109  1.0693  0.1968  0.0209
 8908TIP3    H248216   2.211   0.754   0.126 -0.2714 -0.6353  0.1026
 8909TIP3   OH248217   0.736   5.957  12.823  0.0497  0.3189  0.3296
 8909TIP3    H148218   0.818   5.923  12.787 -0.4102 -1.9498  1.2185
 8909TIP3    H248219   0.679   5.881  12.827 -2.1217  1.8377 -0.2223
 8910TIP3   OH248220   1.943   1.113  11.582 -0.7554  0.1947 -0.4230
 8910TIP3    H148221   1.940   1.103  11.487  0.9836 -1.5640 -0.3717
 8910TIP3    H248222   1.891   1.191  11.600 -2.5319 -0.3774 -2.6416
 8911TIP3   OH248223   2.311   4.735   1.644 -0.1531 -0.0771 -0.3652
 8911TIP3    H148224   2.254   4.660   1.665  1.4795 -0.6913  2.5435
 8911TIP3    H248225   2.399   4.697   1.640  0.4458  1.3414 -1.2518
 8912TIP3   OH248226   3.953   3.765  16.840 -0.4151  0.1125  0.1816
 8912TIP3    H148227   3.881   3.778  16.778 -0.6063 -0.5420  0.2618
 8912TIP3    H248228   4.000   3.848  16.839 -1.3935  0.6903  0.4151
 8913TIP3   OH248229   2.738   1.680  16.807 -0.2914 -0.4744 -0.2543
 8913TIP3    H148230   2.775   1.768  16.798 -0.5169 -0.4346 -0.8603
 8913TIP3    H248231   2.693   1.681  16.891 -2.2922  0.7528 -1.2523
 8914TIP3   OH248232   2.196   0.533   3.440 -0.0422  0.6472 -0.2543
 8914TIP3    H148233   2.163   0.617   3.409  0.1105  0.0039 -2.2881
 8914TIP3    H248234   2.286   0.529   3.408 -0.3507 -0.6790 -1.0728
 8915TIP3   OH248235   6.064   1.412   3.972 -0.4855  0.5484 -0.3231
 8915TIP3    H148236   6.100   1.352   4.038 -1.2620 -1.1179 -1.3756
 8915TIP3    H248237   6.072   1.365   3.889  2.4016  3.3703 -1.8755
 8916TIP3   OH248238   5.517   5.551   1.974 -0.1716 -0.0812 -0.2178
 8916TIP3    H148239   5.501   5.535   1.881  1.2098  1.5629 -0.8077
 8916TIP3    H248240   5.608   5.527   1.987  0.0836  1.0875  0.3278
 8917TIP3   OH248241   4.463   3.464  16.485  0.7144 -0.2792 -0.4799
 8917TIP3    H148242   4.471   3.550  16.444  1.0165 -0.5468 -0.9893
 8917TIP3    H248243   4.547   3.451  16.528  1.0511 -0.7606 -1.2712
 8918TIP3   OH248244   6.336   2.937  15.513 -0.1493  0.5847 -0.2584
 8918TIP3    H148245   6.290   2.997  15.572  0.1397  0.4923  0.0646
 8918TIP3    H248246   6.277   2.863  15.504  0.0996  0.2897  0.4736
 8919TIP3   OH248247   1.981   5.121  13.054  0.0209  0.1048 -0.0685
 8919TIP3    H148248   1.995   5.117  12.959  0.9817 -0.8770  0.0996
 8919TIP3    H248249   1.886   5.121  13.064 -0.0937 -0.3347 -1.0127
 8920TIP3   OH248250   2.454   4.933  14.385  0.3373  0.0462 -0.6067
 8920TIP3    H148251   2.410   5.018  14.383  0.2646  0.0154 -0.4048
 8920TIP3    H248252   2.535   4.946  14.335  0.2722  0.2029 -0.6715
 8921TIP3   OH248253   0.238   3.749  13.738  0.1596 -0.0137 -0.5975
 8921TIP3    H148254   0.178   3.735  13.664 -0.7385 -1.1989  0.3286
 8921TIP3    H248255   0.202   3.826  13.783  0.5750  0.5686 -1.2297
 8922TIP3   OH248256   0.090   2.012   4.649  0.2062  0.6685  0.4468
 8922TIP3    H148257   0.056   1.923   4.642  1.0210  0.3962 -0.1724
 8922TIP3    H248258   0.013   2.065   4.670 -0.7105  0.1575 -1.3725
 8923TIP3   OH248259   1.953   0.013   3.590 -0.2329  0.0673 -0.8312
 8923TIP3    H148260   1.911   0.058   3.664 -1.6655  0.5963 -1.9116
 8923TIP3    H248261   2.002  -0.059   3.631 -0.9274  0.3815  0.6457
 8924TIP3   OH248262   0.312   6.746  16.864  0.2604 -0.4682  0.1574
 8924TIP3    H148263   0.224   6.763  16.828  0.2959  0.4862  0.5193
 8924TIP3    H248264   0.369   6.804  16.815  0.2963  0.9452  1.8259
 8925TIP3   OH248265   6.642   4.153  12.105  0.5641  0.1283 -0.1169
 8925TIP3    H148266   6.716   4.131  12.049 -0.2783  0.1271 -1.2776
 8925TIP3    H248267   6.598   4.225  12.059 -1.2230 -1.1241 -0.4788
 8926TIP3   OH248268   5.664   6.210  13.096  0.1611 -0.1912 -0.1647
 8926TIP3    H148269   5.652   6.286  13.039  0.3676  0.6241  0.8484
 8926TIP3    H248270   5.755   6.186  13.084  0.5114  0.6900  0.6685
 8927TIP3   OH248271   5.932   4.836  11.892  0.0720  0.1378  0.0142
 8927TIP3    H148272   5.896   4.840  11.804  0.4697  0.5677 -0.1343
 8927TIP3    H248273   5.861   4.866  11.949 -0.6903 -1.5742  0.0036
 8928TIP3   OH248274   1.017   5.227  14.286 -0.2461 -0.2089  0.0728
 8928TIP3    H148275   1.032   5.221  14.192 -2.5802 -0.7428 -0.3419
 8928TIP3    H248276   1.049   5.143  14.321 -0.0781 -0.3278 -0.3589
 8929TIP3   OH248277   5.866   4.755  13.713  0.0953  0.3916  0.1162
 8929TIP3    H148278   5.839   4.847  13.717 -1.2543 -0.0295  1.2312
 8929TIP3    H248279   5.843   4.727  13.624 -1.1533  0.6504  0.3448
 8930TIP3   OH248280   2.530   5.164  12.889 -0.4573 -0.5256 -0.4113
 8930TIP3    H148281   2.458   5.170  12.827 -1.8192  0.1265  1.1514
 8930TIP3    H248282   2.493   5.120  12.966  0.0280  1.9477  1.3826
 8931TIP3   OH248283   5.340   6.659   3.292 -0.1365  1.3919  0.1061
 8931TIP3    H148284   5.353   6.743   3.337 -0.4017  1.1657  0.6033
 8931TIP3    H248285   5.277   6.678   3.223  2.3824  2.4395 -2.1164
 8932TIP3   OH248286   6.225   2.282  14.406 -0.1603 -0.0958  0.0713
 8932TIP3    H148287   6.284   2.333  14.350 -2.5252  0.8098 -1.8124
 8932TIP3    H248288   6.157   2.251  14.346 -2.0404 -0.3771  2.2094
 8933TIP3   OH248289   6.789   6.644  14.471  0.4342 -0.7859 -0.6461
 8933TIP3    H148290   6.770   6.732  14.437  0.9130 -1.4139 -2.7063
 8933TIP3    H248291   6.703   6.603  14.480  0.2910 -0.6685 -1.3714
 8934TIP3   OH248292   2.965   3.424  17.009 -0.2430 -0.2168 -0.2185
 8934TIP3    H148293   3.054   3.456  16.995 -0.0821 -1.2938 -1.8873
 8934TIP3    H248294   2.951   3.360  16.940 -2.0792 -0.5884  0.4371
 8935TIP3   OH248295   5.505   3.891  12.954  0.3004 -0.1324 -0.5031
 8935TIP3    H148296   5.458   3.827  12.901 -0.3202 -0.2838  0.2086
 8935TIP3    H248297   5.438   3.954  12.980  0.1721 -1.0802  1.6409
 8936TIP3   OH248298   4.981   1.012  15.345 -0.1234  0.4136  1.2915
 8936TIP3    H148299   5.030   0.961  15.410 -0.9447 -0.9525  0.8733
 8936TIP3    H248300   5.045   1.031  15.276  0.0396 -0.6365  1.1428
 8937TIP3   OH248301   2.440   4.657   1.224 -0.2813 -0.3815  0.2245
 8937TIP3    H148302   2.360   4.680   1.271 -0.8698 -1.3341 -0.2776
 8937TIP3    H248303   2.467   4.574   1.262  0.9953  0.3615  1.0087
 8938TIP3   OH248304   4.213   0.336  16.447  0.0858 -0.0348  0.3773
 8938TIP3    H148305   4.224   0.241  16.453  1.5997 -0.0575 -1.6581
 8938TIP3    H248306   4.298   0.368  16.417 -0.2144  2.0602  1.6035
 8939TIP3   OH248307   6.511   6.271   5.569 -0.1488 -0.2336 -0.4541
 8939TIP3    H148308   6.600   6.289   5.600 -0.4137 -1.4965  1.1537
 8939TIP3    H248309   6.457   6.336   5.614 -0.4465 -1.6399  1.2982
 8940TIP3   OH248310   4.912   0.162   5.773  0.0752 -0.1714 -0.3253
 8940TIP3    H148311   4.848   0.105   5.816 -0.3138 -0.7339 -1.5986
 8940TIP3    H248312   4.992   0.110   5.772  0.5437  0.4832  1.1548
 8941TIP3   OH248313   3.256   2.019   0.454 -0.2369  0.4498  0.0192
 8941TIP3    H148314   3.175   2.012   0.504  0.0997  1.7336  0.8139
 8941TIP3    H248315   3.228   2.041   0.365 -0.8907 -2.8466 -0.7048
 8942TIP3   OH248316   5.933   0.818   3.250  0.3577 -0.1152  0.0349
 8942TIP3    H148317   5.903   0.730   3.229  0.8188 -0.0475 -0.9465
 8942TIP3    H248318   5.855   0.862   3.285 -0.2383 -0.4871 -0.7872
 8943TIP3   OH248319   6.642   4.385   3.936 -0.0628  0.2104 -0.7375
 8943TIP3    H148320   6.564   4.431   3.904 -0.4848 -0.1444 -0.2395
 8943TIP3    H248321   6.638   4.300   3.893  1.8813  1.3313 -3.3740
 8944TIP3   OH248322   1.731   5.628   2.735 -0.8259  0.0989  0.2098
 8944TIP3    H148323   1.689   5.702   2.692 -0.7289  0.7304  1.1695
 8944TIP3    H248324   1.806   5.667   2.780  0.0444 -0.8028 -0.4016
 8945TIP3   OH248325   5.250   0.421  10.509 -0.3474  0.1731 -0.8316
 8945TIP3    H148326   5.194   0.476  10.455  0.1954  0.9669 -0.5947
 8945TIP3    H248327   5.197   0.343  10.526 -0.8368  0.2841 -1.7908
 8946TIP3   OH248328   5.589   1.174  14.754 -0.5934  0.1993  0.1353
 8946TIP3    H148329   5.611   1.098  14.700  1.0458 -0.0515  1.0985
 8946TIP3    H248330   5.619   1.249  14.702  0.1960  0.0106  0.3041
 8947TIP3   OH248331   5.044   3.829   4.942 -0.2425 -0.1421  0.6103
 8947TIP3    H148332   4.990   3.850   5.018 -0.1053 -1.2248  1.0225
 8947TIP3    H248333   5.015   3.742   4.914  1.8030 -1.1505  1.3656
 8948TIP3   OH248334   2.297   0.890   4.295  0.6205 -0.9496  0.3892
 8948TIP3    H148335   2.248   0.879   4.377 -0.0937  0.0855  0.1233
 8948TIP3    H248336   2.276   0.812   4.244 -0.8496 -0.5120  0.2554
 8949TIP3   OH248337   3.072   3.693   5.324  0.2652 -0.2759  0.1521
 8949TIP3    H148338   3.070   3.684   5.229 -0.9093 -2.0943  0.3020
 8949TIP3    H248339   3.131   3.768   5.340  1.3854 -0.6366 -1.9301
 8950TIP3   OH248340   6.252   4.144  15.899  0.2224  0.2797  0.7071
 8950TIP3    H148341   6.258   4.235  15.871  0.2592  0.7293  2.0992
 8950TIP3    H248342   6.336   4.128  15.943  0.9876 -1.0116 -1.0840
 8951TIP3   OH248343   3.114   6.664  14.968 -0.2881  0.1615  0.1584
 8951TIP3    H148344   3.093   6.753  14.996 -0.1181  0.2946 -0.1246
 8951TIP3    H248345   3.186   6.637  15.025  0.6018  0.7318 -0.6577
 8952TIP3   OH248346   0.347   5.095   2.750  0.2830 -0.0095 -0.5000
 8952TIP3    H148347   0.278   5.155   2.777 -0.5708 -0.9748 -0.4574
 8952TIP3    H248348   0.423   5.150   2.735 -0.4084  1.0416 -0.2201
 8953TIP3   OH248349   1.527   1.404  15.206 -0.5647 -0.0247  0.4674
 8953TIP3    H148350   1.449   1.350  15.196 -1.0360  0.8120 -0.5886
 8953TIP3    H248351   1.495   1.483  15.251 -0.3573  0.3633 -0.0607
 8954TIP3   OH248352   3.796   4.170   1.766  0.9441  0.0781 -0.0060
 8954TIP3    H148353   3.842   4.247   1.798 -1.0970  0.9591  0.9979
 8954TIP3    H248354   3.713   4.204   1.733  0.1119 -1.6647  0.1884
 8955TIP3   OH248355   2.064   1.550  12.228 -0.1537  0.1391 -0.1058
 8955TIP3    H148356   2.079   1.561  12.134  1.3515 -2.1996 -0.2136
 8955TIP3    H248357   1.976   1.585  12.242 -0.7786 -0.2408 -2.5548
 8956TIP3   OH248358   5.998   4.490   5.721 -0.3692  0.0206  0.2082
 8956TIP3    H148359   5.937   4.538   5.666  0.6771  1.2500  0.0708
 8956TIP3    H248360   6.074   4.548   5.729  2.2644 -2.7086 -2.3416
 8957TIP3   OH248361   1.475   2.641  16.658  0.5288 -0.1704  0.3401
 8957TIP3    H148362   1.512   2.690  16.732  1.8990 -0.3646 -0.1940
 8957TIP3    H248363   1.424   2.571  16.700 -0.0144  0.6521  1.0948
 8958TIP3   OH248364   5.139   5.727  13.473  0.3393 -0.1680  0.4237
 8958TIP3    H148365   5.183   5.756  13.393 -2.4272  0.4978 -0.9949
 8958TIP3    H248366   5.124   5.633  13.459  0.3098 -0.1574  0.3836
 8959TIP3   OH248367   5.872   0.381   0.473  0.0603 -0.1602  0.1185
 8959TIP3    H148368   5.873   0.441   0.548  0.3741 -0.5263  0.4157
 8959TIP3    H248369   5.878   0.438   0.397  1.1414  0.1615  0.4250
 8960TIP3   OH248370   1.339   2.694  14.031 -0.1834 -0.7112  0.9220
 8960TIP3    H148371   1.401   2.684  13.959  1.9461 -1.0032  2.6999
 8960TIP3    H248372   1.265   2.740  13.992  0.7859 -1.0450 -1.4910
 8961TIP3   OH248373   2.227   2.576   5.994  0.3021 -0.3586 -0.5807
 8961TIP3    H148374   2.267   2.631   6.061  0.1266  1.3100 -1.7550
 8961TIP3    H248375   2.151   2.537   6.037 -0.0189  0.9587  0.1152
 8962TIP3   OH248376   0.454   2.686  15.001  0.4133  0.8183 -0.6101
 8962TIP3    H148377   0.509   2.632  15.058  0.2184  0.4837 -0.7383
 8962TIP3    H248378   0.491   2.674  14.914  0.6608  1.2676 -0.5709
 8963TIP3   OH248379   0.232   6.566  14.867  0.1777  0.5004  0.0703
 8963TIP3    H148380   0.196   6.632  14.926  1.8075  1.9154 -0.4445
 8963TIP3    H248381   0.189   6.583  14.783  0.9999  1.2977 -0.2015
 8964TIP3   OH248382   3.484   6.066  12.381 -0.3197 -0.2036 -0.1552
 8964TIP3    H148383   3.391   6.052  12.399  0.3345 -1.9212  2.6017
 8964TIP3    H248384   3.516   5.980  12.352  1.0281 -0.7194  2.5555
 8965TIP3   OH248385   3.248   4.424   1.004 -0.1330 -0.1323  0.0369
 8965TIP3    H148386   3.156   4.439   0.985 -0.1657 -1.7094 -1.3466
 8965TIP3    H248387   3.269   4.343   0.956  1.2769 -1.3239  2.4757
 8966TIP3   OH248388   0.813   1.274  13.608  0.0980  0.0574 -0.3844
 8966TIP3    H148389   0.766   1.336  13.664 -0.1841 -0.8964  0.4815
 8966TIP3    H248390   0.863   1.220  13.670  1.3108  0.2082 -1.2037
 8967TIP3   OH248391   0.834   2.050  11.612 -0.3030  0.0240 -0.2563
 8967TIP3    H148392   0.889   2.088  11.543  1.5594 -0.3640  0.9442
 8967TIP3    H248393   0.747   2.086  11.596  0.5005  1.4839 -1.6336
 8968TIP3   OH248394   3.905   6.324  11.831 -0.0763  0.5492  0.3538
 8968TIP3    H148395   3.840   6.272  11.878 -0.9065  1.1850 -0.0649
 8968TIP3    H248396   3.917   6.402  11.885 -1.4351  1.5385 -0.6948
 8969TIP3   OH248397   4.060   1.790  14.818 -0.0747 -0.2367 -0.2138
 8969TIP3    H148398   4.033   1.823  14.903 -0.8451 -1.0490 -0.1372
 8969TIP3    H248399   4.156   1.790  14.822 -0.0897  0.4088  0.3733
 8970TIP3   OH248400   5.988   2.148   1.555 -0.1121 -0.0488 -0.5064
 8970TIP3    H148401   6.025   2.202   1.625  0.6520 -1.0898 -0.0900
 8970TIP3    H248402   6.063   2.120   1.504 -0.1655 -2.7154  0.7190
 8971TIP3   OH248403   2.310   2.315  14.646  0.4346  0.7996  0.1750
 8971TIP3    H148404   2.373   2.388  14.646 -0.1823  1.3485 -0.4667
 8971TIP3    H248405   2.250   2.336  14.718  0.2181  0.9662 -0.0523
 8972TIP3   OH248406   5.574   0.204   2.300 -0.1430  0.3649  0.0928
 8972TIP3    H148407   5.614   0.128   2.342  0.2635  0.1243 -0.7051
 8972TIP3    H248408   5.641   0.272   2.304 -0.0016  0.2594 -0.3860
 8973TIP3   OH248409   4.402   5.081  11.457 -0.3335  0.8452 -0.1116
 8973TIP3    H148410   4.409   4.999  11.407 -1.0093  0.9657 -0.4179
 8973TIP3    H248411   4.471   5.136  11.420  0.4084  0.2797  0.3855
 8974TIP3   OH248412   0.920   5.951   1.885  0.8827 -0.4103  0.0167
 8974TIP3    H148413   0.981   6.009   1.929  1.3801 -0.3520 -0.7324
 8974TIP3    H248414   0.834   5.993   1.897  0.8718 -0.7974  1.5780
 8975TIP3   OH248415   2.406   4.632  15.632 -0.5240 -1.0587  0.2627
 8975TIP3    H148416   2.342   4.561  15.624  1.5106 -2.8451 -1.6572
 8975TIP3    H248417   2.488   4.587  15.652  0.4575  1.0021  1.0948
 8976TIP3   OH248418   5.740   3.379  11.920  0.1631  0.3721 -0.4793
 8976TIP3    H148419   5.817   3.435  11.916  0.9274 -0.4752  1.4248
 8976TIP3    H248420   5.690   3.412  11.995 -0.3824 -0.2730 -0.5492
 8977TIP3   OH248421   5.671   3.332   0.713  0.3696  0.3691  0.0735
 8977TIP3    H148422   5.720   3.266   0.762 -1.0206 -0.6045  0.2178
 8977TIP3    H248423   5.631   3.283   0.641 -0.5442  1.1012  0.0715
 8978TIP3   OH248424   2.044   6.276  13.499  0.6764  0.1151  0.0064
 8978TIP3    H148425   2.090   6.234  13.427  0.7913 -2.5882  1.5352
 8978TIP3    H248426   1.951   6.264  13.478  0.6511  1.6160 -0.8840
 8979TIP3   OH248427   5.386   2.506  14.490  0.3606 -0.1011  0.0391
 8979TIP3    H148428   5.385   2.560  14.411 -1.1933  0.3684  0.3537
 8979TIP3    H248429   5.307   2.452  14.483 -0.2796  0.5811  1.6885
 8980TIP3   OH248430   4.003   2.680  13.004 -0.2065 -0.2545 -0.6291
 8980TIP3    H148431   4.020   2.741  13.076 -2.0417 -0.4428  0.0281
 8980TIP3    H248432   4.062   2.606  13.021  1.1876  0.7797 -0.7710
 8981TIP3   OH248433   1.264   4.059   0.332 -0.5173  0.1723 -0.0606
 8981TIP3    H148434   1.224   4.130   0.383 -1.3687  0.2386 -0.8054
 8981TIP3    H248435   1.192   4.021   0.283 -0.2789 -1.9425  1.1239
 8982TIP3   OH248436   3.968   1.589   5.217 -0.1081  0.3496 -0.4482
 8982TIP3    H148437   3.969   1.523   5.148  2.7814 -0.3325  0.1248
 8982TIP3    H248438   4.030   1.556   5.283 -0.4210  2.4620  1.0083
 8983TIP3   OH248439   2.455   6.002   3.079 -0.2170 -0.4061 -0.2562
 8983TIP3    H148440   2.500   5.921   3.104 -0.5511 -0.6429 -0.4115
 8983TIP3    H248441   2.525   6.064   3.059  0.0375 -0.6943 -0.2572
 8984TIP3   OH248442   3.553   3.192   4.570  0.1078 -0.6198  0.4738
 8984TIP3    H148443   3.521   3.264   4.515  0.2556 -0.9196 -0.0173
 8984TIP3    H248444   3.623   3.230   4.622  0.4833 -0.5092 -0.1044
 8985TIP3   OH248445   0.025   4.624   5.044  0.6034  0.1990  0.5437
 8985TIP3    H148446   0.110   4.628   5.088  0.1326  1.1490  1.4057
 8985TIP3    H248447   0.014   4.711   5.005  0.5683 -0.3174 -0.6328
 8986TIP3   OH248448   0.332   0.478   3.251 -0.0166  0.5628  0.3638
 8986TIP3    H148449   0.352   0.427   3.172 -0.8020 -0.7565  0.9714
 8986TIP3    H248450   0.390   0.442   3.318  0.2022  1.2406  0.5414
 8987TIP3   OH248451   6.423   3.948   1.055  0.0676 -0.1637  0.3666
 8987TIP3    H148452   6.432   3.965   1.149  1.8353 -1.5353  0.4955
 8987TIP3    H248453   6.466   4.023   1.013  1.7783 -0.8834  0.7583
 8988TIP3   OH248454   3.084   3.262   4.514 -0.5744 -0.0574 -0.3069
 8988TIP3    H148455   3.133   3.268   4.596 -0.6127 -0.2615 -0.2707
 8988TIP3    H248456   3.037   3.179   4.519  0.8887 -0.9992 -1.3453
 8989TIP3   OH248457   3.399   4.644  12.115  0.0430 -0.4856 -0.5247
 8989TIP3    H148458   3.319   4.687  12.084 -0.0871 -0.9536 -0.8438
 8989TIP3    H248459   3.428   4.591  12.040 -0.3698 -1.7707  0.2080
 8990TIP3   OH248460   3.659   0.958  10.693  0.7278  0.5370  0.1297
 8990TIP3    H148461   3.703   1.040  10.668  0.4188  0.9531  0.9278
 8990TIP3    H248462   3.619   0.927  10.611  1.3110  0.8874 -0.3021
 8991TIP3   OH248463   4.089   3.094   6.472  0.1356  0.0749  0.1167
 8991TIP3    H148464   4.012   3.147   6.493  1.1310  0.4024  3.5207
 8991TIP3    H248465   4.127   3.073   6.557  2.8273 -1.5956 -1.3761
 8992TIP3   OH248466   6.182   4.943  11.956 -0.0865  0.2622 -0.3417
 8992TIP3    H148467   6.144   5.022  11.996  1.1903 -0.1257  1.8011
 8992TIP3    H248468   6.107   4.892  11.926 -1.1542  0.6252  1.5684
 8993TIP3   OH248469   3.801   0.824   1.510  0.1719 -0.1273  0.1446
 8993TIP3    H148470   3.848   0.908   1.503 -0.3054  0.0326 -1.6580
 8993TIP3    H248471   3.709   0.847   1.495  0.0718 -1.0067 -0.6638
 8994TIP3   OH248472   4.310   1.687   0.314  0.0900 -0.3546  0.2858
 8994TIP3    H148473   4.303   1.599   0.277  0.7457  0.1262 -1.0415
 8994TIP3    H248474   4.267   1.743   0.250  0.7533  0.4333  0.5170
 8995TIP3   OH248475   2.547   0.495   5.317  0.1838 -0.2520  0.0951
 8995TIP3    H148476   2.521   0.571   5.369  0.8339  1.6112 -2.1527
 8995TIP3    H248477   2.473   0.479   5.259  0.2314 -1.1157  0.2524
 8996TIP3   OH248478   2.465   0.829   0.468  0.1986 -0.7105  0.7159
 8996TIP3    H148479   2.500   0.905   0.517  0.1565 -0.9229  1.0813
 8996TIP3    H248480   2.375   0.853   0.448  0.8176  0.2857 -1.1408
 8997TIP3   OH248481   2.998   5.289   1.991 -0.7113  0.5630  0.5916
 8997TIP3    H148482   2.986   5.380   1.963 -3.8972  0.5621  1.6018
 8997TIP3    H248483   2.982   5.238   1.911 -0.3481  0.8423  0.3368
 8998TIP3   OH248484   5.253   5.974  16.302 -0.3991  0.1613  0.1042
 8998TIP3    H148485   5.285   6.056  16.265  0.6105 -0.9373 -1.5734
 8998TIP3    H248486   5.329   5.917  16.304 -1.5747 -1.5332 -1.0901
 8999TIP3   OH248487   2.825   5.466   5.135  0.6612  0.1179 -0.0172
 8999TIP3    H148488   2.836   5.408   5.211  0.1154  2.5441  2.0442
 8999TIP3    H248489   2.900   5.526   5.139 -0.4538  1.5635 -0.1681
 9000TIP3   OH248490   5.304   3.778   4.264  0.0396 -0.6231  0.5262
 9000TIP3    H148491   5.238   3.791   4.333 -2.8971  0.9004 -2.2609
 9000TIP3    H248492   5.260   3.722   4.200  1.8703 -0.3705 -1.0262
 9001TIP3   OH248493   3.113   0.571  11.890 -0.2123 -0.6148  0.1221
 9001TIP3    H148494   3.152   0.490  11.923  0.8047  0.0255  0.5473
 9001TIP3    H248495   3.117   0.562  11.795  1.2235 -0.4638  0.1559
 9002TIP3   OH248496   3.418   4.891   2.852  0.3506 -0.4750 -0.3477
 9002TIP3    H148497   3.460   4.977   2.851 -0.2189 -0.1629  1.0271
 9002TIP3    H248498   3.487   4.831   2.882  0.5665 -0.4197 -0.7134
 9003TIP3   OH248499   2.848   0.178   0.364 -0.0345 -0.1073 -0.4102
 9003TIP3    H148500   2.872   0.263   0.402 -0.0013  0.6370 -2.0268
 9003TIP3    H248501   2.762   0.193   0.326  0.4681 -0.4532 -1.7260
 9004TIP3   OH248502   6.363   5.913  17.190 -0.0500  0.0198 -0.1665
 9004TIP3    H148503   6.443   5.872  17.221 -0.0369  0.1538 -0.0221
 9004TIP3    H248504   6.295   5.879  17.247 -0.0601  0.0929 -0.1349
 9005TIP3   OH248505   2.423   5.536  14.901  0.1773  0.3114  0.0636
 9005TIP3    H148506   2.350   5.535  14.963  1.2590 -1.4990  1.4178
 9005TIP3    H248507   2.434   5.444  14.877  3.4150  0.1366  1.6897
 9006TIP3   OH248508   2.307   2.970  11.320 -0.7410  0.1402 -0.2004
 9006TIP3    H148509   2.250   2.954  11.244 -1.7476  1.0985  0.3162
 9006TIP3    H248510   2.246   2.998  11.389  0.4109  1.6637  0.2349
 9007TIP3   OH248511   1.822   2.564   0.130 -0.4041 -0.0064  0.0475
 9007TIP3    H148512   1.727   2.559   0.122 -0.2447 -2.1845 -1.1040
 9007TIP3    H248513   1.855   2.530   0.046  1.4057  0.8898  0.3396
 9008TIP3   OH248514   2.065   3.255  16.106 -0.0309 -0.7029 -0.8132
 9008TIP3    H148515   1.994   3.191  16.101  1.2002 -2.0707 -2.2695
 9008TIP3    H248516   2.028   3.336  16.073 -1.0613 -1.2418 -1.0160
 9009TIP3   OH248517   1.085   4.973   3.418 -0.4202  0.0541  0.4617
 9009TIP3    H148518   1.126   4.895   3.456 -0.4673  0.8990  2.3637
 9009TIP3    H248519   1.010   4.939   3.369  0.4049 -1.2008  0.0128
 9010TIP3   OH248520   1.580   5.395  14.382 -0.3629  0.3455  0.2152
 9010TIP3    H148521   1.674   5.410  14.379 -0.2013 -0.6088  0.2001
 9010TIP3    H248522   1.554   5.420  14.470 -0.2503  1.4536 -0.0590
 9011TIP3   OH248523   6.819   4.402  13.367 -0.0972  0.5131 -0.0635
 9011TIP3    H148524   6.831   4.436  13.456 -0.9418  1.8788 -0.4432
 9011TIP3    H248525   6.772   4.471  13.321 -2.9470 -1.5721 -0.5964
 9012TIP3   OH248526   6.038   4.852  15.441 -0.1769  0.0921 -0.3443
 9012TIP3    H148527   6.048   4.834  15.534 -0.4987 -1.2227 -0.5428
 9012TIP3    H248528   5.951   4.818  15.420 -0.9550  2.1490 -0.7347
 9013TIP3   OH248529   4.793   6.085  16.649  0.1856 -0.2493  0.0458
 9013TIP3    H148530   4.856   6.016  16.631 -1.4892 -1.5528 -1.1823
 9013TIP3    H248531   4.793   6.093  16.745  1.6563 -0.7140  0.1040
 9014TIP3   OH248532   1.275   5.464  15.178  0.5217  0.1449 -0.4184
 9014TIP3    H148533   1.273   5.380  15.131  1.2711  0.3632 -0.8562
 9014TIP3    H248534   1.247   5.442  15.267 -2.4128 -0.0367 -1.2534
 9015TIP3   OH248535   5.617   5.573   0.981 -0.3612 -0.2192  0.4962
 9015TIP3    H148536   5.629   5.608   1.069  0.7086 -0.5202  0.4739
 9015TIP3    H248537   5.611   5.478   0.993 -1.4728 -0.1843  0.3630
 9016TIP3   OH248538   5.228   5.524  16.700  0.5323  0.0685 -0.6683
 9016TIP3    H148539   5.151   5.467  16.712  0.3599  0.3326 -0.5327
 9016TIP3    H248540   5.268   5.529  16.786  1.2602 -0.8610 -0.9359
 9017TIP3   OH248541   2.447   1.773  15.717  0.1201  0.1337  0.1823
 9017TIP3    H148542   2.442   1.711  15.644 -0.3080 -0.6170  0.8240
 9017TIP3    H248543   2.538   1.802  15.717  0.1296  0.1345 -0.6357
 9018TIP3   OH248544   0.910   0.943  11.913  0.1911 -0.0509  0.0261
 9018TIP3    H148545   0.905   0.948  11.817 -0.2477 -0.0440  0.0487
 9018TIP3    H248546   0.928   0.850  11.930  1.6880  0.1834 -0.1119
 9019TIP3   OH248547   3.979   2.839  11.927 -0.1071 -0.1135  0.4808
 9019TIP3    H148548   3.933   2.844  12.011  1.2551 -0.0881  1.2493
 9019TIP3    H248549   4.071   2.834  11.951  0.3276  0.2828 -1.0317
 9020TIP3   OH248550   0.597   3.517   3.612  0.0460 -0.2948  0.1108
 9020TIP3    H148551   0.642   3.600   3.597  1.4874 -1.0363  0.1682
 9020TIP3    H248552   0.544   3.532   3.690 -1.1698  1.1152 -0.9278
 9021TIP3   OH248553   1.420   3.396  15.750 -0.1914 -0.5335 -0.5077
 9021TIP3    H148554   1.470   3.440  15.818 -0.7344 -0.1876 -0.3239
 9021TIP3    H248555   1.429   3.303  15.769 -0.8512 -0.4227  0.4172
 9022TIP3   OH248556   1.169   1.739   5.857  0.0675  0.1291 -0.5317
 9022TIP3    H148557   1.119   1.668   5.897  0.3234  0.2115 -0.0537
 9022TIP3    H248558   1.130   1.819   5.893 -3.9607  0.6776 -5.1524
 9023TIP3   OH248559   4.421   0.376   0.028  0.0176  0.3286  0.5790
 9023TIP3    H148560   4.328   0.374   0.051 -0.0619  0.0412  0.2389
 9023TIP3    H248561   4.423   0.355  -0.066  0.2339  2.5644  0.0118
 9024TIP3   OH248562   4.541   6.088  13.526 -0.0039  0.2932  0.4551
 9024TIP3    H148563   4.583   6.128  13.602  0.7794 -1.0671  0.7736
 9024TIP3    H248564   4.594   6.010  13.508 -0.7352  0.0767 -0.9059
 9025TIP3   OH248565   2.478   3.323   4.568 -0.6062  0.3104 -0.2221
 9025TIP3    H148566   2.392   3.348   4.603 -1.9546 -1.8697 -1.7782
 9025TIP3    H248567   2.493   3.385   4.497 -1.1292  0.3978 -0.2649
 9026TIP3   OH248568   5.077   3.147  16.881  0.3117 -0.1979 -0.1039
 9026TIP3    H148569   5.094   3.069  16.935 -0.1026 -0.3147 -0.1428
 9026TIP3    H248570   5.124   3.130  16.799  0.4728 -0.2716  0.0024
 9027TIP3   OH248571   2.753   4.569   1.956  0.2084 -0.0818  0.1588
 9027TIP3    H148572   2.713   4.656   1.956 -0.0347 -0.1823  1.2311
 9027TIP3    H248573   2.764   4.547   2.049 -2.3393 -2.3755  0.0479
 9028TIP3   OH248574   3.328   1.575   3.244  0.0627 -0.0749 -0.5018
 9028TIP3    H148575   3.386   1.610   3.176 -0.7601  1.9140 -0.2604
 9028TIP3    H248576   3.387   1.529   3.304  1.2130  0.7178 -0.9881
 9029TIP3   OH248577   1.654   3.671  14.863 -0.0659  0.0998  0.0131
 9029TIP3    H148578   1.621   3.653  14.951  1.1867  2.1620  0.9825
 9029TIP3    H248579   1.728   3.611  14.853 -1.6314 -1.8266 -0.6504
 9030TIP3   OH248580   1.772   2.471   3.551 -0.0189 -0.5906 -0.4344
 9030TIP3    H148581   1.861   2.505   3.558  0.1259 -1.1736  0.7543
 9030TIP3    H248582   1.751   2.478   3.458  1.1263 -0.1011 -0.6722
 9031TIP3   OH248583   1.444   2.958  14.881 -0.1352  0.1281 -0.5797
 9031TIP3    H148584   1.408   2.886  14.932  1.3141 -0.0036  0.3130
 9031TIP3    H248585   1.367   3.000  14.841 -0.9818 -1.9682 -1.2568
 9032TIP3   OH248586   6.810   4.771  11.602 -0.1763 -0.4426 -0.2031
 9032TIP3    H148587   6.863   4.716  11.659 -3.0434 -2.3306  0.8489
 9032TIP3    H248588   6.797   4.718  11.523 -0.6567 -0.0967 -0.3614
 9033TIP3   OH248589   6.609   0.203  16.714  0.0904 -0.4549  0.3697
 9033TIP3    H148590   6.563   0.213  16.630  0.3745 -0.9289  0.1551
 9033TIP3    H248591   6.541   0.171  16.774  0.0339 -0.7059  0.1710
 9034TIP3   OH248592   1.878   2.499   5.286 -0.1794  0.0482 -0.3073
 9034TIP3    H148593   1.848   2.505   5.377 -0.8023  1.0590 -0.5595
 9034TIP3    H248594   1.946   2.432   5.287  1.1445  1.3238  1.2799
 9035TIP3   OH248595   2.180   2.118  11.183 -0.0529  0.1987 -0.0080
 9035TIP3    H148596   2.196   2.044  11.125  0.1033 -0.6449  1.0730
 9035TIP3    H248597   2.099   2.158  11.150 -0.2101 -0.5383 -0.5338
 9036TIP3   OH248598   5.714   5.303   3.219 -0.2294  0.0548  0.0923
 9036TIP3    H148599   5.783   5.368   3.223 -0.0167 -0.1683  0.0642
 9036TIP3    H248600   5.650   5.340   3.157  0.3485 -0.1979 -0.6723
 9037TIP3   OH248601   0.767   5.200   0.396 -0.4375 -0.2646 -0.4233
 9037TIP3    H148602   0.851   5.168   0.429 -0.2680 -0.5279 -1.1046
 9037TIP3    H248603   0.730   5.127   0.348  0.0808  0.6141 -2.2370
 9038TIP3   OH248604   6.397   3.386   5.004 -0.3615 -0.2727 -0.1436
 9038TIP3    H148605   6.340   3.404   4.929 -0.5791  0.5603  0.2092
 9038TIP3    H248606   6.357   3.434   5.077 -0.4164 -1.4258  0.6266
 9039TIP3   OH248607   2.700   4.698  14.013  0.2502  0.0148 -0.5678
 9039TIP3    H148608   2.776   4.748  14.043  1.4445 -2.1121  0.2391
 9039TIP3    H248609   2.651   4.679  14.094  0.7477 -1.4972 -0.5908
 9040TIP3   OH248610   2.532   3.187   3.897  0.3575 -0.0389 -0.4627
 9040TIP3    H148611   2.485   3.208   3.977 -0.7985 -1.7089 -0.6393
 9040TIP3    H248612   2.493   3.244   3.830 -0.2700 -0.2464 -0.2780
 9041TIP3   OH248613   2.574   6.094   1.926  0.3697 -0.3752 -0.5769
 9041TIP3    H148614   2.619   6.116   1.845 -0.2115 -0.3233 -0.8868
 9041TIP3    H248615   2.638   6.041   1.975  0.1691 -1.7298 -1.7290
 9042TIP3   OH248616   4.374   5.931  11.263 -0.0360 -0.3760  0.0969
 9042TIP3    H148617   4.382   5.901  11.172  1.8015 -0.0809  0.1193
 9042TIP3    H248618   4.351   6.024  11.255 -2.3839 -0.9066  0.0004
 9043TIP3   OH248619   6.044   5.727  13.322  0.0330  0.2886 -0.2689
 9043TIP3    H148620   6.120   5.698  13.271 -0.0807 -1.2911  0.4367
 9043TIP3    H248621   5.971   5.721  13.261  0.3008  0.8475 -0.6538
 9044TIP3   OH248622   1.895   4.409  17.115 -0.0634  0.4254 -0.2154
 9044TIP3    H148623   1.864   4.362  17.193 -1.0661 -1.9370 -1.9085
 9044TIP3    H248624   1.986   4.432  17.135 -0.4239  0.2568  1.7860
 9045TIP3   OH248625   2.589   6.656  12.942  0.0270  0.1238  0.5120
 9045TIP3    H148626   2.591   6.736  12.994 -0.4383  0.7334 -0.3875
 9045TIP3    H248627   2.656   6.669  12.875 -0.2727 -0.1070  0.1657
 9046TIP3   OH248628   0.781   4.367  14.555  0.1314 -0.1365 -0.2486
 9046TIP3    H148629   0.713   4.338  14.494 -0.3790 -0.6559  0.5617
 9046TIP3    H248630   0.861   4.327  14.521 -0.1471 -0.4084 -0.5955
 9047TIP3   OH248631   0.777   4.093  16.446  0.2446  0.0756  0.4158
 9047TIP3    H148632   0.861   4.047  16.449  0.8240  0.9666 -1.2435
 9047TIP3    H248633   0.745   4.080  16.356 -1.0925  0.2895  0.8295
 9048TIP3   OH248634   1.777   0.285  14.971  0.1819  0.0339  0.5262
 9048TIP3    H148635   1.766   0.293  14.876 -1.4945  2.1081  0.8088
 9048TIP3    H248636   1.695   0.319  15.007 -0.1657 -2.7279  2.7379
 9049TIP3   OH248637   3.373   4.501  11.255 -0.5313 -0.3854 -0.5964
 9049TIP3    H148638   3.315   4.512  11.331  0.2851  2.3114 -0.2437
 9049TIP3    H248639   3.331   4.433  11.202 -2.0289 -1.1399  1.4153
 9050TIP3   OH248640   6.505   1.769   2.084 -0.2880  0.6143 -0.2032
 9050TIP3    H148641   6.418   1.740   2.110 -0.3891  1.7007  0.8120
 9050TIP3    H248642   6.530   1.712   2.012 -1.6882  0.0533 -0.2689
 9051TIP3   OH248643   2.456   4.675   6.226  0.3706  0.0869  0.6741
 9051TIP3    H148644   2.404   4.596   6.235  1.2950 -0.4168  1.9369
 9051TIP3    H248645   2.395   4.747   6.243 -0.2417 -0.4001  0.5696
 9052TIP3   OH248646   3.537   2.607   2.632  0.3808 -0.0395 -0.4405
 9052TIP3    H148647   3.600   2.562   2.688 -1.3529  0.3136  1.9732
 9052TIP3    H248648   3.558   2.700   2.641  0.9742 -0.0492 -1.5698
 9053TIP3   OH248649   0.915   0.003  15.044 -0.3046 -0.0678  0.5127
 9053TIP3    H148650   0.988   0.004  15.106 -0.1677  0.8591  0.3443
 9053TIP3    H248651   0.934  -0.069  14.985  1.1905  1.0257 -0.3824
 9054TIP3   OH248652   0.251   1.659  12.957  0.5080 -0.4019  0.4067
 9054TIP3    H148653   0.236   1.689  12.868  1.4346  0.0866  0.4024
 9054TIP3    H248654   0.326   1.600  12.951 -0.6198 -1.9227  0.5870
 9055TIP3   OH248655   6.751   5.999  13.833  0.6192  0.7004  0.0727
 9055TIP3    H148656   6.705   5.989  13.750  1.1775 -0.5162 -0.1125
 9055TIP3    H248657   6.686   5.976  13.899  0.4349  0.7556 -0.0886
 9056TIP3   OH248658   2.532   4.532   1.689  0.1891  0.2633 -0.3027
 9056TIP3    H148659   2.604   4.570   1.740 -0.6153  0.6443  0.5821
 9056TIP3    H248660   2.483   4.480   1.752  0.2782 -0.8503 -1.1336
 9057TIP3   OH248661   5.324   1.361   4.522 -0.5621  0.2175  0.3239
 9057TIP3    H148662   5.330   1.267   4.542  0.3456  0.6838  2.4840
 9057TIP3    H248663   5.402   1.379   4.469  1.0307  0.2987  2.5569
 9058TIP3   OH248664   5.601   0.317   5.077 -0.2187 -0.4368  0.0568
 9058TIP3    H148665   5.535   0.386   5.084  2.5616  2.4679 -0.4047
 9058TIP3    H248666   5.576   0.268   4.999 -1.5428  0.8927 -0.4013
 9059TIP3   OH248667   6.347   4.187   4.278  0.3924  0.1128  0.1981
 9059TIP3    H148668   6.341   4.247   4.352  1.4401 -0.5876  0.8929
 9059TIP3    H248669   6.339   4.243   4.200  2.2114  1.3150  0.8001
 9060TIP3   OH248670   5.452   2.320   0.123 -0.1762 -0.7661  0.6752
 9060TIP3    H148671   5.530   2.365   0.091 -0.1395 -0.6998  0.8598
 9060TIP3    H248672   5.482   2.232   0.145  0.3085 -0.1270  2.7448
 9061TIP3   OH248673   3.228   1.008  15.937  0.0222  0.3811  0.3349
 9061TIP3    H148674   3.158   1.030  15.876 -0.7300 -0.8513  0.7156
 9061TIP3    H248675   3.193   0.936  15.989  1.7677 -0.6478  0.1648
 9062TIP3   OH248676   0.588   2.530  12.436  0.8789  0.0130 -0.4211
 9062TIP3    H148677   0.621   2.608  12.391  2.1460 -0.9582 -1.2857
 9062TIP3    H248678   0.596   2.460  12.371 -0.1202 -0.8637  0.3625
 9063TIP3   OH248679   1.248   3.810  15.015  0.5284 -0.0675  0.1646
 9063TIP3    H148680   1.240   3.719  14.985 -0.3323  0.2542 -0.6606
 9063TIP3    H248681   1.341   3.823  15.028  0.5738 -1.3824  1.3262
 9064TIP3   OH248682   5.846   0.598  16.013 -0.3722  0.4838 -0.7044
 9064TIP3    H148683   5.841   0.526  16.076  0.0679  2.8255  2.1876
 9064TIP3    H248684   5.864   0.555  15.929  1.4027 -2.6775  1.1094
 9065TIP3   OH248685   2.100   4.392   6.512  0.5929 -0.5618 -0.1571
 9065TIP3    H148686   2.167   4.374   6.578  1.3074 -0.5401 -0.8605
 9065TIP3    H248687   2.129   4.342   6.435 -0.1379 -0.4529 -0.5054
 9066TIP3   OH248688   3.489   2.274   1.499  0.7073  0.0049 -0.1083
 9066TIP3    H148689   3.488   2.180   1.517  1.9280  0.1618  0.8952
 9066TIP3    H248690   3.469   2.280   1.406  2.1155 -1.3464 -0.5441
 9067TIP3   OH248691   5.648   4.173   2.244  0.0281  0.2472  0.2232
 9067TIP3    H148692   5.716   4.175   2.177  0.8130  0.3039  1.0037
 9067TIP3    H248693   5.663   4.252   2.296  0.4417 -0.5910  1.4251
 9068TIP3   OH248694   4.447   6.057  12.914 -0.0585  0.0787 -0.7550
 9068TIP3    H148695   4.455   6.044  12.820  2.0302  0.9806 -0.7620
 9068TIP3    H248696   4.424   6.149  12.924 -1.6777 -0.3402 -0.3888
 9069TIP3   OH248697   0.430   0.988   3.105 -0.3517  0.0685  0.3549
 9069TIP3    H148698   0.431   1.019   3.196  0.1651 -1.9381  1.0929
 9069TIP3    H248699   0.405   0.896   3.112  1.2412 -0.5616 -1.3820
 9070TIP3   OH248700   6.589   2.142  15.795  0.2937 -0.1412 -0.3270
 9070TIP3    H148701   6.573   2.150  15.701  2.3267 -2.4604 -0.9716
 9070TIP3    H248702   6.557   2.054  15.817 -1.5312  0.9056  1.5426
 9071TIP3   OH248703   3.413   2.723  10.899  0.2163 -0.1327 -0.3040
 9071TIP3    H148704   3.487   2.764  10.943 -0.1482  2.6957 -2.0434
 9071TIP3    H248705   3.451   2.652  10.848  1.4681  0.1915  0.1539
 9072TIP3   OH248706   3.941   1.562  11.093 -0.1462 -0.0409 -0.5730
 9072TIP3    H148707   4.011   1.557  11.158 -0.5276 -0.6085 -0.1874
 9072TIP3    H248708   3.890   1.481  11.107 -1.2488  0.6554 -0.3939
 9073TIP3   OH248709   0.268   6.201   5.456 -0.0050  0.1700 -0.0113
 9073TIP3    H148710   0.260   6.183   5.550  2.6748 -2.4316 -0.1218
 9073TIP3    H248711   0.358   6.233   5.446  0.2724 -1.0458 -1.8192
 9074TIP3   OH248712   3.735   6.253  11.582 -0.1590 -0.4867 -0.7249
 9074TIP3    H148713   3.687   6.175  11.611 -1.3682  0.3257 -0.4808
 9074TIP3    H248714   3.772   6.289  11.662  0.1231 -0.6155 -0.7952
 9075TIP3   OH248715   1.025   3.934   1.454 -0.2405 -0.0227 -0.5341
 9075TIP3    H148716   0.993   3.970   1.371  0.8189 -1.2644 -1.5227
 9075TIP3    H248717   1.061   3.848   1.431  0.0881 -0.3933  1.2154
 9076TIP3   OH248718   3.238   5.125  16.165 -0.2021 -0.0679  0.4792
 9076TIP3    H148719   3.174   5.155  16.101 -1.4578 -0.3590  1.5561
 9076TIP3    H248720   3.212   5.035  16.184 -0.5598  0.3586  2.2078
 9077TIP3   OH248721   2.681   6.638   3.568 -0.3411  0.1425 -0.1018
 9077TIP3    H148722   2.753   6.602   3.619 -0.5214  0.8201  0.6432
 9077TIP3    H248723   2.724   6.685   3.496 -0.0366  0.4763  0.2944
 9078TIP3   OH248724   6.244   2.720   1.358  0.0001  0.4180  0.2345
 9078TIP3    H148725   6.306   2.656   1.325 -0.4665 -1.2052  2.3225
 9078TIP3    H248726   6.297   2.781   1.409 -0.0739 -1.2182  2.3886
 9079TIP3   OH248727   2.555   3.251   2.764  0.2553  0.3694 -0.0768
 9079TIP3    H148728   2.524   3.337   2.791  0.0149  0.0791  0.5814
 9079TIP3    H248729   2.587   3.265   2.674  2.1552  1.6282  0.7228
 9080TIP3   OH248730   3.354   1.406   4.216  0.3938 -0.1081  0.1978
 9080TIP3    H148731   3.370   1.500   4.218 -0.1751 -0.0065  0.0350
 9080TIP3    H248732   3.438   1.367   4.242  0.5121  0.4523  0.6711
 9081TIP3   OH248733   0.601   6.594   1.346  0.1002 -0.3806  0.7466
 9081TIP3    H148734   0.613   6.511   1.390 -1.1853 -0.2495  1.3984
 9081TIP3    H248735   0.668   6.652   1.382 -0.6068 -0.4189  2.1986
 9082TIP3   OH248736   4.378   5.243   1.111 -0.2830 -0.5122  0.1816
 9082TIP3    H148737   4.416   5.201   1.188 -0.1294  0.4065  0.6216
 9082TIP3    H248738   4.426   5.326   1.102 -0.3271 -0.5864 -0.8757
 9083TIP3   OH248739   3.537   2.304  15.695  0.4311 -0.4289 -0.0335
 9083TIP3    H148740   3.604   2.331  15.631 -1.5709 -0.9118 -2.5229
 9083TIP3    H248741   3.454   2.319  15.649 -1.1953 -0.0586  2.8344
 9084TIP3   OH248742   0.804   3.956   3.071  0.0787 -0.5802  0.5328
 9084TIP3    H148743   0.811   3.886   3.006  1.7485  0.0201  0.0257
 9084TIP3    H248744   0.867   4.022   3.043  0.0074  0.2200  2.1369
 9085TIP3   OH248745   1.770   2.457   5.794  0.0723  0.2738 -0.4370
 9085TIP3    H148746   1.777   2.523   5.863  0.2410  0.3885 -0.5630
 9085TIP3    H248747   1.860   2.430   5.778  0.1083  0.7863 -1.1314
 9086TIP3   OH248748   4.734   1.207  17.173 -0.4075  0.3324  0.3134
 9086TIP3    H148749   4.713   1.292  17.133 -2.2053  0.1941  0.8772
 9086TIP3    H248750   4.649   1.172  17.201  0.4121 -1.2137  0.9850
 9087TIP3   OH248751   5.749   6.463   2.879  0.2639  0.7234  0.2941
 9087TIP3    H148752   5.837   6.430   2.898 -0.0780  0.0249  0.7003
 9087TIP3    H248753   5.763   6.534   2.817  1.2947  1.9654  1.8762
 9088TIP3   OH248754   5.402   4.081   2.283 -0.6370  0.7314 -0.3352
 9088TIP3    H148755   5.371   4.033   2.206  0.9535  0.5095 -0.8753
 9088TIP3    H248756   5.492   4.106   2.261  0.4523 -0.7233  2.0606
 9089TIP3   OH248757   1.069   4.645   3.264  0.0778 -0.1985  0.5954
 9089TIP3    H148758   1.142   4.631   3.204  0.4199  0.9983  0.6969
 9089TIP3    H248759   1.080   4.579   3.333  1.8591  0.8080  1.3335
 9090TIP3   OH248760   3.294   3.685   5.804 -0.3789 -0.1786  0.0681
 9090TIP3    H148761   3.344   3.738   5.741  0.4253 -0.9551  0.0289
 9090TIP3    H248762   3.340   3.696   5.887 -0.8177 -0.0028  0.2936
 9091TIP3   OH248763   6.176   1.727  13.889  0.0920  0.1010  0.2094
 9091TIP3    H148764   6.142   1.639  13.873  2.9880 -0.9224 -1.0127
 9091TIP3    H248765   6.161   1.774  13.806 -0.4172  0.3950  0.4662
 9092TIP3   OH248766   5.527   2.719  13.898  0.1494 -0.3668  0.1713
 9092TIP3    H148767   5.470   2.795  13.889  0.3335 -0.3230 -0.7709
 9092TIP3    H248768   5.609   2.747  13.858  0.5535 -0.7159  0.7537
 9093TIP3   OH248769   4.884   5.664   3.763 -0.4587  0.0121 -0.0245
 9093TIP3    H148770   4.808   5.605   3.761 -0.7128  0.3048  0.6237
 9093TIP3    H248771   4.886   5.697   3.853  1.9972 -2.0039  0.7808
 9094TIP3   OH248772   0.582   4.478   5.580 -0.1446 -0.0893 -0.0414
 9094TIP3    H148773   0.656   4.420   5.600  0.4467  0.8178  0.4816
 9094TIP3    H248774   0.504   4.423   5.594  0.3246 -0.2789  2.2857
 9095TIP3   OH248775   1.464   1.902  16.104  0.4568 -0.0519 -0.2906
 9095TIP3    H148776   1.444   1.826  16.160 -0.4734 -0.0726 -0.6191
 9095TIP3    H248777   1.382   1.952  16.103  1.5077  1.7831  1.1485
 9096TIP3   OH248778   2.563   5.240   4.806  0.3131 -0.1706  0.0500
 9096TIP3    H148779   2.508   5.258   4.730 -2.5561 -0.2869  1.9413
 9096TIP3    H248780   2.607   5.323   4.823  0.8226 -0.0743 -1.5306
 9097TIP3   OH248781   3.916   2.034  12.181  0.1999  0.2575  0.3998
 9097TIP3    H148782   3.865   2.021  12.101 -2.0530 -0.4353  1.8835
 9097TIP3    H248783   3.882   2.116  12.218  1.0692  0.4605  0.7727
 9098TIP3   OH248784   4.507   1.405  13.575 -0.3934  0.6994  0.4467
 9098TIP3    H148785   4.440   1.354  13.528 -0.2532  0.5617  0.3937
 9098TIP3    H248786   4.578   1.342  13.590 -0.4344  0.7488  0.8364
 9099TIP3   OH248787   6.113   3.461  17.098 -0.0467 -0.3447 -0.2241
 9099TIP3    H148788   6.070   3.380  17.069  2.6944 -1.4151 -1.6079
 9099TIP3    H248789   6.082   3.474  17.187 -0.1660 -3.2282  0.2208
 9100TIP3   OH248790   2.888   1.414   4.335  0.2623 -0.5979 -0.9403
 9100TIP3    H148791   2.851   1.450   4.416 -0.0397  0.1007 -1.3752
 9100TIP3    H248792   2.972   1.376   4.361  0.7252  0.6755 -0.5040
 9101TIP3   OH248793   3.024   4.540   2.640 -0.0311  0.3722  0.4127
 9101TIP3    H148794   2.987   4.495   2.716 -2.1884  1.7991  0.3130
 9101TIP3    H248795   3.109   4.573   2.669 -0.2970 -0.1186  1.8164
 9102TIP3   OH248796   0.126   3.489   6.875 -0.2379 -0.1186 -0.4790
 9102TIP3    H148797   0.195   3.466   6.937  0.1816 -0.7175 -1.1432
 9102TIP3    H248798   0.165   3.472   6.789 -1.1006 -0.1403 -0.8752
 9103TIP3   OH248799   6.434   6.037   1.973 -1.0751 -0.2533 -0.0459
 9103TIP3    H148800   6.374   6.079   1.911  0.9127 -0.0294 -1.9602
 9103TIP3    H248801   6.519   6.078   1.955 -0.3268 -0.3748  2.7094
 9104TIP3   OH248802   6.642   6.052   4.415  0.1830  0.1485  0.1962
 9104TIP3    H148803   6.666   6.008   4.334 -0.8727  2.2183 -1.3293
 9104TIP3    H248804   6.717   6.039   4.473  1.3244 -0.6665 -1.3941
 9105TIP3   OH248805   4.318   4.534  13.533 -0.3070  0.1889 -0.5159
 9105TIP3    H148806   4.241   4.479  13.521 -1.4952  1.4607  0.8216
 9105TIP3    H248807   4.324   4.547  13.627  1.1257  0.7097 -0.6510
 9106TIP3   OH248808   6.005   6.282   3.234 -0.3216  0.1130  0.2390
 9106TIP3    H148809   6.073   6.215   3.237 -0.8350 -0.3797  1.4431
 9106TIP3    H248810   5.945   6.259   3.304 -1.9082  0.3809 -0.9826
 9107TIP3   OH248811   0.492   0.525  11.310 -0.1187  0.1196 -0.4665
 9107TIP3    H148812   0.443   0.600  11.277 -1.7517 -1.1228 -0.9834
 9107TIP3    H248813   0.584   0.552  11.304 -0.6571  3.1888  2.0560
 9108TIP3   OH248814   5.706   5.346   2.355 -0.2832 -0.5777  0.3530
 9108TIP3    H148815   5.743   5.429   2.326 -0.0157 -1.0584 -0.7367
 9108TIP3    H248816   5.613   5.365   2.369 -0.3887 -0.2781 -0.6878
 9109TIP3   OH248817   6.149   2.691   2.352 -0.1697  0.5823  0.3706
 9109TIP3    H148818   6.222   2.739   2.392 -0.1722  0.4440  0.5449
 9109TIP3    H248819   6.071   2.743   2.374 -0.2448  0.1841  1.0826
 9110TIP3   OH248820   4.831   5.761  16.796 -0.1395 -0.2907 -0.1244
 9110TIP3    H148821   4.750   5.809  16.808 -0.1015 -0.1620 -0.3824
 9110TIP3    H248822   4.843   5.713  16.878 -1.0556 -1.1909 -0.5064
 9111TIP3   OH248823   4.664   1.096  15.720 -0.0892  0.3656  0.3501
 9111TIP3    H148824   4.642   1.081  15.627  0.0523  2.3067 -0.0338
 9111TIP3    H248825   4.601   1.042  15.768 -0.2602 -0.5680 -0.8726
 9112TIP3   OH248826   5.091   1.678  11.762 -1.0684 -0.4507  0.4873
 9112TIP3    H148827   5.182   1.710  11.762 -0.3611 -2.2855  1.6798
 9112TIP3    H248828   5.039   1.754  11.786  0.3260  0.2633  1.4315
 9113TIP3   OH248829   6.674   0.857   6.680 -0.3092  0.1758 -0.7325
 9113TIP3    H148830   6.690   0.773   6.637 -0.7847  0.3426 -1.2497
 9113TIP3    H248831   6.748   0.912   6.653 -0.1823  0.0309 -0.6797
 9114TIP3   OH248832   4.126   0.849   4.580  0.4439 -0.4709 -0.3951
 9114TIP3    H148833   4.106   0.861   4.488  1.1375  1.3615 -0.3566
 9114TIP3    H248834   4.042   0.834   4.622  0.0300 -0.4452 -1.2041
 9115TIP3   OH248835   4.535   0.314  11.272  0.3555 -0.4474  0.2664
 9115TIP3    H148836   4.590   0.343  11.199  0.7398  2.8086  1.6939
 9115TIP3    H248837   4.456   0.367  11.265 -0.5690 -1.6789  0.9834
 9116TIP3   OH248838   4.630   0.045  10.647 -0.6159 -0.4225  0.8626
 9116TIP3    H148839   4.678   0.110  10.595 -2.2644  2.5442  2.7400
 9116TIP3    H248840   4.635  -0.035  10.595  2.3254  0.8930 -1.2027
 9117TIP3   OH248841   5.763   6.662  12.697 -0.2287  0.4543 -0.5089
 9117TIP3    H148842   5.791   6.592  12.638  3.2010  2.9562 -2.1908
 9117TIP3    H248843   5.806   6.642  12.780 -1.8590 -0.9840  0.0528
 9118TIP3   OH248844   4.121   6.142  14.041  0.2353  0.4135 -0.3947
 9118TIP3    H148845   4.183   6.157  13.970 -1.1702 -0.3767 -1.8444
 9118TIP3    H248846   4.132   6.218  14.099 -0.9406  2.9466 -3.1990
 9119TIP3   OH248847   4.065   2.815  16.873 -0.6727 -0.1070 -0.1786
 9119TIP3    H148848   4.011   2.844  16.946 -0.2203  0.5064 -0.0755
 9119TIP3    H248849   4.049   2.721  16.866 -0.4225 -0.2494  0.9701
 9120TIP3   OH248850   5.255   6.412   5.622  0.1137  0.4968  0.2130
 9120TIP3    H148851   5.303   6.487   5.657  1.6224  0.0826 -0.8501
 9120TIP3    H248852   5.175   6.408   5.674  1.2844  1.1468  2.1695
 9121TIP3   OH248853   2.169   1.719   2.426 -0.2999 -0.3770 -0.3026
 9121TIP3    H148854   2.205   1.680   2.347 -4.0095 -1.5227 -1.6067
 9121TIP3    H248855   2.121   1.649   2.469 -1.4632  1.1227  0.9946
 9122TIP3   OH248856   0.664   0.527  12.882  0.0714  0.7526  0.3833
 9122TIP3    H148857   0.590   0.572  12.922  0.2254  0.7110  0.7147
 9122TIP3    H248858   0.720   0.503  12.955 -0.7479 -1.3546  0.3712
 9123TIP3   OH248859   4.279   2.866   1.782 -0.7278  0.4623  0.1904
 9123TIP3    H148860   4.210   2.820   1.830 -0.9219  0.8841  0.3230
 9123TIP3    H248861   4.306   2.805   1.713  0.6826 -0.8261  1.7998
 9124TIP3   OH248862   1.058   1.031  14.230 -0.2263  0.0227 -0.3739
 9124TIP3    H148863   1.096   1.117  14.214  1.5605 -0.6708 -0.0738
 9124TIP3    H248864   1.093   0.976  14.160  0.9063 -1.0751  0.9919
 9125TIP3   OH248865   1.057   2.266  15.847 -0.2166  0.0461 -0.3951
 9125TIP3    H148866   1.058   2.346  15.900 -0.7340  0.4667 -0.9980
 9125TIP3    H248867   1.012   2.292  15.767 -1.4532 -1.1505 -0.1271
 9126TIP3   OH248868   4.677   3.710   0.330  0.3464 -0.2537 -0.2309
 9126TIP3    H148869   4.731   3.658   0.389  0.5683  1.2809  0.9931
 9126TIP3    H248870   4.607   3.652   0.303  1.0150 -1.4046  0.4474
 9127TIP3   OH248871   6.592   6.009  16.543 -0.0367  0.5060  0.1848
 9127TIP3    H148872   6.687   6.020  16.537  0.0957 -0.9964 -1.4626
 9127TIP3    H248873   6.558   6.053  16.466 -0.6296  0.5592  0.4731
 9128TIP3   OH248874   6.766   1.552   0.859  0.1307 -0.0210 -0.3256
 9128TIP3    H148875   6.731   1.641   0.867  0.9008  0.2898 -0.2758
 9128TIP3    H248876   6.710   1.499   0.915  0.3656  0.6511  0.5762
 9129TIP3   OH248877   5.913   3.878  16.173 -0.1809 -0.2644 -0.0746
 9129TIP3    H148878   5.965   3.953  16.144 -3.5127  2.5128  0.3770
 9129TIP3    H248879   5.928   3.810  16.108  0.3547  2.0913 -2.5651
 9130TIP3   OH248880   3.309   3.756  11.717 -0.1550  0.5611  0.1171
 9130TIP3    H148881   3.231   3.716  11.678 -0.7546  0.8731  0.9645
 9130TIP3    H248882   3.336   3.823  11.654 -1.2813  1.2613  0.3651
 9131TIP3   OH248883   2.207   4.983  16.067  0.1088 -0.5603 -0.0413
 9131TIP3    H148884   2.253   5.014  16.145  1.0181 -1.4342 -0.2178
 9131TIP3    H248885   2.148   5.055  16.044  0.6942  0.1891  0.7552
 9132TIP3   OH248886   3.739   5.984  13.398  0.7321  0.2968 -0.2003
 9132TIP3    H148887   3.739   6.038  13.477  0.5515 -1.1943  0.8461
 9132TIP3    H248888   3.689   6.036  13.334 -0.4011  0.8890  1.1092
 9133TIP3   OH248889   0.705   6.234   3.835 -0.0997  0.0174  0.1889
 9133TIP3    H148890   0.711   6.199   3.747 -0.0733 -0.0106  0.2020
 9133TIP3    H248891   0.733   6.163   3.892 -0.1217  0.0340  0.2203
 9134TIP3   OH248892   1.156   0.774  15.806 -0.4220 -0.2547  0.0066
 9134TIP3    H148893   1.159   0.869  15.805 -1.3291 -0.1953  1.1723
 9134TIP3    H248894   1.209   0.747  15.731  0.9076  1.1333  0.4118
 9135TIP3   OH248895   3.012   1.530   0.251  0.3679  0.6792 -0.5648
 9135TIP3    H148896   2.929   1.551   0.209 -0.2338  0.4693  0.4843
 9135TIP3    H248897   3.079   1.558   0.188 -0.4618  2.3979 -0.7280
 9136TIP3   OH248898   2.029   5.381   1.655  0.1202  0.3533  0.3045
 9136TIP3    H148899   1.965   5.310   1.662 -0.4832  0.8657  0.0551
 9136TIP3    H248900   2.103   5.341   1.609 -0.8389  0.2710 -1.2518
 9137TIP3   OH248901   6.662   5.946  15.432  0.3924 -0.2890 -0.4362
 9137TIP3    H148902   6.602   5.993  15.490  0.3977 -0.4268 -0.3198
 9137TIP3    H248903   6.648   5.854  15.452  0.9035 -0.3104 -0.1445
 9138TIP3   OH248904   4.788   5.695  15.942 -0.7670  0.2207  0.1531
 9138TIP3    H148905   4.835   5.711  15.860 -1.4770 -0.0092 -0.3035
 9138TIP3    H248906   4.840   5.741  16.009 -0.0697  0.2320 -0.3888
 9139TIP3   OH248907   3.916   6.007  15.615 -0.0985  0.6464 -0.3225
 9139TIP3    H148908   3.905   5.990  15.521 -0.2351 -0.1648 -0.1647
 9139TIP3    H248909   4.011   6.001  15.629 -0.2994 -3.9161  0.4032
 9140TIP3   OH248910   4.080   3.820  11.751  0.2690 -0.1302 -0.5232
 9140TIP3    H148911   4.135   3.753  11.791  0.9894 -0.8815 -2.6904
 9140TIP3    H248912   3.991   3.795  11.774  0.6236 -0.9047  0.0472
 9141TIP3   OH248913   0.890   3.532   4.368 -0.4349  0.3519 -0.6178
 9141TIP3    H148914   0.886   3.555   4.461 -1.4439  0.7432 -0.7544
 9141TIP3    H248915   0.830   3.458   4.359  0.8803 -0.7632 -0.6700
 9142TIP3   OH248916   3.334   2.031   4.290 -0.3162 -0.2004  0.4675
 9142TIP3    H148917   3.283   2.007   4.212 -0.1806  0.2585  0.2331
 9142TIP3    H248918   3.413   2.072   4.255  0.2379 -0.9275  0.8243
 9143TIP3   OH248919   2.611   5.911  11.880 -0.1145  0.3166 -0.0494
 9143TIP3    H148920   2.570   5.849  11.940 -1.5017  1.5325  0.3320
 9143TIP3    H248921   2.564   5.899  11.797  0.3076  0.1394 -0.2617
 9144TIP3   OH248922   5.912   6.203  11.926  0.0017  0.2378  0.3331
 9144TIP3    H148923   5.968   6.225  11.852  1.0144 -0.2188  0.9372
 9144TIP3    H248924   5.910   6.107  11.927 -0.1254  0.2415  0.7970
 9145TIP3   OH248925   0.262   5.498   5.246  0.2476 -0.5412  0.0756
 9145TIP3    H148926   0.328   5.556   5.207 -0.5455 -0.8592 -1.8462
 9145TIP3    H248927   0.207   5.556   5.298  0.7167  0.0821 -0.1076
 9146TIP3   OH248928   0.754   5.734   2.845 -0.0577 -0.0639 -0.2118
 9146TIP3    H148929   0.767   5.828   2.833 -1.3377  0.1679  0.0042
 9146TIP3    H248930   0.781   5.717   2.936 -1.9907  0.5692  0.5265
 9147TIP3   OH248931   0.675   3.200  12.021  0.2433  0.8886 -0.2153
 9147TIP3    H148932   0.640   3.275  11.972  1.3316  1.2977 -0.4105
 9147TIP3    H248933   0.719   3.240  12.097  0.0102  0.3747  0.1924
 9148TIP3   OH248934   4.562   6.437   0.693 -0.3904  0.5409 -0.3636
 9148TIP3    H148935   4.474   6.454   0.729 -0.0218  0.2607  0.6858
 9148TIP3    H248936   4.619   6.497   0.741  0.0419  0.5374 -0.8680
 9149TIP3   OH248937   6.799   3.913  11.019  0.1075  0.2037 -0.0829
 9149TIP3    H148938   6.838   3.952  11.098  1.3669  1.1915 -1.1603
 9149TIP3    H248939   6.747   3.839  11.053 -0.7881  1.6035  1.8284
 9150TIP3   OH248940   3.111   4.776  14.285 -0.1255 -0.1337 -0.2880
 9150TIP3    H148941   3.102   4.730  14.369  1.3858  1.4235  0.8111
 9150TIP3    H248942   3.189   4.738  14.245 -0.4220 -0.3732 -0.6357
 9151TIP3   OH248943   6.379   2.902   2.944 -0.1573 -0.3549 -0.4605
 9151TIP3    H148944   6.474   2.903   2.956 -0.1361  2.0695 -0.2726
 9151TIP3    H248945   6.344   2.899   3.034 -0.2230  0.2373 -0.4623
 9152TIP3   OH248946   2.603   2.388   1.805  0.4440 -0.4091  0.5137
 9152TIP3    H148947   2.627   2.441   1.880 -0.9637 -0.9588  1.3933
 9152TIP3    H248948   2.670   2.407   1.739  0.1378  2.2633  0.8696
 9153TIP3   OH248949   5.984   4.681  10.717 -0.4365 -0.1558 -0.1538
 9153TIP3    H148950   6.005   4.760  10.766  1.2689 -0.7744  0.1495
 9153TIP3    H248951   5.908   4.643  10.763 -0.1166  0.3304  0.7887
 9154TIP3   OH248952   0.133   3.728  16.179  0.2516 -0.0531 -0.0350
 9154TIP3    H148953   0.097   3.695  16.262 -1.1319 -0.2301 -0.6796
 9154TIP3    H248954   0.057   3.735  16.121  1.3955 -1.5186 -1.8226
 9155TIP3   OH248955   0.628   2.543  16.442 -0.2746 -0.9361  0.2400
 9155TIP3    H148956   0.622   2.485  16.518 -0.2977 -0.7589  0.3747
 9155TIP3    H248957   0.688   2.499  16.382  2.0946  0.2825  1.5930
 9156TIP3   OH248958   1.789   2.102  10.866  0.1849  0.2559 -0.2138
 9156TIP3    H148959   1.784   2.155  10.946 -1.9548  0.8505 -0.6673
 9156TIP3    H248960   1.878   2.115  10.834  0.7574  0.8322  1.5161
 9157TIP3   OH248961   1.704   5.886  12.762 -0.4835 -0.0734  0.3761
 9157TIP3    H148962   1.784   5.842  12.789 -0.2482 -0.0765 -0.3181
 9157TIP3    H248963   1.646   5.815  12.732 -0.4563  0.0003  0.1472
 9158TIP3   OH248964   0.007   5.902   2.378 -0.5237 -0.0247 -0.1093
 9158TIP3    H148965  -0.045   5.874   2.303 -0.6475 -0.2654  0.0635
 9158TIP3    H248966   0.028   5.994   2.360  0.8638 -0.5356 -1.2275
 9159TIP3   OH248967   2.638   5.975   4.030 -0.0327 -0.5718 -0.0569
 9159TIP3    H148968   2.575   5.923   4.081  0.0567 -0.5122  0.1143
 9159TIP3    H248969   2.704   6.002   4.094 -1.3962  1.9104  0.3907
 9160TIP3   OH248970   4.252   6.724   2.525  0.3279 -0.5075  0.8344
 9160TIP3    H148971   4.294   6.810   2.531 -1.1338  0.4481 -1.3463
 9160TIP3    H248972   4.165   6.742   2.491 -0.4735 -2.7827  1.4828
 9161TIP3   OH248973   2.541   4.354   3.261 -0.1527 -0.0488  0.3678
 9161TIP3    H148974   2.527   4.274   3.311 -1.1386  0.5453  1.0768
 9161TIP3    H248975   2.541   4.424   3.327  0.5801  0.5476 -0.2473
 9162TIP3   OH248976   6.046   5.904  15.064  0.3513  0.1912  0.4076
 9162TIP3    H148977   6.057   5.998  15.079  1.2929  0.2730 -0.6350
 9162TIP3    H248978   6.099   5.863  15.132  1.7852  0.4766 -0.4968
 9163TIP3   OH248979   5.767   4.607   0.482  0.2219 -0.0665  0.1178
 9163TIP3    H148980   5.701   4.645   0.540 -0.4061 -0.7711 -0.1263
 9163TIP3    H248981   5.767   4.663   0.405 -1.1844 -0.9207 -0.5290
 9164TIP3   OH248982   1.864   0.612   6.048  0.0886  0.5419  0.4173
 9164TIP3    H148983   1.897   0.573   5.968 -0.5362  0.2015  0.3165
 9164TIP3    H248984   1.908   0.697   6.054 -2.0730  2.0034 -1.9598
 9165TIP3   OH248985   3.988   3.590   2.368 -0.2220  0.2219  0.5680
 9165TIP3    H148986   4.012   3.649   2.296 -1.9532  0.5179  0.1870
 9165TIP3    H248987   3.925   3.530   2.329 -1.0515  0.2787  1.7888
 9166TIP3   OH248988   1.217   6.597  10.743  0.7658  0.2180  1.0379
 9166TIP3    H148989   1.152   6.578  10.675 -0.0093  0.6852  1.6259
 9166TIP3    H248990   1.181   6.555  10.822  0.4731  1.6288  1.6889
 9167TIP3   OH248991   3.716   5.992   1.613  0.2627 -0.1234  0.0313
 9167TIP3    H148992   3.653   6.011   1.544  2.4195 -0.3945 -2.1716
 9167TIP3    H248993   3.742   6.078   1.646  0.4962  0.1213 -0.7705
 9168TIP3   OH248994   5.525   1.424  14.009  0.4316  0.3493 -0.0154
 9168TIP3    H148995   5.529   1.376  14.092 -1.2062  1.6676  0.9088
 9168TIP3    H248996   5.486   1.362  13.947  0.9465 -0.4003  0.4000
 9169TIP3   OH248997   4.550   4.663  11.194  1.0277  0.1358 -0.4211
 9169TIP3    H148998   4.532   4.734  11.132  0.9189  0.5182  0.0470
 9169TIP3    H248999   4.535   4.702  11.280 -0.1849 -0.7949 -0.1933
 9170TIP3   OH249000   4.458   0.809   2.860  0.5645  0.0888 -0.1072
 9170TIP3    H149001   4.375   0.856   2.851  0.7774  0.6240  0.6811
 9170TIP3    H249002   4.486   0.795   2.769  0.2735  1.0876 -0.3708
 9171TIP3   OH249003   2.390   1.467   1.181 -0.2937 -0.4322 -0.3146
 9171TIP3    H149004   2.333   1.495   1.109  0.1049 -1.9445 -1.2737
 9171TIP3    H249005   2.466   1.428   1.137  1.1813  0.9122  0.9447
 9172TIP3   OH249006   0.602   3.360   0.422  0.5774 -0.1385  0.0317
 9172TIP3    H149007   0.691   3.324   0.427 -0.7339 -3.6437  0.6889
 9172TIP3    H249008   0.582   3.386   0.512  0.8298  0.4635 -0.0795
 9173TIP3   OH249009   3.447   5.184   0.897  0.0267  0.2709 -0.7860
 9173TIP3    H149010   3.542   5.178   0.888  0.2434 -1.3862  1.6515
 9173TIP3    H249011   3.425   5.122   0.966 -2.5333  2.4227  0.5494
 9174TIP3   OH249012   0.605   0.105  14.994 -0.6587  0.7911  0.7593
 9174TIP3    H149013   0.690   0.062  15.000 -1.8930 -2.0528 -0.1117
 9174TIP3    H249014   0.542   0.035  15.011 -2.8526  2.5927  0.5080
 9175TIP3   OH249015   3.451   0.436  15.728  0.0572  0.0190  0.3805
 9175TIP3    H149016   3.466   0.342  15.737  2.6010  0.1697 -1.1681
 9175TIP3    H249017   3.495   0.475  15.804  1.8022  0.0477 -0.5726
 9176TIP3   OH249018   4.879   4.812   0.807 -0.0859 -0.4700 -0.4358
 9176TIP3    H149019   4.828   4.875   0.756  0.4046 -0.9747 -1.5758
 9176TIP3    H249020   4.914   4.751   0.742  0.5682 -1.1223  0.5075
 9177TIP3   OH249021   5.953   3.470  12.286  0.0474 -0.4860 -0.2674
 9177TIP3    H149022   5.923   3.448  12.374 -0.3726 -0.9545 -0.5203
 9177TIP3    H249023   6.017   3.540  12.299  1.1424 -1.5871  0.5308
 9178TIP3   OH249024   0.253   2.610   4.691 -0.4534 -0.3621 -0.3817
 9178TIP3    H149025   0.206   2.544   4.641  0.4493 -1.4413  0.1385
 9178TIP3    H249026   0.202   2.621   4.771  0.8117 -2.5666  0.8286
 9179TIP3   OH249027   4.132   6.252  12.089  0.4279  0.0265 -0.4505
 9179TIP3    H149028   4.106   6.308  12.162 -0.4805  0.8050 -1.3369
 9179TIP3    H249029   4.107   6.302  12.011 -0.8049 -1.7790 -1.2852
 9180TIP3   OH249030   3.940   3.658  12.279  0.0956  0.5125  0.1490
 9180TIP3    H149031   3.986   3.701  12.352  0.2281  1.1839 -0.3246
 9180TIP3    H249032   3.970   3.704  12.201 -0.7208  0.3870 -0.2531
 9181TIP3   OH249033   6.176   1.457   5.187  0.0385 -0.5113  0.2656
 9181TIP3    H149034   6.218   1.539   5.213  0.6236 -1.1631  1.4858
 9181TIP3    H249035   6.190   1.399   5.261 -2.5334 -0.9660  0.4794
 9182TIP3   OH249036   4.561   0.218   1.319 -0.5438  0.5406 -0.4087
 9182TIP3    H149037   4.590   0.194   1.230  0.3200  0.0191  0.0036
 9182TIP3    H249038   4.522   0.138   1.354 -0.1764  0.5197 -0.0405
 9183TIP3   OH249039   0.590   2.199   1.526  0.4202  0.3469  0.2189
 9183TIP3    H149040   0.540   2.273   1.492 -0.7647  0.1960  1.5245
 9183TIP3    H249041   0.564   2.126   1.470  0.6543  0.6646 -0.3090
 9184TIP3   OH249042   2.121   3.163   3.721 -0.3557 -0.4357  0.2615
 9184TIP3    H149043   2.106   3.223   3.794  1.4732  1.0231 -0.4798
 9184TIP3    H249044   2.148   3.081   3.763 -1.6136 -0.3722  1.2542
 9185TIP3   OH249045   4.487   2.579  17.136 -0.3727 -0.1422  0.0233
 9185TIP3    H149046   4.477   2.513  17.067 -0.1473  0.2871 -0.4264
 9185TIP3    H249047   4.580   2.601  17.134 -0.4700  0.2808  0.0804
 9186TIP3   OH249048   4.207   5.913   3.917  0.4071 -0.4656  0.1380
 9186TIP3    H149049   4.116   5.919   3.945  0.2171 -2.8448  0.2195
 9186TIP3    H249050   4.246   5.996   3.946 -1.5566  0.3420  0.6566
 9187TIP3   OH249051   3.093   6.033  15.103  0.4737  0.2058  0.0462
 9187TIP3    H149052   3.062   6.111  15.056 -1.1121 -0.2160  0.3344
 9187TIP3    H249053   3.048   6.035  15.187  1.8693 -0.0440  0.8471
 9188TIP3   OH249054   2.969   1.548  16.790 -0.0352  0.1203 -0.0980
 9188TIP3    H149055   2.891   1.590  16.825 -0.7334 -2.6179  1.9587
 9188TIP3    H249056   3.042   1.598  16.825 -0.8193  1.6187 -0.5505
 9189TIP3   OH249057   1.220   3.432   2.238  0.3928  0.0077  0.0110
 9189TIP3    H149058   1.150   3.464   2.182  1.8370  3.5573 -0.0081
 9189TIP3    H249059   1.299   3.438   2.183  1.0656 -1.8234  0.7020
 9190TIP3   OH249060   4.165   6.370   1.173  0.4611 -0.5932  0.0941
 9190TIP3    H149061   4.220   6.448   1.183  1.1690 -0.7341 -2.1413
 9190TIP3    H249062   4.099   6.379   1.241  0.7436  1.7659  0.1554
 9191TIP3   OH249063   4.959   3.093   3.941  0.0087 -0.5493 -0.2006
 9191TIP3    H149064   4.998   3.178   3.962 -0.0498 -0.5435 -0.1170
 9191TIP3    H249065   5.015   3.030   3.986 -0.1266 -0.5359 -0.0139
 9192TIP3   OH249066   4.239   1.046  14.766 -0.3543 -0.1461  0.3930
 9192TIP3    H149067   4.297   1.110  14.809 -0.6387  0.2529  0.1916
 9192TIP3    H249068   4.238   0.971  14.825  0.7906 -0.3761  0.1424
 9193TIP3   OH249069   3.310   3.005  14.401  0.1161  0.1669 -0.3689
 9193TIP3    H149070   3.353   3.075  14.449  1.7851 -0.6162 -0.6344
 9193TIP3    H249071   3.256   3.050  14.336  0.5126  1.1977 -0.0027
 9194TIP3   OH249072   2.323   0.229   5.660  0.0041 -0.0445  0.0535
 9194TIP3    H149073   2.400   0.284   5.642  0.5826 -0.2229  1.7798
 9194TIP3    H249074   2.264   0.286   5.709  0.4094 -0.7930  1.4570
 9195TIP3   OH249075   6.132   1.343   2.506  0.2749  0.1714 -0.8234
 9195TIP3    H149076   6.223   1.313   2.502  0.9720  1.9888  0.1307
 9195TIP3    H249077   6.098   1.329   2.417  1.8367  0.4868 -1.4995
 9196TIP3   OH249078   4.311   4.698   4.613 -0.2340  0.0943 -0.4060
 9196TIP3    H149079   4.269   4.658   4.689 -0.4782  0.0778 -0.5473
 9196TIP3    H249080   4.258   4.776   4.594 -1.1363 -0.7450 -1.5153
 9197TIP3   OH249081   5.165   6.686   1.497 -0.0771 -0.4076  0.7281
 9197TIP3    H149082   5.149   6.602   1.540 -2.1301 -0.2514  0.3588
 9197TIP3    H249083   5.162   6.750   1.568  0.3017 -0.5172  0.8470
 9198TIP3   OH249084   2.118   4.252   4.704 -0.2094  0.0007  0.3618
 9198TIP3    H149085   2.152   4.208   4.781  0.9225 -0.0817 -0.1670
 9198TIP3    H249086   2.094   4.182   4.644  0.4568  0.0831 -0.0047
 9199TIP3   OH249087   5.246   0.781   1.096 -0.1139 -0.0758  0.1050
 9199TIP3    H149088   5.327   0.797   1.048 -0.7665  0.2156 -0.9204
 9199TIP3    H249089   5.274   0.738   1.177  1.0882  0.3233 -0.0872
 9200TIP3   OH249090   4.643   6.323   4.658  0.5123 -0.6921 -0.2414
 9200TIP3    H149091   4.703   6.257   4.693 -1.2039 -2.0859  0.2231
 9200TIP3    H249092   4.621   6.291   4.570 -1.3346 -1.5405  0.4579
 9201TIP3   OH249093   2.900   3.200  11.896  0.0011 -0.0134 -0.5352
 9201TIP3    H149094   2.919   3.277  11.949 -1.4569 -1.8426  2.9637
 9201TIP3    H249095   2.849   3.234  11.822 -2.4847  2.2825  1.9880
 9202TIP3   OH249096   6.443   0.828   3.753  0.6382  0.1989  0.0006
 9202TIP3    H149097   6.439   0.851   3.846  0.4086 -1.1090  0.3345
 9202TIP3    H249098   6.536   0.819   3.735  0.6752  0.3012  0.1321
 9203TIP3   OH249099   0.253   0.436   2.544 -0.0232  0.2869 -0.2144
 9203TIP3    H149100   0.308   0.360   2.559  2.2089  1.7814 -0.3464
 9203TIP3    H249101   0.184   0.405   2.486  0.5182 -1.7268  0.1615
 9204TIP3   OH249102   1.375   2.174   4.415  0.3287 -0.1583 -0.3879
 9204TIP3    H149103   1.381   2.098   4.472 -0.2964 -1.2303 -1.7104
 9204TIP3    H249104   1.286   2.207   4.427  0.5517  0.2819  0.0745
 9205TIP3   OH249105   5.396   1.103   2.900 -0.4091  0.8284  0.2799
 9205TIP3    H149106   5.312   1.147   2.886  0.0797  1.7541  0.0995
 9205TIP3    H249107   5.461   1.166   2.867  0.3256 -0.0532  0.0028
 9206TIP3   OH249108   2.687   5.104   0.363 -0.2881 -0.2138 -0.8748
 9206TIP3    H149109   2.704   5.056   0.444 -1.5952  1.6534  0.6190
 9206TIP3    H249110   2.767   5.154   0.347 -0.1403 -0.3457 -0.5520
 9207TIP3   OH249111   5.427   1.522  11.512 -0.3773  0.4404 -0.2200
 9207TIP3    H149112   5.481   1.445  11.492  1.1436  1.4813 -0.3225
 9207TIP3    H249113   5.392   1.505  11.599  1.1164  0.2215  0.3761
 9208TIP3   OH249114   0.518   6.742   0.379  0.6333 -0.3426  0.1703
 9208TIP3    H149115   0.442   6.728   0.323  0.4650  0.3472  0.2191
 9208TIP3    H249116   0.486   6.724   0.468  0.2276  0.9891  0.3115
 9209TIP3   OH249117   3.772   4.494  16.477  0.2129  0.1584 -0.5637
 9209TIP3    H149118   3.708   4.518  16.544  0.0886 -0.3595 -0.4923
 9209TIP3    H249119   3.729   4.516  16.394  0.3759  0.8192 -0.4720
 9210TIP3   OH249120   4.554   3.108   1.375 -0.2619 -0.2592  0.3823
 9210TIP3    H149121   4.497   3.185   1.369  0.1572  0.1264  1.2773
 9210TIP3    H249122   4.520   3.059   1.449 -2.3680 -2.4973 -1.8762
 9211TIP3   OH249123   2.371   1.260  15.334 -0.2432  0.1028  0.8683
 9211TIP3    H149124   2.448   1.293  15.380 -1.0068 -0.1776  2.4079
 9211TIP3    H249125   2.389   1.277  15.242  0.9814  1.4703  1.3249
 9212TIP3   OH249126   4.065   3.767  17.096  0.5739  0.4676  0.1988
 9212TIP3    H149127   4.009   3.803  17.027 -1.4974  1.6952  2.3692
 9212TIP3    H249128   4.144   3.739  17.050 -0.0800  2.5460 -2.4796
 9213TIP3   OH249129   6.287   4.858  16.187  0.4900 -0.3406 -0.2169
 9213TIP3    H149130   6.331   4.940  16.209  0.2005 -0.3077  0.2490
 9213TIP3    H249131   6.195   4.881  16.176  0.5306 -0.4683 -0.8638
 9214TIP3   OH249132   0.269   6.445   1.244 -0.2036 -0.0898  0.3957
 9214TIP3    H149133   0.261   6.540   1.236 -1.3747 -0.0785  1.3286
 9214TIP3    H249134   0.313   6.431   1.328 -1.0809 -0.3733  0.8201
 9215TIP3   OH249135   3.061   4.192   4.050  1.0132  0.2011  0.0192
 9215TIP3    H149136   3.113   4.272   4.040  1.7619 -0.3001 -0.2226
 9215TIP3    H249137   2.983   4.206   3.997  1.6230  0.3733 -0.8531
 9216TIP3   OH249138   4.490   0.315  15.750 -0.1212  0.5832  0.4240
 9216TIP3    H149139   4.528   0.398  15.778  0.7563  0.4058 -0.1898
 9216TIP3    H249140   4.560   0.251  15.764 -0.1178  0.2716 -0.8627
 9217TIP3   OH249141   1.423   3.981   5.569 -0.2118  1.1189 -0.0581
 9217TIP3    H149142   1.402   3.953   5.480 -3.1367  0.4778  0.7264
 9217TIP3    H249143   1.423   4.076   5.565  1.4636  1.1184 -1.0487
 9218TIP3   OH249144   3.079   6.571   6.130  0.2744  0.2773 -0.2682
 9218TIP3    H149145   3.155   6.520   6.161  0.1951  0.1838 -0.2277
 9218TIP3    H249146   3.029   6.590   6.209  0.0212 -0.0449 -0.3510
 9219TIP3   OH249147   4.703   6.460   4.312 -0.1283  0.0462  0.1397
 9219TIP3    H149148   4.649   6.446   4.234  0.4334 -1.0835 -0.0723
 9219TIP3    H249149   4.738   6.548   4.301 -2.1062  0.9163  0.4200
 9220TIP3   OH249150   2.336   1.707   2.175  0.2240  0.3024  0.0482
 9220TIP3    H149151   2.420   1.751   2.178 -0.3437  1.3926  1.4681
 9220TIP3    H249152   2.278   1.769   2.130  0.2536 -0.6561 -1.3943
 9221TIP3   OH249153   6.804   1.613   2.758 -0.3615  0.2267  0.6489
 9221TIP3    H149154   6.889   1.571   2.755  0.4247  1.7186  1.2875
 9221TIP3    H249155   6.781   1.628   2.666  0.5683  0.7790  0.4988
 9222TIP3   OH249156   2.782   6.418   6.218 -0.2386  0.0219  0.1155
 9222TIP3    H149157   2.693   6.408   6.251 -0.4107 -0.0541 -0.3532
 9222TIP3    H249158   2.838   6.406   6.294 -0.6075 -0.5487  0.2998
 9223TIP3   OH249159   2.621   1.629   3.966 -0.9593 -0.0406 -0.1758
 9223TIP3    H149160   2.711   1.640   3.997 -0.4464 -0.6777 -1.3704
 9223TIP3    H249161   2.598   1.715   3.931 -1.6334  0.7612  2.0758
 9224TIP3   OH249162   3.688   6.760   6.766 -0.0762  0.0985 -0.8760
 9224TIP3    H149163   3.622   6.814   6.724  2.1171  0.2276 -4.5925
 9224TIP3    H249164   3.649   6.673   6.770 -1.7904  0.8663  0.6130
 9225TIP3   OH249165   1.530   6.364  11.983  0.1973  0.0727 -0.0385
 9225TIP3    H149166   1.568   6.396  12.064  1.1838  0.4440 -0.6277
 9225TIP3    H249167   1.437   6.388  11.988  0.1347 -0.3716  1.1921
 9226TIP3   OH249168   4.779   6.771   5.337  0.0222 -0.1690  0.3424
 9226TIP3    H149169   4.734   6.751   5.419 -0.3764 -2.3339 -0.3345
 9226TIP3    H249170   4.872   6.767   5.358 -0.0816 -0.5573  0.7367
 9227TIP3   OH249171   2.640   2.220  16.347 -0.2292  0.5544  0.3000
 9227TIP3    H149172   2.720   2.227  16.295 -1.5461  1.4421 -1.7399
 9227TIP3    H249173   2.601   2.137  16.319 -0.7025  0.8019  0.2289
 9228TIP3   OH249174   4.249   4.086  15.645 -0.0845  0.4172  0.1043
 9228TIP3    H149175   4.259   4.000  15.685  0.0038 -0.1108 -1.0029
 9228TIP3    H249176   4.246   4.147  15.719 -1.8510 -0.6800  1.0152
 9229TIP3   OH249177   6.430   4.251  13.697  0.0236 -0.6761  0.5020
 9229TIP3    H149178   6.397   4.205  13.620 -1.1795  0.1712  0.4774
 9229TIP3    H249179   6.524   4.234  13.697 -0.1215 -1.6058 -0.5135
 9230TIP3   OH249180   5.468   6.664  16.616 -0.1568 -0.7350  0.4568
 9230TIP3    H149181   5.433   6.659  16.705 -0.5605 -0.6719  0.3052
 9230TIP3    H249182   5.479   6.573  16.589  2.4598 -0.8112  1.5145
 9231TIP3   OH249183   4.849   5.018   4.737 -0.1131 -0.2664 -0.3607
 9231TIP3    H149184   4.759   5.033   4.764 -0.0162  0.7096 -0.5502
 9231TIP3    H249185   4.858   5.067   4.655 -0.0100 -2.0625 -1.4826
 9232TIP3   OH249186   6.265   4.338   5.861 -0.5826  0.1223 -0.3429
 9232TIP3    H149187   6.295   4.286   5.786 -1.3583 -0.7989 -0.0214
 9232TIP3    H249188   6.272   4.279   5.936 -0.2781  0.8847  0.2392
 9233TIP3   OH249189   0.205   2.325  11.560  0.0879 -0.3729  0.5031
 9233TIP3    H149190   0.184   2.377  11.482 -1.0646 -1.4127  0.0800
 9233TIP3    H249191   0.153   2.365  11.630 -0.4357 -0.6590  0.2834
 9234TIP3   OH249192   3.442   5.975  15.558  0.2819 -0.8222 -0.1223
 9234TIP3    H149193   3.450   6.068  15.579  0.2104  0.0345 -3.3449
 9234TIP3    H249194   3.486   5.965  15.473 -3.6099 -2.7122 -2.2032
 9235TIP3   OH249195   1.745   2.506   2.806 -0.7646 -0.6201 -0.4137
 9235TIP3    H149196   1.809   2.564   2.766  1.1291 -1.6092  1.0303
 9235TIP3    H249197   1.750   2.525   2.899 -1.2538 -2.0011 -0.0818
 9236TIP3   OH249198   4.738   3.824   2.784  0.3081  0.4382  0.0626
 9236TIP3    H149199   4.699   3.747   2.741 -0.9141  2.2084 -2.2245
 9236TIP3    H249200   4.828   3.826   2.751  1.5085 -1.7555  2.7430
 9237TIP3   OH249201   2.595   5.579  15.823  0.2750  0.4393  0.3448
 9237TIP3    H149202   2.673   5.558  15.874 -0.9786 -2.5534  1.2383
 9237TIP3    H249203   2.629   5.609  15.739  2.4674 -2.7575 -0.0695
 9238TIP3   OH249204   4.176   2.293   0.564  0.0336  0.0621 -0.0988
 9238TIP3    H149205   4.255   2.304   0.617  1.2564 -1.5636 -1.4571
 9238TIP3    H249206   4.208   2.298   0.473 -1.8385  1.8615 -0.7184
 9239TIP3   OH249207   1.746   3.764   5.649 -0.2890  0.1776 -0.1383
 9239TIP3    H149208   1.681   3.826   5.682 -0.7608  0.2014 -1.0762
 9239TIP3    H249209   1.699   3.714   5.582  0.0645 -1.2253  0.6166
 9240TIP3   OH249210   2.375   0.872   1.717  0.4175 -0.2444 -0.4628
 9240TIP3    H149211   2.318   0.825   1.656  0.5719  2.2551 -2.7459
 9240TIP3    H249212   2.460   0.829   1.711  0.0392 -0.9460 -0.8470
 9241TIP3   OH249213   1.856   3.543   3.841 -0.2064  0.1676  0.0309
 9241TIP3    H149214   1.910   3.590   3.777 -0.4645 -1.4215 -1.4485
 9241TIP3    H249215   1.834   3.460   3.797 -2.0810 -0.1413  1.4272
 9242TIP3   OH249216   2.996   5.871  16.075 -0.2121 -0.2977  0.0908
 9242TIP3    H149217   3.075   5.846  16.027 -0.6730 -0.5073 -0.5801
 9242TIP3    H249218   3.005   5.827  16.159  1.6511  1.8235  1.1022
 9243TIP3   OH249219   1.905   3.611   6.006 -0.2961 -0.3151  0.2734
 9243TIP3    H149220   1.910   3.610   5.910 -0.2967 -2.3232  0.2365
 9243TIP3    H249221   1.923   3.702   6.030  0.6107  0.0651 -1.5898
 9244TIP3   OH249222   0.421   6.203  14.791  0.0610 -0.1123  0.1117
 9244TIP3    H149223   0.467   6.158  14.861 -0.8532 -0.3880  0.5492
 9244TIP3    H249224   0.439   6.150  14.713  0.6538 -0.0928  0.2313
 9245TIP3   OH249225   0.851   6.787  14.292  0.4361 -0.1605  0.2651
 9245TIP3    H149226   0.760   6.812  14.274  0.5432  0.1886  0.2168
 9245TIP3    H249227   0.856   6.781  14.387  0.3918 -0.0826  0.2717
 9246TIP3   OH249228   0.382   4.638   5.419 -0.1970 -0.2748 -0.0979
 9246TIP3    H149229   0.377   4.547   5.390 -0.4034  0.0730 -1.2102
 9246TIP3    H249230   0.331   4.640   5.500  0.7499 -1.3653  0.5597
 9247TIP3   OH249231   0.333   5.710   5.023 -0.4046  0.3534 -0.0804
 9247TIP3    H149232   0.399   5.725   4.956 -1.9324  0.1375 -1.7138
 9247TIP3    H249233   0.290   5.629   4.997  0.0196 -0.6462  2.1127
 9248TIP3   OH249234   5.884   0.950  12.087  0.1298 -0.5730 -0.2247
 9248TIP3    H149235   5.924   0.880  12.140 -1.5733 -1.3468  0.1250
 9248TIP3    H249236   5.952   1.017  12.081  0.2128 -0.1206  3.5371
 9249TIP3   OH249237   0.499   5.149   4.449 -0.0649  0.0928 -0.0072
 9249TIP3    H149238   0.542   5.220   4.497  0.2680 -0.9577  1.3217
 9249TIP3    H249239   0.560   5.128   4.378  0.6022  0.0702  0.5620
 9250TIP3   OH249240   2.834   0.139  16.406  0.2143 -0.5187  0.0518
 9250TIP3    H149241   2.756   0.082  16.409 -1.2004  1.0683 -2.5960
 9250TIP3    H249242   2.873   0.121  16.320  1.3728  0.4807  0.3459
 9251TIP3   OH249243   3.505   0.311   3.693 -0.1081  0.1940  0.1435
 9251TIP3    H149244   3.416   0.286   3.670 -0.6408  0.9126  1.3209
 9251TIP3    H249245   3.532   0.246   3.757  0.0717  0.1905  0.0640
 9252TIP3   OH249246   5.282   3.331   5.254 -0.2515 -0.3727 -0.7182
 9252TIP3    H149247   5.333   3.285   5.188  1.4006 -0.5751  0.6238
 9252TIP3    H249248   5.343   3.394   5.292 -1.7051  1.0517 -0.6720
 9253TIP3   OH249249   5.997   5.778   2.788  0.3998 -0.7452 -0.2678
 9253TIP3    H149250   6.068   5.754   2.729 -0.5548 -2.4509 -0.7825
 9253TIP3    H249251   5.930   5.816   2.731  0.5588  0.1056  0.1008
 9254TIP3   OH249252   6.506   0.672  12.654  0.3198  0.6230  0.1453
 9254TIP3    H149253   6.482   0.761  12.629  0.8618  0.5953 -0.4774
 9254TIP3    H249254   6.507   0.623  12.572 -2.9795 -0.7125  0.7197
 9255TIP3   OH249255   1.076   5.787   4.527  0.1185 -0.0097 -0.3827
 9255TIP3    H149256   1.158   5.743   4.549  0.3710  0.2224 -0.8380
 9255TIP3    H249257   1.051   5.833   4.607 -0.4095 -1.3633  0.2688
 9256TIP3   OH249258   6.588   2.601  14.201 -0.4818  0.1827 -0.2705
 9256TIP3    H149259   6.621   2.589  14.113 -0.4297 -2.1836  0.0263
 9256TIP3    H249260   6.663   2.634  14.251 -0.7772  2.5407 -1.2536
 9257TIP3   OH249261   2.553   0.004  16.383  0.6385  0.0355 -0.1200
 9257TIP3    H149262   2.477   0.051  16.418  0.0933  0.1203 -1.3685
 9257TIP3    H249263   2.529  -0.017  16.293  2.0712 -0.0094 -0.5176
 9258TIP3   OH249264   3.236   5.533   3.709 -0.5932  0.3099  0.0905
 9258TIP3    H149265   3.252   5.564   3.620  0.0493  3.9760  1.3480
 9258TIP3    H249266   3.320   5.496   3.737 -0.4300  0.3404 -0.3500
 9259TIP3   OH249267   0.056   0.097  13.470  0.0868  0.0064 -0.4925
 9259TIP3    H149268  -0.022   0.114  13.417  0.1588  1.0229 -0.2969
 9259TIP3    H249269   0.028   0.110  13.560  0.7554  1.6601 -0.4822
 9260TIP3   OH249270   0.951   5.065   3.054 -0.5390  0.3348 -0.4474
 9260TIP3    H149271   1.030   5.066   3.107 -0.7365 -1.8821 -0.0076
 9260TIP3    H249272   0.923   5.157   3.050  0.1920  0.7419  2.2032
 9261TIP3   OH249273   0.402   6.727  13.275 -0.0846 -0.2567  0.2032
 9261TIP3    H149274   0.348   6.664  13.229  1.2035 -1.1805 -0.1190
 9261TIP3    H249275   0.361   6.736  13.361 -0.8374 -0.8000 -0.0927
 9262TIP3   OH249276   3.703   6.028   3.323  0.6135  0.0035 -0.1407
 9262TIP3    H149277   3.673   6.062   3.407 -2.1007 -0.4306 -0.8478
 9262TIP3    H249278   3.741   5.942   3.343  1.3649  0.5387  0.7948
 9263TIP3   OH249279   4.603   0.615   3.416 -0.4467  0.4256 -0.3378
 9263TIP3    H149280   4.562   0.700   3.430 -1.9669 -0.1830 -0.8236
 9263TIP3    H249281   4.550   0.574   3.347 -2.3938 -2.4965  2.5473
 9264TIP3   OH249282   4.525   6.345  11.559 -0.2052  0.0974  0.4654
 9264TIP3    H149283   4.535   6.252  11.539 -1.6142 -0.0723  0.4736
 9264TIP3    H249284   4.614   6.380  11.554  0.4150 -1.3369  0.9337
 9265TIP3   OH249285   4.686   6.139  14.369  0.6612  0.6482  0.1819
 9265TIP3    H149286   4.639   6.058  14.390 -0.3066  1.2798  0.5366
 9265TIP3    H249287   4.762   6.110  14.318 -0.6914 -0.3312 -1.3672
 9266TIP3   OH249288   5.766   0.851  13.278  0.2474  0.5919 -0.2525
 9266TIP3    H149289   5.807   0.909  13.342 -1.0430  1.0610  0.1788
 9266TIP3    H249290   5.679   0.888  13.263  0.3845  0.3166 -2.0494
 9267TIP3   OH249291   2.472   1.609   5.057 -0.2973  0.1462  0.5983
 9267TIP3    H149292   2.543   1.663   5.022 -0.0620  0.2764  1.2598
 9267TIP3    H249293   2.394   1.664   5.048  0.0482  0.8777  1.8788
 9268TIP3   OH249294   5.249   0.468   3.931  0.3114 -0.2691 -0.0915
 9268TIP3    H149295   5.180   0.463   3.996  0.8691 -1.8820  0.4262
 9268TIP3    H249296   5.318   0.520   3.973 -0.2418  0.6586 -0.3063
 9269TIP3   OH249297   3.135   2.195  16.104 -0.4804  0.0686 -0.3127
 9269TIP3    H149298   3.102   2.113  16.068  2.0403 -1.9920  1.6423
 9269TIP3    H249299   3.216   2.212  16.056  0.2222  0.0569  0.8084
 9270TIP3   OH249300   5.997   5.951  12.471 -0.8304  0.6372  0.2332
 9270TIP3    H149301   5.925   5.990  12.420 -0.1091 -0.0907 -1.4375
 9270TIP3    H249302   6.075   5.998  12.441 -0.2888 -0.3190  0.1120
 9271TIP3   OH249303   2.811   1.914  15.648 -0.1362  0.4015  0.0867
 9271TIP3    H149304   2.802   1.996  15.601 -0.4759 -0.6599 -1.8038
 9271TIP3    H249305   2.906   1.903  15.659 -0.1083  1.2117  0.6784
 9272TIP3   OH249306   3.170   5.496  16.476 -0.7982  0.2348 -0.1449
 9272TIP3    H149307   3.260   5.527  16.487 -1.3661  1.6603  0.7328
 9272TIP3    H249308   3.168   5.412  16.523  0.5427 -0.8114 -1.8321
 9273TIP3   OH249309   2.172   3.204   3.246 -0.4334  0.3159 -0.1546
 9273TIP3    H149310   2.267   3.217   3.249 -0.3379 -0.4679  0.4056
 9273TIP3    H249311   2.158   3.140   3.177 -0.3420 -1.1891  1.1632
 9274TIP3   OH249312   3.992   3.363   4.844 -0.3108 -0.1503  0.2650
 9274TIP3    H149313   3.971   3.277   4.808 -0.4124  0.0077 -0.0595
 9274TIP3    H249314   4.082   3.355   4.875 -0.7809 -0.8025  1.5607
 9275TIP3   OH249315   3.795   0.620  15.755 -0.2885  0.0378 -0.2000
 9275TIP3    H149316   3.750   0.703  15.770 -1.2679 -0.0664 -2.1797
 9275TIP3    H249317   3.865   0.618  15.820 -0.7695  2.0036  0.4420
 9276TIP3   OH249318   2.992   5.337  12.143  0.1965 -0.2375 -0.1715
 9276TIP3    H149319   2.997   5.260  12.200  0.8052  0.9553  1.4842
 9276TIP3    H249320   2.901   5.341  12.115 -0.4259 -0.1995  1.7319
 9277TIP3   OH249321   3.635   6.483  14.295  0.4860  0.0116 -0.4613
 9277TIP3    H149322   3.551   6.528  14.280  1.0314  1.7065  1.2709
 9277TIP3    H249323   3.641   6.474  14.390  1.9380 -0.8224 -0.6046
 9278TIP3   OH249324   6.721   2.497   4.334  0.2626 -0.0776 -0.4777
 9278TIP3    H149325   6.756   2.409   4.344  0.6363 -0.0571 -1.4299
 9278TIP3    H249326   6.627   2.484   4.319  0.3388 -0.3306 -0.7476
 9279TIP3   OH249327   5.302   2.702   0.849  0.3892 -0.3103 -0.0854
 9279TIP3    H149328   5.316   2.762   0.775 -0.8629 -0.2796 -0.3145
 9279TIP3    H249329   5.335   2.618   0.817 -0.6932 -0.4351 -0.9220
 9280TIP3   OH249330   6.306   3.443   0.513 -0.2583 -0.6430 -0.4879
 9280TIP3    H149331   6.284   3.419   0.603 -0.0543  1.1205  0.0835
 9280TIP3    H249332   6.225   3.432   0.464 -0.6920 -0.4524  0.1818
 9281TIP3   OH249333   6.683   2.893  12.623 -0.4807 -0.1366 -0.2509
 9281TIP3    H149334   6.761   2.837  12.621 -0.6238 -0.3296 -0.4619
 9281TIP3    H249335   6.647   2.881  12.710  0.1903  0.5924  0.1384
 9282TIP3   OH249336   4.129   3.869  14.421  0.6102  0.0052 -0.2307
 9282TIP3    H149337   4.119   3.908  14.508  0.2569 -1.3453  0.3553
 9282TIP3    H249338   4.223   3.871  14.405  0.5851  1.3493 -0.3532
 9283TIP3   OH249339   0.699   6.016  15.543 -0.1999 -0.7262  0.0225
 9283TIP3    H149340   0.631   6.020  15.610 -0.4989 -0.9058 -0.2663
 9283TIP3    H249341   0.695   6.100  15.499 -0.5336 -0.9017 -0.2833
 9284TIP3   OH249342   2.648   4.386   2.341  0.3212 -0.2787 -0.3480
 9284TIP3    H149343   2.603   4.341   2.269 -1.9734 -0.0072  0.8239
 9284TIP3    H249344   2.723   4.428   2.300 -0.2783 -1.0553 -2.3666
 9285TIP3   OH249345   3.060   6.567   5.838 -0.2283  0.6186  0.8758
 9285TIP3    H149346   3.079   6.654   5.873  0.5771  0.3522  1.1427
 9285TIP3    H249347   3.016   6.521   5.910  1.4564  0.0601  1.6024
 9286TIP3   OH249348   1.443   3.094  12.116  0.1825  0.5838  0.6141
 9286TIP3    H149349   1.496   3.106  12.195  0.2941  0.3462  0.5756
 9286TIP3    H249350   1.363   3.142  12.134  0.3471  0.8140  0.7368
 9287TIP3   OH249351   2.948   5.135   4.074 -1.0843 -0.0397  1.1328
 9287TIP3    H149352   2.949   5.071   4.002 -0.5768  0.5468  0.6118
 9287TIP3    H249353   2.999   5.093   4.143 -1.2208 -0.4308  0.9993
 9288TIP3   OH249354   1.429   4.520  15.334 -0.5427 -0.5760 -0.0806
 9288TIP3    H149355   1.372   4.556  15.402  0.8199  0.8738  0.3770
 9288TIP3    H249356   1.443   4.429  15.360 -2.1690 -0.7993  0.0907
 9289TIP3   OH249357   5.104   0.251  12.264  0.1738 -0.2027  0.1905
 9289TIP3    H149358   5.036   0.184  12.265 -0.1290  0.0644 -0.6591
 9289TIP3    H249359   5.173   0.215  12.209  0.0692  0.1191 -0.1578
 9290TIP3   OH249360   1.031   5.443   0.538 -0.1276  0.1230 -0.0433
 9290TIP3    H149361   0.958   5.427   0.599 -0.3487 -0.4767 -0.4552
 9290TIP3    H249362   1.095   5.491   0.590 -0.2369 -0.5333  0.7165
 9291TIP3   OH249363   3.550   1.240  16.823  0.3517 -0.0823  0.0687
 9291TIP3    H149364   3.484   1.260  16.756 -0.7624 -0.3152  1.0548
 9291TIP3    H249365   3.499   1.209  16.898  1.5956 -0.2546  0.8719
 9292TIP3   OH249366   2.914   3.953  15.823  0.4976 -0.5443  0.1645
 9292TIP3    H149367   2.965   3.917  15.895 -0.5720  0.9687  1.7482
 9292TIP3    H249368   2.954   4.039  15.807 -0.6282  0.0457  0.4481
 9293TIP3   OH249369   3.033   0.535  11.204 -0.2653 -0.2134  0.5662
 9293TIP3    H149370   3.083   0.582  11.137  0.1673 -0.0329  1.0109
 9293TIP3    H249371   2.996   0.460  11.157  0.0150 -0.0803  0.1181
 9294TIP3   OH249372   3.757   6.683  14.115 -0.1595 -0.3241 -0.2982
 9294TIP3    H149373   3.730   6.610  14.172  0.6495 -0.4886 -0.1194
 9294TIP3    H249374   3.766   6.757  14.174 -0.4550 -0.2057 -0.3990
 9295TIP3   OH249375   3.380   1.931   2.946  0.2247 -0.3002 -0.2554
 9295TIP3    H149376   3.465   1.937   2.901 -0.4768  0.8814 -1.4893
 9295TIP3    H249377   3.339   1.853   2.907  0.7435 -0.9236  0.4020
 9296TIP3   OH249378   0.767   1.076   2.457 -0.4951  0.0241  0.2100
 9296TIP3    H149379   0.804   1.161   2.481 -1.6132 -0.0814  2.6244
 9296TIP3    H249380   0.826   1.042   2.389  0.9733  1.9382  0.4430
 9297TIP3   OH249381   5.899   1.838   1.190 -0.1624 -0.4221  0.6982
 9297TIP3    H149382   5.897   1.901   1.262 -0.7322  0.1960  0.1582
 9297TIP3    H249383   5.809   1.808   1.181 -0.3605  0.4482 -0.5444
 9298TIP3   OH249384   0.297   3.639   1.672 -0.0560  0.2674  0.6078
 9298TIP3    H149385   0.248   3.664   1.751  1.3591  1.2623  1.2177
 9298TIP3    H249386   0.360   3.574   1.703 -0.8273 -0.8772 -0.1370
 9299TIP3   OH249387   5.079   2.338  11.282 -0.0348  0.2667  0.1813
 9299TIP3    H149388   4.988   2.363  11.266  0.0900  0.8648  0.3729
 9299TIP3    H249389   5.099   2.274  11.214 -0.4488  0.4946 -0.1592
 9300TIP3   OH249390   2.745   3.733  13.590 -0.1544  0.0048  0.2551
 9300TIP3    H149391   2.724   3.703  13.501 -0.5948 -0.2137  0.4323
 9300TIP3    H249392   2.801   3.664  13.625 -3.4875 -2.1920  1.7160
 9301TIP3   OH249393   1.109   6.532   5.672  0.1055 -0.1878  0.3543
 9301TIP3    H149394   1.114   6.619   5.633 -0.2033 -0.6041 -0.6474
 9301TIP3    H249395   1.030   6.535   5.727 -1.8837 -0.7880 -2.2466
 9302TIP3   OH249396   5.216   5.736   4.960 -0.0698  0.2677  0.1066
 9302TIP3    H149397   5.251   5.785   5.035  1.0731  0.7655 -0.7337
 9302TIP3    H249398   5.244   5.784   4.883 -1.0750 -0.3416 -0.6781
 9303TIP3   OH249399   6.714   6.024  15.734  0.3472 -0.2133  0.1365
 9303TIP3    H149400   6.649   6.031  15.804 -0.6954  1.9714 -0.9443
 9303TIP3    H249401   6.706   5.934  15.703 -2.9301  0.1790 -0.5698
 9304TIP3   OH249402   3.317   1.309  14.974 -0.7835 -0.2778  0.5569
 9304TIP3    H149403   3.317   1.228  15.026  4.6959  0.8006  2.9360
 9304TIP3    H249404   3.394   1.302  14.919 -0.2673  3.1350  0.6533
 9305TIP3   OH249405   2.529   6.746  13.404  0.0352  0.1741 -0.0443
 9305TIP3    H149406   2.553   6.662  13.366  1.6085  0.2455  0.7152
 9305TIP3    H249407   2.483   6.723  13.485  2.0534 -0.0134  1.1135
 9306TIP3   OH249408   0.786   1.886  10.928  0.0595 -0.0241 -0.5058
 9306TIP3    H149409   0.840   1.839  10.991 -0.2743 -2.7065 -2.0739
 9306TIP3    H249410   0.848   1.916  10.861 -0.0653 -1.1300 -1.1470
 9307TIP3   OH249411   3.208   1.035   3.854  0.2146  0.1669  0.1769
 9307TIP3    H149412   3.292   1.044   3.900 -0.1468  3.8951  0.4463
 9307TIP3    H249413   3.143   1.027   3.923  0.2554 -3.9315 -0.0389
 9308TIP3   OH249414   4.753   2.976   1.856  0.4388 -0.3013 -0.1166
 9308TIP3    H149415   4.745   2.881   1.851 -0.7916 -0.1818 -0.7020
 9308TIP3    H249416   4.777   3.003   1.768 -0.7332  0.0438 -0.3474
 9309TIP3   OH249417   1.035   4.410   5.056 -0.0812 -0.3193 -0.3240
 9309TIP3    H149418   0.952   4.428   5.011 -0.5740  0.4659  0.8522
 9309TIP3    H249419   1.070   4.496   5.078 -0.8252 -0.6135  2.4649
 9310TIP3   OH249420   2.214   4.237  14.069 -0.4475  0.0231 -0.1148
 9310TIP3    H149421   2.299   4.197  14.082 -0.9028 -1.0439 -0.3025
 9310TIP3    H249422   2.165   4.217  14.149 -0.8866 -0.3319 -0.4695
 9311TIP3   OH249423   3.706   3.535  11.895 -0.4705 -0.4216  0.0045
 9311TIP3    H149424   3.745   3.449  11.912 -0.2967 -0.3795 -0.1798
 9311TIP3    H249425   3.674   3.530  11.806  0.1348 -0.0753 -0.2400
 9312TIP3   OH249426   0.342   1.417  12.058 -0.2409 -0.0036  0.2017
 9312TIP3    H149427   0.359   1.333  12.101 -2.1217 -0.7005 -0.3141
 9312TIP3    H249428   0.295   1.468  12.123 -0.1634  0.1957  0.1023
 9313TIP3   OH249429   0.990   6.351  12.847 -0.4098 -0.1999  0.0999
 9313TIP3    H149430   0.998   6.442  12.875 -0.3440  0.0100 -0.5762
 9313TIP3    H249431   1.029   6.301  12.918 -0.4169  0.3006  0.4655
 9314TIP3   OH249432   0.645   6.049   1.853  0.1239 -0.7891  0.2026
 9314TIP3    H149433   0.649   6.141   1.878  2.0198 -0.7462 -0.0838
 9314TIP3    H249434   0.603   6.048   1.767  2.3739  0.1434 -0.9907
 9315TIP3   OH249435   2.835   2.048   4.276 -0.2497 -0.1215  0.4468
 9315TIP3    H149436   2.787   1.973   4.240 -0.2483 -0.0522  0.3002
 9315TIP3    H249437   2.861   2.099   4.200  0.9855 -0.7072  0.4604
 9316TIP3   OH249438   3.757   2.700   3.362  0.1930 -0.3434 -0.1267
 9316TIP3    H149439   3.663   2.713   3.377  0.5281  1.4066  0.6937
 9316TIP3    H249440   3.762   2.656   3.277 -1.3013  1.5708 -1.2855
 9317TIP3   OH249441   1.961   0.040   4.292 -0.2660 -0.4446 -0.5271
 9317TIP3    H149442   1.919  -0.010   4.362 -1.9927  2.3510  0.5773
 9317TIP3    H249443   1.983   0.124   4.333  1.7062  0.0898 -2.5157
 9318TIP3   OH249444   5.201   4.668  12.010  0.2654 -0.5681 -0.4209
 9318TIP3    H149445   5.117   4.660  12.055  0.8670 -1.3256  0.6044
 9318TIP3    H249446   5.188   4.740  11.948 -0.6033  0.5080  0.9416
 9319TIP3   OH249447   1.768   0.119  13.951  0.1711  0.0147 -0.4844
 9319TIP3    H149448   1.688   0.102  13.901 -0.0792 -0.3160  0.0163
 9319TIP3    H249449   1.794   0.208  13.926  0.8082 -0.6044 -2.2255
 9320TIP3   OH249450   5.715   4.294  13.572  0.0009  0.5406 -0.1650
 9320TIP3    H149451   5.663   4.213  13.567 -1.1627  1.2989 -0.6672
 9320TIP3    H249452   5.711   4.330  13.484  0.5299  1.1426  0.0567
 9321TIP3   OH249453   5.489   4.683   0.928  0.0833 -0.7751 -0.0633
 9321TIP3    H149454   5.446   4.601   0.903  0.5363 -1.0632  0.0929
 9321TIP3    H249455   5.582   4.662   0.927  0.1580 -0.5348  0.9305
 9322TIP3   OH249456   4.925   1.747   6.623  0.3769  0.2873  0.5296
 9322TIP3    H149457   4.942   1.841   6.625  1.2558  0.1259  0.9373
 9322TIP3    H249458   4.844   1.738   6.572 -0.2614  1.3462  1.3164
 9323TIP3   OH249459   5.921   0.959   5.187 -0.3441  0.0691  0.6984
 9323TIP3    H149460   5.912   0.875   5.234  1.1524 -0.1761  0.6076
 9323TIP3    H249461   5.998   0.947   5.133 -0.5186  1.2894  0.1573
 9324TIP3   OH249462   4.773   1.187  10.126  0.3922 -0.4540  0.2506
 9324TIP3    H149463   4.806   1.147  10.045 -0.0745 -0.9770  0.3139
 9324TIP3    H249464   4.790   1.122  10.194 -0.7808 -0.7477  0.2800
 9325TIP3   OH249465   1.998   5.332  16.171 -0.3766 -0.3127  0.7351
 9325TIP3    H149466   2.005   5.250  16.220 -0.9785  0.1037  1.5490
 9325TIP3    H249467   2.046   5.316  16.090 -1.0884 -1.7208  0.5498
 9326TIP3   OH249468   0.745   4.190  11.045  0.2028 -0.0987  0.1044
 9326TIP3    H149469   0.743   4.262  11.108 -0.8923 -0.0551  0.0414
 9326TIP3    H249470   0.700   4.118  11.089 -0.5129 -0.0915 -0.5918
 9327TIP3   OH249471   1.483   4.213  12.405  0.1766 -0.0338 -0.4039
 9327TIP3    H149472   1.513   4.283  12.346 -0.8367  0.3321 -0.5028
 9327TIP3    H249473   1.547   4.213  12.476  0.3612  0.7922 -0.5594
 9328TIP3   OH249474   6.701   6.242   1.143  0.6628 -0.2399 -0.3285
 9328TIP3    H149475   6.795   6.260   1.148  0.5313  0.3410  0.1535
 9328TIP3    H249476   6.682   6.190   1.222 -0.2363  3.5436  2.2169
 9329TIP3   OH249477   6.742   5.187   1.622  0.0290 -0.1947 -0.0522
 9329TIP3    H149478   6.647   5.176   1.627  0.2164 -1.8649  0.1145
 9329TIP3    H249479   6.778   5.113   1.670  1.4263  0.3297 -0.2446
 9330TIP3   OH249480   4.096   4.828   3.344  0.4457  0.0674 -0.3288
 9330TIP3    H149481   4.178   4.779   3.333  0.8766  0.4217  1.1105
 9330TIP3    H249482   4.090   4.882   3.266  2.1655  0.8422  0.0367
 9331TIP3   OH249483   3.985   1.894  11.377 -0.6336 -0.3222  0.1842
 9331TIP3    H149484   3.913   1.832  11.364 -0.2363 -1.1358  1.6482
 9331TIP3    H249485   4.051   1.845  11.425  1.1211  0.2813 -1.4852
 9332TIP3   OH249486   4.284   5.754  14.619  0.1975 -0.3837 -0.2353
 9332TIP3    H149487   4.221   5.687  14.592 -0.8547  0.3918  0.2409
 9332TIP3    H249488   4.278   5.821  14.551  0.0058  0.0089  0.1696
 9333TIP3   OH249489   0.316   0.031  15.932  0.6357 -0.2171  0.3036
 9333TIP3    H149490   0.292  -0.028  16.004  2.9634 -1.3713  0.2106
 9333TIP3    H249491   0.237   0.034  15.877 -0.1887 -1.7117  1.3119
 9334TIP3   OH249492   0.830   6.457   2.313  0.3981 -0.1608  0.7476
 9334TIP3    H149493   0.769   6.440   2.385 -0.1887 -0.0441  0.2807
 9334TIP3    H249494   0.777   6.500   2.246  0.5888 -1.5335 -0.3445
 9335TIP3   OH249495   0.407   3.774  12.924  0.4781  0.6134 -0.2436
 9335TIP3    H149496   0.340   3.826  12.969  0.6064  0.8160 -0.2884
 9335TIP3    H249497   0.430   3.705  12.987 -1.2011 -0.6687 -0.9512
 9336TIP3   OH249498   6.611   2.675  16.756  0.0179  0.1032  0.7809
 9336TIP3    H149499   6.542   2.612  16.776 -1.2772  1.6193  1.2534
 9336TIP3    H249500   6.666   2.629  16.692 -1.1663 -1.3052  0.6995
 9337TIP3   OH249501   1.818   3.714  14.397 -0.1261  0.1135 -0.0101
 9337TIP3    H149502   1.909   3.724  14.367  0.0418 -0.6087  0.2353
 9337TIP3    H249503   1.806   3.619  14.405 -1.1117  0.1714 -0.6730
 9338TIP3   OH249504   4.751   4.212   0.870  0.2057 -0.5799  0.0088
 9338TIP3    H149505   4.730   4.192   0.961  0.6853  1.6525  0.6554
 9338TIP3    H249506   4.667   4.238   0.831  0.4379  1.2564  0.6347
 9339TIP3   OH249507   5.570   0.451  14.269 -0.3237 -0.0283  0.2375
 9339TIP3    H149508   5.548   0.443  14.362  1.0788  0.7022  0.6612
 9339TIP3    H249509   5.550   0.365  14.232 -2.8237  0.2383  0.7534
 9340TIP3   OH249510   0.809   1.030  16.435 -0.4897  0.1201 -0.4763
 9340TIP3    H149511   0.826   1.110  16.485 -0.5449 -0.0593 -0.1657
 9340TIP3    H249512   0.820   0.959  16.499 -0.1744 -0.1372 -0.8114
 9341TIP3   OH249513   6.199   1.532  13.508 -0.0016  0.2215  0.4140
 9341TIP3    H149514   6.204   1.511  13.414 -0.2623 -2.7886  0.9506
 9341TIP3    H249515   6.120   1.586  13.516 -0.3011  0.0604 -1.0477
 9342TIP3   OH249516   4.997   6.673   5.980 -0.0447  0.3964  0.1753
 9342TIP3    H149517   5.088   6.698   5.962  0.4130 -0.6220  0.9438
 9342TIP3    H249518   5.004   6.606   6.048 -1.3274 -0.2910 -0.3351
 9343TIP3   OH249519   4.263   0.004   2.160  0.8376  0.2236  0.1510
 9343TIP3    H149520   4.211  -0.022   2.236 -0.2613  0.4624 -0.4895
 9343TIP3    H249521   4.221  -0.041   2.086  0.6754  1.5241 -0.5735
 9344TIP3   OH249522   2.635   0.557  14.679  0.0263 -0.5855  0.4559
 9344TIP3    H149523   2.728   0.574  14.664  0.4425 -2.2562  0.9494
 9344TIP3    H249524   2.623   0.571  14.772  0.5795 -3.5226  1.0619
 9345TIP3   OH249525   2.255   3.202  14.943 -0.6374  0.2320  0.4101
 9345TIP3    H149526   2.216   3.224  15.028  0.2474 -1.9336  1.4649
 9345TIP3    H249527   2.186   3.155  14.897 -1.1870  1.5909 -0.1714
 9346TIP3   OH249528   2.467   2.282   2.868  0.3946  0.4128  0.8901
 9346TIP3    H149529   2.439   2.209   2.924 -0.2150  1.0854  1.4928
 9346TIP3    H249530   2.396   2.347   2.876  1.3136  1.4335  1.0682
 9347TIP3   OH249531   5.980   1.125  16.004 -0.3501  0.4794 -0.0084
 9347TIP3    H149532   5.985   1.121  16.099  2.0366  0.4550 -0.0721
 9347TIP3    H249533   5.961   1.036  15.977 -0.2014  0.3189  0.4077
 9348TIP3   OH249534   1.077   5.585   2.810 -0.5458 -0.2886  0.1606
 9348TIP3    H149535   1.097   5.629   2.893  1.0812  0.3617 -0.5303
 9348TIP3    H249536   1.054   5.496   2.836  1.2020 -0.4757  1.2801
 9349TIP3   OH249537   6.183   0.172  13.555  0.7440 -0.0865 -0.6424
 9349TIP3    H149538   6.234   0.247  13.586  1.4007 -1.3369  1.4927
 9349TIP3    H249539   6.196   0.173  13.460  3.5187  0.5740 -0.3580
 9350TIP3   OH249540   6.312   3.294   0.187  0.5010 -0.1007 -0.3904
 9350TIP3    H149541   6.374   3.263   0.252  0.3776 -0.7319 -0.5716
 9350TIP3    H249542   6.253   3.221   0.172 -1.0500  0.8826  0.6638
 9351TIP3   OH249543   3.319   6.411  13.411 -0.3211 -0.6265 -0.3171
 9351TIP3    H149544   3.403   6.450  13.387 -0.0149 -0.6887  0.5899
 9351TIP3    H249545   3.315   6.330  13.360  0.6482 -1.1311  0.3748
 9352TIP3   OH249546   5.041   1.139   0.409 -0.4209 -0.4853 -0.0735
 9352TIP3    H149547   5.126   1.129   0.452  0.2544  2.2362 -0.6057
 9352TIP3    H249548   5.030   1.059   0.359  0.1894 -2.4291  2.6490
 9353TIP3   OH249549   2.894   5.505  16.603  0.4150  0.3641 -0.9435
 9353TIP3    H149550   2.876   5.473  16.515 -0.6138  0.6284 -0.8431
 9353TIP3    H249551   2.989   5.513  16.607  0.4486  0.7791 -2.1745
 9354TIP3   OH249552   3.717   5.296  16.259  0.2912 -0.0751  0.1648
 9354TIP3    H149553   3.750   5.276  16.171  1.4758 -0.9492  0.7863
 9354TIP3    H249554   3.652   5.228  16.276 -1.0938  1.0093 -0.6273
 9355TIP3   OH249555   1.313   6.307  17.211  0.1883  0.1504 -0.0588
 9355TIP3    H149556   1.329   6.230  17.157  0.5074 -0.6839  1.1665
 9355TIP3    H249557   1.400   6.345  17.226  0.2052 -0.1192  0.5558
 9356TIP3   OH249558   5.153   2.887   2.988  0.0684 -0.1073 -0.2513
 9356TIP3    H149559   5.096   2.944   2.935 -0.5219  1.2667  1.7565
 9356TIP3    H249560   5.239   2.930   2.985 -0.1106  0.3058  0.3642
 9357TIP3   OH249561   3.092   4.676   5.089 -0.3639  0.7694  0.2289
 9357TIP3    H149562   3.030   4.713   5.026  1.4270  1.4274 -1.2235
 9357TIP3    H249563   3.090   4.738   5.162  0.9434  2.6656 -1.2237
 9358TIP3   OH249564   2.443   3.488  15.871  0.1402  0.2293 -0.0784
 9358TIP3    H149565   2.440   3.462  15.963 -1.1558  3.4060  0.8874
 9358TIP3    H249566   2.378   3.432  15.828 -0.8074  0.1845  1.3629
 9359TIP3   OH249567   2.890   4.805  13.270  0.0334  0.1584 -0.5394
 9359TIP3    H149568   2.986   4.797  13.269 -0.0778 -1.7568 -1.5915
 9359TIP3    H249569   2.860   4.725  13.313 -1.1252 -0.7540 -2.8410
 9360TIP3   OH249570   6.613   2.996  13.485 -0.5660  0.0450 -0.1640
 9360TIP3    H149571   6.643   3.057  13.417 -1.6061  0.4093 -0.3123
 9360TIP3    H249572   6.531   3.034  13.516  1.5126  1.9233  3.8685
 9361TIP3   OH249573   1.033   1.459  15.597  0.2026  0.4651 -0.8694
 9361TIP3    H149574   1.062   1.519  15.528 -0.7033 -0.1104 -1.7775
 9361TIP3    H249575   1.084   1.379  15.583 -0.9233 -0.1286 -1.7364
 9362TIP3   OH249576   6.392   5.099  16.844  0.5257 -0.3509  0.1019
 9362TIP3    H149577   6.362   5.188  16.859  0.4818 -0.4332  0.5280
 9362TIP3    H249578   6.484   5.099  16.871  0.6048 -0.3625 -0.1701
 9363TIP3   OH249579   6.099   4.000   1.125  0.4330  0.5959  0.4199
 9363TIP3    H149580   6.104   3.967   1.035  0.3266  4.6678 -1.2979
 9363TIP3    H249581   6.006   3.998   1.146  0.3426  0.5123  0.0255
 9364TIP3   OH249582   2.687   1.525   2.002  0.4117  0.3944  0.4504
 9364TIP3    H149583   2.697   1.545   2.095  0.5789  2.7307 -0.0072
 9364TIP3    H249584   2.593   1.537   1.985  0.0637 -1.7232  0.6211
 9365TIP3   OH249585   2.800   3.360  13.570 -0.1750 -0.0174 -0.5031
 9365TIP3    H149586   2.829   3.329  13.485  1.9776 -1.8495  0.7959
 9365TIP3    H249587   2.727   3.301  13.593 -0.3508  0.0807 -0.8067
 9366TIP3   OH249588   0.385   2.116  13.414  0.9674 -0.1215  0.4167
 9366TIP3    H149589   0.355   2.207  13.425 -1.1726 -0.6300 -0.7692
 9366TIP3    H249590   0.320   2.064  13.461  1.5603 -1.1221  0.1501
 9367TIP3   OH249591   5.541   5.095  12.645  0.1489 -0.0559  0.5366
 9367TIP3    H149592   5.615   5.094  12.705  0.8646  1.1723 -0.2749
 9367TIP3    H249593   5.466   5.115  12.700  0.7214  0.6029  1.0975
 9368TIP3   OH249594   4.719   4.919  15.914 -0.1748  0.2318  0.4607
 9368TIP3    H149595   4.749   4.992  15.859  0.9486  0.5832  1.5084
 9368TIP3    H249596   4.734   4.949  16.004 -0.6287 -0.9076  0.9291
 9369TIP3   OH249597   1.086   0.452  15.458  0.2890  0.9540  0.4405
 9369TIP3    H149598   1.162   0.432  15.403  0.3174  1.5523  0.2507
 9369TIP3    H249599   1.065   0.369  15.502 -0.4747  0.1352 -1.3675
 9370TIP3   OH249600   4.369   5.330  12.099  0.0621  0.5490 -0.0598
 9370TIP3    H149601   4.341   5.417  12.129 -1.9499 -0.4674  1.2229
 9370TIP3    H249602   4.457   5.320  12.136  0.6010  2.2455 -0.7609
 9371TIP3   OH249603   1.147   0.301  10.887  0.5515 -0.4486  0.3706
 9371TIP3    H149604   1.152   0.386  10.844 -0.6329 -0.9777 -0.8703
 9371TIP3    H249605   1.238   0.271  10.894  1.0316  1.1309  1.3189
 9372TIP3   OH249606   2.480   2.910  12.106 -0.6425  0.0274  0.1932
 9372TIP3    H149607   2.483   2.816  12.091  1.3252 -0.2133  1.7597
 9372TIP3    H249608   2.568   2.940  12.086 -0.7054  1.2209  1.5810
 9373TIP3   OH249609   4.526   1.038   1.968  0.4479 -0.1693  0.3123
 9373TIP3    H149610   4.566   0.997   1.891 -1.0883 -1.6173  0.2252
 9373TIP3    H249611   4.538   0.974   2.038 -2.8383 -1.4245 -0.0525
 9374TIP3   OH249612   4.784   0.922  12.301  0.2141  0.1374  0.1097
 9374TIP3    H149613   4.834   0.981  12.244  1.7324 -0.6089  0.5882
 9374TIP3    H249614   4.807   0.834  12.270  1.7183 -0.3316  2.2648
 9375TIP3   OH249615   0.303   4.502   4.378 -0.5359 -0.1988 -0.3924
 9375TIP3    H149616   0.231   4.548   4.335  0.3337  2.1174  0.4659
 9375TIP3    H249617   0.373   4.568   4.386 -0.1499 -0.8077  3.2581
 9376TIP3   OH249618   3.314   0.425   5.594 -0.1032 -0.4128  0.6710
 9376TIP3    H149619   3.361   0.351   5.556 -2.1378 -1.2419 -0.3994
 9376TIP3    H249620   3.253   0.385   5.657 -2.3174  0.0805 -1.0178
 9377TIP3   OH249621   2.377   3.286   4.124 -0.2410 -0.5106 -0.1260
 9377TIP3    H149622   2.298   3.311   4.172  0.1762  1.0955 -0.2110
 9377TIP3    H249623   2.405   3.366   4.079  1.2148 -1.1373 -0.4183
 9378TIP3   OH249624   3.101   2.512   5.492 -0.0474 -0.1199 -0.2879
 9378TIP3    H149625   3.024   2.457   5.506 -0.2189 -0.3206 -1.8425
 9378TIP3    H249626   3.083   2.591   5.544 -1.1905 -0.2606 -0.4343
 9379TIP3   OH249627   5.069   1.861   0.748  0.1194  0.4152  0.0974
 9379TIP3    H149628   5.019   1.887   0.825 -1.2368  0.0920 -0.6431
 9379TIP3    H249629   5.004   1.824   0.688  0.9770  1.4134 -1.5462
 9380TIP3   OH249630   2.754   2.379  17.143  0.3522 -0.2089  0.0551
 9380TIP3    H149631   2.720   2.296  17.176  0.3567 -0.7858 -1.3304
 9380TIP3    H249632   2.785   2.359  17.055 -0.1150  1.3788 -0.5084
 9381TIP3   OH249633   1.430   4.782  10.669  0.2926 -0.3998  0.6201
 9381TIP3    H149634   1.436   4.709  10.607 -0.1556  1.0393 -1.1960
 9381TIP3    H249635   1.349   4.827  10.645 -1.3157 -1.1902  3.9160
 9382TIP3   OH249636   0.380   3.648  11.071 -0.3364 -0.2370 -0.3044
 9382TIP3    H149637   0.387   3.665  10.976 -0.8047  1.1481 -0.1249
 9382TIP3    H249638   0.423   3.564  11.084  0.2993 -0.1462 -1.6623
 9383TIP3   OH249639   6.327   1.213   1.712 -0.8666  0.2940  0.0726
 9383TIP3    H149640   6.238   1.207   1.679 -0.3398 -1.2118 -1.2184
 9383TIP3    H249641   6.348   1.124   1.742 -0.0445  0.7954  1.0468
 9384TIP3   OH249642   3.558   4.514  16.999 -0.2647  0.4844  0.0475
 9384TIP3    H149643   3.463   4.508  17.007 -0.2425 -0.2759 -0.2231
 9384TIP3    H249644   3.582   4.587  17.057 -1.3610  3.0913 -2.4876
 9385TIP3   OH249645   0.593   4.658  12.310 -0.9700 -0.4059 -0.0338
 9385TIP3    H149646   0.577   4.750  12.294  0.8481  0.1735  1.1120
 9385TIP3    H249647   0.525   4.632  12.372 -1.3304  0.2224 -0.1602
 9386TIP3   OH249648   4.042   6.569  13.373 -0.0353 -0.1556  0.0965
 9386TIP3    H149649   4.044   6.613  13.458  0.1608 -0.4256  0.2334
 9386TIP3    H249650   4.051   6.639  13.309 -0.5687  0.0918  0.2860
 9387TIP3   OH249651   1.938   6.021   3.164 -0.4089 -0.6284 -0.7191
 9387TIP3    H149652   1.963   5.964   3.237  2.3678 -0.4850 -1.4195
 9387TIP3    H249653   2.018   6.028   3.112  0.0301  5.1210  0.0788
 9388TIP3   OH249654   2.846   5.338  16.995  0.5498 -0.5124  0.0403
 9388TIP3    H149655   2.797   5.407  17.038 -0.2779  0.8215 -2.7807
 9388TIP3    H249656   2.780   5.275  16.967  0.8855 -0.6587 -0.4400
 9389TIP3   OH249657   6.332   2.337  13.356  0.8804  0.1625 -0.2703
 9389TIP3    H149658   6.262   2.400  13.339  0.3572 -0.2766  0.1832
 9389TIP3    H249659   6.366   2.314  13.270 -3.7528 -4.3727 -1.4135
 9390TIP3   OH249660   1.034   1.338   1.973 -0.1808  0.1148  0.2864
 9390TIP3    H149661   0.993   1.418   2.005 -0.4192 -0.6229  1.9499
 9390TIP3    H249662   1.054   1.288   2.052  1.6853 -0.6519 -0.6024
 9391TIP3   OH249663   0.519   4.990   2.940 -0.3882 -0.6822 -0.2535
 9391TIP3    H149664   0.470   4.960   2.863 -0.0626 -0.5311 -0.5190
 9391TIP3    H249665   0.550   5.077   2.916  1.8820 -1.6132 -0.9558
 9392TIP3   OH249666   3.758   0.147  12.633 -0.6419 -0.1320  0.0155
 9392TIP3    H149667   3.853   0.137  12.636 -0.6311 -0.8979 -1.7274
 9392TIP3    H249668   3.731   0.153  12.725  1.1695  1.0809  0.5049
 9393TIP3   OH249669   2.585   5.714   6.264 -0.2514 -0.8647  0.1074
 9393TIP3    H149670   2.650   5.785   6.264 -2.3646  1.1983 -0.7673
 9393TIP3    H249671   2.523   5.738   6.332 -1.6020 -1.2658 -0.9420
 9394TIP3   OH249672   5.891   1.807  13.927  0.1102 -0.2957 -0.1250
 9394TIP3    H149673   5.853   1.895  13.924  0.5582 -0.1146 -0.4743
 9394TIP3    H249674   5.897   1.780  13.836 -1.5442 -1.3552  0.0472
 9395TIP3   OH249675   3.413   3.792   3.918  0.1435 -0.3701  0.0734
 9395TIP3    H149676   3.438   3.708   3.957 -2.8492 -0.4415  2.1709
 9395TIP3    H249677   3.393   3.849   3.992  2.3179  2.4131 -1.2720
 9396TIP3   OH249678   5.398   5.051   3.512 -0.2715 -0.1123  0.5558
 9396TIP3    H149679   5.449   5.096   3.580 -0.2778  0.4097  0.2171
 9396TIP3    H249680   5.402   5.109   3.436 -0.4288 -0.6012  0.1676
 9397TIP3   OH249681   5.191   6.459  13.454  0.1588  0.4613 -0.4639
 9397TIP3    H149682   5.177   6.389  13.517  0.6097  0.8915  0.1219
 9397TIP3    H249683   5.272   6.501  13.482  1.3446 -0.4284 -2.3543
 9398TIP3   OH249684   6.590   1.667   5.278  0.1627 -0.6523  0.2552
 9398TIP3    H149685   6.629   1.639   5.362  1.0279  0.1825  0.1496
 9398TIP3    H249686   6.582   1.586   5.228  0.4827 -1.0405  0.8098
 9399TIP3   OH249687   3.509   0.935  11.818 -0.4244  0.4855  0.5947
 9399TIP3    H149688   3.575   0.869  11.840 -0.3769  0.3242 -0.0021
 9399TIP3    H249689   3.454   0.941  11.896  0.2364  0.5493  1.0621
 9400TIP3   OH249690   3.266   1.829  12.971 -0.3688 -0.2264  0.4582
 9400TIP3    H149691   3.193   1.822  12.909  0.3701 -1.2318 -0.3309
 9400TIP3    H249692   3.236   1.781  13.049 -0.5115 -0.7233  0.0994
 9401TIP3   OH249693   1.746   3.218   6.335  0.4802  0.0229  0.0560
 9401TIP3    H149694   1.839   3.199   6.338  1.0056  2.3583  0.4943
 9401TIP3    H249695   1.740   3.314   6.342 -1.8253  0.1864 -2.2874
 9402TIP3   OH249696   2.033   4.593   3.637 -0.2181 -0.1703 -0.1363
 9402TIP3    H149697   2.126   4.596   3.611 -0.5382 -0.2537 -1.3811
 9402TIP3    H249698   2.009   4.685   3.649  0.0262 -0.1496  0.2109
 9403TIP3   OH249699   0.592   1.577  13.171  0.5207  0.0603 -0.1187
 9403TIP3    H149700   0.580   1.641  13.100  0.5783  1.7429  1.3204
 9403TIP3    H249701   0.663   1.614  13.224 -0.0199 -0.7736  1.2280
 9404TIP3   OH249702   5.317   6.078   3.826  0.1335  0.2162  0.1417
 9404TIP3    H149703   5.258   6.080   3.750 -0.3858 -2.7099  0.3796
 9404TIP3    H249704   5.285   6.149   3.883 -2.8460 -0.8915 -0.0034
 9405TIP3   OH249705   1.557   4.019   3.547 -0.2884  0.1330 -0.2935
 9405TIP3    H149706   1.579   4.109   3.526 -1.2579  0.5228  0.2889
 9405TIP3    H249707   1.518   3.985   3.467  0.3651  0.1225 -0.6149
 9406TIP3   OH249708   2.738   5.338  12.837 -0.0708  0.1044  0.7350
 9406TIP3    H149709   2.710   5.415  12.788  0.0733  1.4646  2.6742
 9406TIP3    H249710   2.657   5.291  12.857  0.0004 -1.7545 -2.6046
 9407TIP3   OH249711   2.908   4.675  11.315 -0.1089 -1.1876 -0.0311
 9407TIP3    H149712   2.854   4.690  11.236  0.1360 -1.3651 -0.2336
 9407TIP3    H249713   2.980   4.621  11.284 -0.2325 -1.6052  0.4048
 9408TIP3   OH249714   6.339   3.275  12.063 -0.4243  0.4047 -0.4679
 9408TIP3    H149715   6.373   3.336  11.998 -1.7611  1.0243 -0.5989
 9408TIP3    H249716   6.364   3.313  12.148 -0.1301  0.4515 -0.5746
 9409TIP3   OH249717   5.644   3.947  11.486 -0.2955  0.8827  0.1157
 9409TIP3    H149718   5.705   3.958  11.413  0.5321  0.5861  0.7494
 9409TIP3    H249719   5.600   3.864  11.470 -0.6107  1.1412 -0.3896
 9410TIP3   OH249720   1.725   4.101  11.528  0.1012  0.0754 -0.7688
 9410TIP3    H149721   1.709   4.145  11.444 -1.3862  1.1171  0.0171
 9410TIP3    H249722   1.639   4.071  11.556  0.8206 -1.7470 -0.3703
 9411TIP3   OH249723   1.651   5.507  12.399  0.0895  0.1279  0.0629
 9411TIP3    H149724   1.569   5.524  12.353 -0.4326 -0.0257  0.9049
 9411TIP3    H249725   1.658   5.412  12.401 -1.1181 -0.0001  2.2949
 9412TIP3   OH249726   1.940   3.013   0.791  0.8875 -0.6065 -0.4347
 9412TIP3    H149727   1.919   2.951   0.861 -1.5084  0.8760  0.2887
 9412TIP3    H249728   1.892   2.979   0.715 -0.9028  0.5284  0.1084
 9413TIP3   OH249729   2.936   6.418  16.154  0.0316  0.0238  0.0998
 9413TIP3    H149730   2.953   6.489  16.216  1.4596  1.1976 -1.5434
 9413TIP3    H249731   2.860   6.449  16.104 -0.9284 -0.7897  0.9814
 9414TIP3   OH249732   2.670   4.950   6.733 -1.0258  0.5236  0.0200
 9414TIP3    H149733   2.644   5.042   6.733 -1.7892  0.3401 -1.1992
 9414TIP3    H249734   2.760   4.950   6.703 -1.4100  0.8056 -1.1786
 9415TIP3   OH249735   0.947   4.724  11.947 -0.6206  0.2977  0.4030
 9415TIP3    H149736   0.921   4.691  12.033 -0.7746 -0.5746  0.0313
 9415TIP3    H249737   0.879   4.786  11.923 -1.0108 -0.0738  0.5505
 9416TIP3   OH249738   2.936   1.260   0.056 -0.5374  0.7430  0.0244
 9416TIP3    H149739   2.971   1.263   0.146  0.1975  2.8256 -0.2706
 9416TIP3    H249740   3.010   1.230   0.003 -1.7861 -3.5570  0.3373
 9417TIP3   OH249741   2.278   3.861  14.100  0.1545 -0.3655  0.4569
 9417TIP3    H149742   2.194   3.839  14.059 -0.6019 -0.1570  1.8306
 9417TIP3    H249743   2.254   3.889  14.189  1.5072  1.4453  0.2995
 9418TIP3   OH249744   1.994   2.314  13.720  0.4842 -0.2235  0.2510
 9418TIP3    H149745   1.948   2.230  13.730  2.3973 -1.4834 -1.0078
 9418TIP3    H249746   2.063   2.296  13.657  2.0553  1.8679  1.2698
 9419TIP3   OH249747   2.538   0.798   0.203 -0.1133 -0.7962  1.4819
 9419TIP3    H149748   2.451   0.777   0.171  0.4312 -1.0364  0.0906
 9419TIP3    H249749   2.526   0.812   0.297 -1.3045 -2.7243  1.6777
 9420TIP3   OH249750   2.128   1.499   6.381 -0.1952 -0.3828 -0.1985
 9420TIP3    H149751   2.197   1.564   6.367 -1.1194  0.4987 -0.8773
 9420TIP3    H249752   2.047   1.545   6.357 -0.7816 -2.1053 -1.8029
 9421TIP3   OH249753   5.009   6.523   6.233  0.5546  0.2330 -0.4516
 9421TIP3    H149754   5.026   6.568   6.315  0.5279  0.6268 -0.6620
 9421TIP3    H249755   5.022   6.430   6.254 -1.3676  0.1123  0.5082
 9422TIP3   OH249756   4.526   2.561  13.369  0.2277  0.1494 -0.1191
 9422TIP3    H149757   4.446   2.587  13.323  1.0548  0.3627 -1.4835
 9422TIP3    H249758   4.535   2.626  13.440 -1.3320 -0.4841  0.7073
 9423TIP3   OH249759   5.388   5.410  10.759 -0.1311  0.3833  0.3289
 9423TIP3    H149760   5.350   5.356  10.689  1.5443 -1.8824  1.0519
 9423TIP3    H249761   5.365   5.500  10.735 -1.3763 -0.4694 -1.9993
 9424TIP3   OH249762   5.644   6.124  11.966  0.0970 -0.6259 -0.0158
 9424TIP3    H149763   5.721   6.077  11.934 -0.7180 -1.8483 -0.2740
 9424TIP3    H249764   5.600   6.154  11.886  1.2462  1.7316  0.1609
 9425TIP3   OH249765   6.777   5.659  11.559  0.1790  0.0906  0.1444
 9425TIP3    H149766   6.783   5.731  11.621 -0.0318  0.6759 -0.4968
 9425TIP3    H249767   6.712   5.600  11.598  0.7930 -0.0663  0.9641
 9426TIP3   OH249768   4.100   2.502  13.211  0.7891 -0.0560  0.0536
 9426TIP3    H149769   4.167   2.571  13.213  0.0403  0.6845 -0.0197
 9426TIP3    H249770   4.026   2.539  13.259  0.2688 -0.7025 -0.2350
 9427TIP3   OH249771   0.812   0.680   1.169  0.4690 -0.0550 -0.1704
 9427TIP3    H149772   0.894   0.695   1.123 -0.5681 -1.3419 -2.5840
 9427TIP3    H249773   0.825   0.597   1.215  1.3131  0.9670  1.5569
 9428TIP3   OH249774   6.351   5.938  12.489 -0.3375 -0.2905 -0.2983
 9428TIP3    H149775   6.431   5.978  12.524  1.1445 -2.1742 -1.3337
 9428TIP3    H249776   6.320   6.000  12.423  1.0878 -0.1290 -0.8572
 9429TIP3   OH249777   0.370   4.621   0.004 -0.3845  0.9324  0.4366
 9429TIP3    H149778   0.417   4.604   0.085  0.3103  0.1740 -0.1066
 9429TIP3    H249779   0.342   4.713   0.011  1.2966  1.4568  0.7302
 9430TIP3   OH249780   0.883   1.929   1.151 -0.0117 -0.0091 -0.2032
 9430TIP3    H149781   0.910   1.925   1.059  0.2392 -0.8170 -0.1042
 9430TIP3    H249782   0.944   1.990   1.192  0.8496 -0.8153 -0.2568
 9431TIP3   OH249783   2.903   3.172  16.872 -0.0523 -0.6921 -0.5723
 9431TIP3    H149784   2.834   3.121  16.915 -1.2292 -0.1160 -1.6876
 9431TIP3    H249785   2.940   3.112  16.807  0.0282 -0.7884 -0.4368
 9432TIP3   OH249786   2.666   6.304   2.650 -0.4761  0.0338  0.4799
 9432TIP3    H149787   2.756   6.274   2.639  0.3918  1.7873  2.2182
 9432TIP3    H249788   2.643   6.277   2.739 -0.7388  1.7365  0.9629
 9433TIP3   OH249789   0.988   6.773   0.760  0.0096  0.8522 -0.2558
 9433TIP3    H149790   0.895   6.785   0.778  0.1705 -0.9577  2.4574
 9433TIP3    H249791   0.991   6.719   0.681 -1.2462  0.9883 -0.4059
 9434TIP3   OH249792   6.310   1.057  13.962  0.0013 -0.4722 -0.1526
 9434TIP3    H149793   6.222   1.093  13.967 -0.2512 -0.9723 -0.7322
 9434TIP3    H249794   6.297   0.967  13.929  0.8709  0.2489 -2.7638
 9435TIP3   OH249795   4.043   4.192  13.795 -0.3635  0.0851  0.3795
 9435TIP3    H149796   4.090   4.166  13.875 -0.7833 -2.0324 -0.0135
 9435TIP3    H249797   3.973   4.249  13.826 -0.3148 -0.4294  1.4861
 9436TIP3   OH249798   2.876   4.161  12.534 -0.4849  0.0349 -0.6091
 9436TIP3    H149799   2.938   4.232  12.518 -0.5380 -0.3290 -2.6885
 9436TIP3    H249800   2.797   4.205  12.566  0.4589  0.5908  1.0936
 9437TIP3   OH249801   3.974   0.852   2.335 -0.6154 -0.2168  0.0620
 9437TIP3    H149802   3.985   0.840   2.240 -0.0119 -0.6025  0.1775
 9437TIP3    H249803   3.892   0.901   2.343 -0.9649 -0.6638 -0.6330
 9438TIP3   OH249804   5.189   6.782  13.204 -0.4527  0.3249  0.2006
 9438TIP3    H149805   5.196   6.700  13.154 -2.7651  0.6520 -0.7714
 9438TIP3    H249806   5.274   6.790  13.248  1.5186 -0.3600 -3.0985
 9439TIP3   OH249807   1.442   1.889   2.579 -0.0690 -0.2159  1.0757
 9439TIP3    H149808   1.525   1.932   2.598 -0.4452  1.2145 -0.3118
 9439TIP3    H249809   1.456   1.846   2.495  0.4066 -3.2517  2.5622
 9440TIP3   OH249810   4.480   4.128   2.278 -0.4033 -0.2098 -0.1617
 9440TIP3    H149811   4.424   4.140   2.355  1.2839  0.1301  1.0530
 9440TIP3    H249812   4.462   4.037   2.251 -0.8389 -0.4203  0.7730
 9441TIP3   OH249813   6.268   4.682  14.333 -0.3690  0.3396 -0.7068
 9441TIP3    H149814   6.218   4.620  14.387 -1.5564  0.2088 -1.9075
 9441TIP3    H249815   6.304   4.628  14.263 -1.7316  1.0300 -1.9797
 9442TIP3   OH249816   1.089   6.121   2.028  0.2295  0.0572 -0.7844
 9442TIP3    H149817   1.145   6.061   2.077  2.5494  1.5083 -1.4919
 9442TIP3    H249818   1.046   6.174   2.095 -0.1281 -0.9254 -0.2266
 9443TIP3   OH249819   1.229   6.554  15.784 -0.3187  0.2771  0.1254
 9443TIP3    H149820   1.219   6.564  15.878  0.7736  2.4663  0.0703
 9443TIP3    H249821   1.248   6.642  15.752 -1.8191 -0.1789 -2.3216
 9444TIP3   OH249822   4.047   4.942  12.326 -0.1106  0.7441 -0.3391
 9444TIP3    H149823   4.108   4.890  12.378 -0.7968 -0.3130 -0.5627
 9444TIP3    H249824   4.103   5.001  12.275  0.5732  2.5658  2.2809
 9445TIP3   OH249825   1.708   2.017   4.014  0.1769 -0.4295  0.7976
 9445TIP3    H149826   1.640   1.992   4.077  0.8311  0.1973  1.7861
 9445TIP3    H249827   1.733   1.935   3.972 -0.3006 -0.8551  1.3275
 9446TIP3   OH249828   5.013   1.521   3.055  0.0350  0.3677 -0.1727
 9446TIP3    H149829   4.927   1.564   3.058  0.5525  1.4037  1.5561
 9446TIP3    H249830   5.066   1.570   3.119  1.2303 -1.6874  0.5121
 9447TIP3   OH249831   6.039   2.959   0.330 -0.1689  0.1403  0.3067
 9447TIP3    H149832   6.004   2.889   0.386 -0.8028 -0.6800 -1.0676
 9447TIP3    H249833   6.133   2.961   0.351  0.0800 -1.8777 -0.3661
 9448TIP3   OH249834   3.981   6.321   3.927 -0.4533 -0.4098  0.8918
 9448TIP3    H149835   3.957   6.284   4.012 -0.6050 -0.3437  0.8791
 9448TIP3    H249836   4.076   6.326   3.928 -0.5153  1.3907  1.8286
 9449TIP3   OH249837   6.375   2.925   5.811 -0.0689 -0.1417 -0.2242
 9449TIP3    H149838   6.446   2.885   5.761 -0.5801 -1.8668  0.3468
 9449TIP3    H249839   6.417   2.954   5.892  0.3734  0.8084 -0.7808
 9450TIP3   OH249840   0.700   2.903   0.798  0.0670  0.1936 -0.1780
 9450TIP3    H149841   0.785   2.859   0.804  0.2839  0.4237 -1.3259
 9450TIP3    H249842   0.636   2.835   0.817  0.4745 -0.1858 -0.1618
 9451TIP3   OH249843   2.357   3.605   3.352 -0.2517  0.4892 -0.0219
 9451TIP3    H149844   2.263   3.620   3.340 -0.4156 -0.6676 -0.2889
 9451TIP3    H249845   2.389   3.579   3.266  0.4381  1.3868 -0.0612
 9452TIP3   OH249846   3.044   2.482  11.334 -0.0063  0.1607  0.1110
 9452TIP3    H149847   3.016   2.392  11.324 -1.1857  0.7659 -2.9344
 9452TIP3    H249848   3.123   2.489  11.280 -0.9495  1.3521 -1.1576
 9453TIP3   OH249849   4.080   2.012  10.590 -0.0246  0.1064  0.7294
 9453TIP3    H149850   4.126   1.953  10.530  0.0566  0.3121  0.5919
 9453TIP3    H249851   4.000   2.036  10.544  0.5234  1.0906  0.2696
 9454TIP3   OH249852   2.297   2.453   4.495  0.2080 -0.0140  0.2537
 9454TIP3    H149853   2.218   2.399   4.496 -2.2551  3.2586  1.7796
 9454TIP3    H249854   2.337   2.438   4.580 -1.7434  2.0115  1.6522
 9455TIP3   OH249855   5.571   2.380   5.179 -0.2752 -0.1771 -0.1418
 9455TIP3    H149856   5.533   2.387   5.267 -1.8398  0.2535 -0.8175
 9455TIP3    H249857   5.601   2.289   5.174  0.4252 -0.0402  1.0458
 9456TIP3   OH249858   2.482   3.386  15.052 -0.9984 -0.3294 -0.4167
 9456TIP3    H149859   2.547   3.390  15.122 -0.5177  1.9725 -0.9180
 9456TIP3    H249860   2.463   3.292  15.042  2.7769 -1.2022 -0.7835
 9457TIP3   OH249861   0.236   1.338   0.593  0.3237  0.1465 -0.8132
 9457TIP3    H149862   0.241   1.256   0.543  1.9645 -1.5530  1.8784
 9457TIP3    H249863   0.282   1.402   0.538  0.6867 -1.1942 -2.1505
 9458TIP3   OH249864   4.985   4.835  13.525  0.2729  0.2872 -0.0294
 9458TIP3    H149865   5.072   4.840  13.564  0.8531  1.3691 -1.4089
 9458TIP3    H249866   4.983   4.751  13.479  0.9099  0.6414 -0.7143
 9459TIP3   OH249867   3.149   5.010  12.730  0.1266  0.1207 -0.6967
 9459TIP3    H149868   3.059   4.980  12.743  1.0739 -2.7912 -0.0185
 9459TIP3    H249869   3.188   4.945  12.671  1.3424  2.3128 -2.4691
 9460TIP3   OH249870   1.545   6.644  14.060 -0.3760 -0.1208  0.0117
 9460TIP3    H149871   1.485   6.588  14.109 -2.7372  2.0620 -0.2059
 9460TIP3    H249872   1.622   6.651  14.117 -2.6024  1.5219  3.1606
 9461TIP3   OH249873   1.983   2.191  11.689  0.3909  0.1975  0.4116
 9461TIP3    H149874   2.029   2.114  11.656  0.2257  0.6227 -0.8924
 9461TIP3    H249875   2.052   2.253  11.711  0.5447 -0.4774  1.9444
 9462TIP3   OH249876   2.566   6.400   3.946 -0.3735  0.1005 -0.2353
 9462TIP3    H149877   2.636   6.446   3.991  0.2902 -1.1602  0.0741
 9462TIP3    H249878   2.549   6.451   3.867  1.7380 -0.2146 -0.9395
 9463TIP3   OH249879   2.847   1.292   2.100 -0.8630  0.4311  0.4079
 9463TIP3    H149880   2.804   1.374   2.077 -0.5581  1.2330  2.5309
 9463TIP3    H249881   2.862   1.298   2.194  0.4067 -1.4824  0.3766
 9464TIP3   OH249882   5.029   1.841  12.363  0.4384 -0.0300  0.0264
 9464TIP3    H149883   4.999   1.770  12.306 -3.3557 -0.0759  1.8239
 9464TIP3    H249884   5.091   1.800  12.423  0.9866 -0.9601 -1.1302
 9465TIP3   OH249885   1.363   3.473   4.818  0.1962 -0.8178 -0.0081
 9465TIP3    H149886   1.326   3.394   4.857 -0.8613 -0.3744 -0.0642
 9465TIP3    H249887   1.335   3.470   4.727 -0.8360  0.1733  0.2539
 9466TIP3   OH249888   6.025   4.570   3.540  0.1932  0.4958 -0.5407
 9466TIP3    H149889   5.930   4.574   3.529 -0.3005  1.1555  2.8521
 9466TIP3    H249890   6.058   4.651   3.503 -0.4888  0.0949 -2.0811
 9467TIP3   OH249891   3.307   3.225  12.321  0.2222 -0.4361  0.2655
 9467TIP3    H149892   3.323   3.293  12.255 -1.8695 -0.0124  0.1173
 9467TIP3    H249893   3.393   3.185  12.335  0.9931  0.3555 -1.7227
 9468TIP3   OH249894   5.800   2.475   6.411  0.0226  0.1545 -0.1752
 9468TIP3    H149895   5.752   2.401   6.447  2.6725 -1.3821  0.4176
 9468TIP3    H249896   5.814   2.533   6.485 -0.0064  0.0939 -0.1223
 9469TIP3   OH249897   2.742   0.151   0.001 -0.7157  0.2713 -0.3300
 9469TIP3    H149898   2.801   0.140  -0.074 -0.8091  0.1643 -0.3865
 9469TIP3    H249899   2.751   0.243   0.025  1.0814 -0.1727  0.9681
 9470TIP3   OH249900   0.786   3.067  15.067 -0.0943 -0.1740 -0.2612
 9470TIP3    H149901   0.749   3.138  15.016  0.7802  1.2305  0.9779
 9470TIP3    H249902   0.745   3.076  15.153 -0.3599 -1.5175 -0.2225
 9471TIP3   OH249903   1.350   2.246  13.095 -0.1875 -0.4106  0.6009
 9471TIP3    H149904   1.441   2.219  13.084 -0.8197 -1.7465 -2.1902
 9471TIP3    H249905   1.299   2.169  13.073 -2.0242  1.4627 -2.3888
 9472TIP3   OH249906   4.217   4.367   4.465  0.5665 -0.1806 -0.4397
 9472TIP3    H149907   4.143   4.310   4.484  1.1456 -0.9961 -0.5474
 9472TIP3    H249908   4.285   4.340   4.527  1.4966 -0.9410 -1.7144
 9473TIP3   OH249909   4.210   2.124  15.382  0.0604  0.3630  0.5053
 9473TIP3    H149910   4.282   2.081  15.428  0.7052  1.3810  0.4817
 9473TIP3    H249911   4.253   2.183  15.319 -0.7915  0.8018  0.3142
 9474TIP3   OH249912   6.036   2.945  12.836  0.6027  0.1014  0.0984
 9474TIP3    H149913   5.964   2.970  12.894 -0.0837  0.1515 -0.7543
 9474TIP3    H249914   6.067   3.028  12.800  0.7706  0.0426  0.1087
 9475TIP3   OH249915   6.320   0.663  15.711 -0.1386 -0.1269  0.6256
 9475TIP3    H149916   6.412   0.637  15.716 -0.1984 -0.7120 -0.7303
 9475TIP3    H249917   6.322   0.758  15.712  0.5323 -0.1225  0.1427
 9476TIP3   OH249918   0.505   0.742  15.656 -0.2843  0.1510  0.1419
 9476TIP3    H149919   0.575   0.769  15.596 -0.3639 -0.4354 -0.2281
 9476TIP3    H249920   0.460   0.672  15.609 -1.4772  0.8975  0.1483
 9477TIP3   OH249921   5.174   1.991   1.220  0.7048 -0.1200  0.1664
 9477TIP3    H149922   5.172   1.955   1.131  1.0865 -0.0394  0.1250
 9477TIP3    H249923   5.097   1.953   1.262  0.5022 -0.1335 -0.2084
 9478TIP3   OH249924   2.623   5.766   2.850 -0.5404  0.4318  0.1782
 9478TIP3    H149925   2.716   5.785   2.840 -0.2028 -0.9168  0.4583
 9478TIP3    H249926   2.608   5.774   2.944 -0.0690 -1.7587  0.5187
 9479TIP3   OH249927   0.854   5.316  17.115 -0.7696 -0.3293 -0.5937
 9479TIP3    H149928   0.795   5.374  17.161 -0.9292 -0.4344 -0.6662
 9479TIP3    H249929   0.863   5.354  17.028  2.0472  1.6858  0.4476
 9480TIP3   OH249930   1.857   1.220  15.986  0.3068  0.0094 -0.4626
 9480TIP3    H149931   1.882   1.153  16.049  1.6786  1.3026  0.4251
 9480TIP3    H249932   1.792   1.177  15.929  0.5054 -1.7700  0.6014
 9481TIP3   OH249933   2.237   6.800   1.468  0.2775  0.2341  0.5586
 9481TIP3    H149934   2.210   6.851   1.545 -0.8402  0.4657  0.0358
 9481TIP3    H249935   2.271   6.865   1.407 -0.0992  0.2264  0.3348
 9482TIP3   OH249936   5.091   5.070   3.948  0.0155 -0.0037 -0.3046
 9482TIP3    H149937   5.034   5.116   3.886 -0.7771  0.8620  1.0215
 9482TIP3    H249938   5.038   5.062   4.027  0.7873 -1.6358  0.0844
 9483TIP3   OH249939   4.398   6.371   3.584 -0.1725  0.2879 -0.1210
 9483TIP3    H149940   4.469   6.394   3.643  1.2648 -3.6709  0.0207
 9483TIP3    H249941   4.396   6.441   3.519  1.9192  1.9692  1.4971
 9484TIP3   OH249942   6.226   2.286   3.428 -0.2109  0.3543  0.4660
 9484TIP3    H149943   6.200   2.233   3.353  0.0110  0.2724  0.4452
 9484TIP3    H249944   6.169   2.257   3.499 -0.3512  0.3607  0.3563
 9485TIP3   OH249945   1.095   6.028  17.268  0.0986  0.4696 -0.0937
 9485TIP3    H149946   1.079   6.109  17.219 -1.0575 -0.5873 -1.5728
 9485TIP3    H249947   1.096   6.054  17.360  0.8938  2.3168 -0.5838
 9486TIP3   OH249948   2.064   2.353   2.345 -0.1869  0.3714  0.3774
 9486TIP3    H149949   2.124   2.378   2.415 -1.9090  0.8448  1.7440
 9486TIP3    H249950   2.006   2.428   2.335 -1.5182 -0.6553  0.1631
 9487TIP3   OH249951   1.411   2.212  14.583 -0.3340 -0.2445  0.1604
 9487TIP3    H149952   1.449   2.151  14.519  2.2364  1.7195 -0.3459
 9487TIP3    H249953   1.369   2.279  14.530 -0.4239  0.0548  0.6062
 9488TIP3   OH249954   4.880   3.351  12.433  0.0609  0.2967  1.2046
 9488TIP3    H149955   4.784   3.348  12.431  0.0537  0.2950 -0.5264
 9488TIP3    H249956   4.901   3.444  12.436 -0.0057  0.3119  1.2036
 9489TIP3   OH249957   6.499   2.953   0.579  0.5954  0.4725 -0.3441
 9489TIP3    H149958   6.583   2.992   0.603 -0.1406 -0.0944  4.0214
 9489TIP3    H249959   6.507   2.861   0.602 -1.2930  0.4926  0.6284
 9490TIP3   OH249960   2.584   0.383   3.505 -0.0774 -0.3661  0.8517
 9490TIP3    H149961   2.522   0.411   3.438 -0.3952  0.0110  1.2951
 9490TIP3    H249962   2.530   0.367   3.583  0.5084  1.1553  1.6029
 9491TIP3   OH249963   5.424   0.076   0.013  0.5288  0.3941 -0.0259
 9491TIP3    H149964   5.457  -0.013  -0.000  2.6296  1.0551  0.3954
 9491TIP3    H249965   5.335   0.074  -0.023  0.7467 -1.6999 -0.5902
 9492TIP3   OH249966   5.676   2.403   3.972  0.0438 -0.3997 -0.1271
 9492TIP3    H149967   5.608   2.467   3.993  0.7217  0.7820 -1.3866
 9492TIP3    H249968   5.688   2.353   4.053 -1.3861  0.2266  0.5071
 9493TIP3   OH249969   3.168   1.495  11.847 -0.5708 -0.0631 -0.0423
 9493TIP3    H149970   3.093   1.438  11.829  0.1300 -0.4719 -1.7797
 9493TIP3    H249971   3.166   1.560  11.776 -2.2117  3.1115  2.6023
 9494TIP3   OH249972   1.074   6.765   2.977  0.0072 -0.2254 -0.4759
 9494TIP3    H149973   1.009   6.699   2.955  0.1794 -0.2251 -0.9986
 9494TIP3    H249974   1.116   6.731   3.056  0.6658 -1.1700 -1.2016
 9495TIP3   OH249975   5.493   5.118   5.703  0.2715  0.2289 -0.1338
 9495TIP3    H149976   5.538   5.109   5.619 -0.5220  1.0048 -0.6635
 9495TIP3    H249977   5.442   5.198   5.695 -1.3612 -0.7010  0.3606
 9496TIP3   OH249978   0.227   0.339   6.342  0.0336 -0.4261 -0.3285
 9496TIP3    H149979   0.193   0.392   6.414 -1.1082 -1.0742 -0.3701
 9496TIP3    H249980   0.306   0.298   6.378 -1.2371 -1.7838  1.0365
 9497TIP3   OH249981   4.937   2.839  16.257 -0.0467  0.5354 -0.3143
 9497TIP3    H149982   4.911   2.891  16.333 -0.4755  0.3314 -0.3214
 9497TIP3    H249983   4.856   2.825  16.208  0.1085  0.0692 -0.4394
 9498TIP3   OH249984   6.535   1.163  11.406 -0.1865  0.6991  0.0819
 9498TIP3    H149985   6.593   1.236  11.385 -0.3443  0.7486 -0.1830
 9498TIP3    H249986   6.572   1.125  11.486  2.0428 -1.1834 -1.6938
 9499TIP3   OH249987   4.682   5.607   4.453  0.3923 -0.2077  0.1545
 9499TIP3    H149988   4.636   5.539   4.404 -1.0890  0.9587 -0.1534
 9499TIP3    H249989   4.663   5.586   4.545  0.2002 -0.3946  0.0744
 9500TIP3   OH249990   5.554   0.573   0.306 -0.4724 -0.3227  0.5710
 9500TIP3    H149991   5.539   0.478   0.298 -0.0336 -0.4033  0.7033
 9500TIP3    H249992   5.495   0.611   0.241  2.0546 -0.8965 -2.3094
 9501TIP3   OH249993   5.622   0.532   2.977  0.1488  0.3140  0.1413
 9501TIP3    H149994   5.597   0.592   2.907  1.9553 -0.6405 -1.3832
 9501TIP3    H249995   5.657   0.589   3.046  0.0034  1.1423 -0.4541
 9502TIP3   OH249996   1.515   4.703   1.038  0.2626  0.3009 -0.6249
 9502TIP3    H149997   1.531   4.647   0.962  0.1606 -0.8510  0.1632
 9502TIP3    H249998   1.583   4.678   1.100  2.2067  3.2928 -1.3554
 9503TIP3   OH249999   5.020   2.025   1.804 -0.1287 -0.1816 -0.5987
 9503TIP3    H150000   5.047   1.954   1.746 -0.5104 -3.1438  2.5076
 9503TIP3    H250001   5.099   2.049   1.851 -0.0400  1.4547 -1.5202
 9504TIP3   OH250002   3.135   5.311  16.683  0.1795 -0.3402 -0.1679
 9504TIP3    H150003   3.209   5.252  16.701  2.1026  2.6251  2.9650
 9504TIP3    H250004   3.092   5.322  16.767 -2.1510  0.3002 -1.3495
 9505TIP3   OH250005   5.589   6.102  17.204 -0.2395 -0.3397 -0.6128
 9505TIP3    H150006   5.662   6.052  17.239 -0.7539 -0.6968 -0.0312
 9505TIP3    H250007   5.563   6.162  17.274  1.2994  1.8318 -1.7910
 9506TIP3   OH250008   6.021   1.540  17.041  0.2432 -0.2473 -0.2497
 9506TIP3    H150009   6.044   1.629  17.015  2.4843 -0.4072  0.9462
 9506TIP3    H250010   6.098   1.508  17.088 -1.5063 -1.8508  1.7477
 9507TIP3   OH250011   2.285   4.330   4.421 -0.0236 -0.3865  0.4726
 9507TIP3    H150012   2.311   4.302   4.333  0.6258  0.7718  0.2749
 9507TIP3    H250013   2.323   4.264   4.479  1.6403  0.1406  0.0370
 9508TIP3   OH250014   1.364   6.723   6.592 -0.0964 -0.3762  0.4627
 9508TIP3    H150015   1.336   6.655   6.530 -2.1120 -1.2507  2.2126
 9508TIP3    H250016   1.433   6.682   6.644 -0.4306 -0.6480  0.6917
 9509TIP3   OH250017   4.954   6.712   3.523  0.0486  0.0591  0.1117
 9509TIP3    H150018   4.947   6.630   3.474  2.1896 -1.0991  1.5607
 9509TIP3    H250019   4.868   6.722   3.565 -1.2181  0.1495 -2.3430
 9510TIP3   OH250020   5.111   2.311  12.211  0.4609  0.2877  0.5372
 9510TIP3    H150021   5.076   2.251  12.276  1.5483 -2.4914 -1.2625
 9510TIP3    H250022   5.203   2.323  12.236  0.0952  1.8752  1.2757
 9511TIP3   OH250023   3.878   2.885  12.832 -0.4676  0.4757 -0.0594
 9511TIP3    H150024   3.924   2.805  12.854  0.3316  1.0484  0.4336
 9511TIP3    H250025   3.927   2.923  12.759 -1.0307  0.3557 -0.5034
 9512TIP3   OH250026   4.411   0.375   0.954  0.1813 -0.6011  0.8079
 9512TIP3    H150027   4.488   0.429   0.936 -0.7130  0.4222 -0.0541
 9512TIP3    H250028   4.392   0.390   1.047 -0.1710  0.7553  0.5340
 9513TIP3   OH250029   3.098   5.586  12.080  0.6577 -0.3747 -0.3431
 9513TIP3    H150030   3.174   5.591  12.022 -0.6165 -1.8780 -2.2855
 9513TIP3    H250031   3.075   5.493  12.082 -1.8187  0.1324 -0.8360
 9514TIP3   OH250032   2.066   4.153  14.275  0.4864  0.2069  0.0132
 9514TIP3    H150033   1.977   4.186  14.284  0.3729  0.6819 -2.3112
 9514TIP3    H250034   2.061   4.061  14.302 -0.6332  0.3240  0.2342
 9515TIP3   OH250035   1.061   6.386   0.418  0.3100  0.6464  0.8189
 9515TIP3    H150036   0.987   6.326   0.405  0.8232  0.0333  0.6667
 9515TIP3    H250037   1.128   6.354   0.358  0.7357  1.1358  1.0278
 9516TIP3   OH250038   0.984   0.323  15.953  0.3423 -0.2661 -0.5320
 9516TIP3    H150039   0.917   0.267  15.993  0.6280 -1.3340 -1.4665
 9516TIP3    H250040   0.942   0.408  15.942 -0.4744 -0.6011 -0.0514
 9517TIP3   OH250041   1.925   2.186  12.943 -0.1726 -0.3194  0.4703
 9517TIP3    H150042   1.911   2.235  12.862 -0.0980 -1.5070 -0.2827
 9517TIP3    H250043   1.993   2.235  12.989 -0.8413  0.8708  0.2471
 9518TIP3   OH250044   2.850   3.976   2.982 -0.2410 -0.7022  0.8340
 9518TIP3    H150045   2.880   3.959   3.071 -0.8568  0.3736  1.2673
 9518TIP3    H250046   2.888   3.906   2.930  1.0576 -0.7048  1.7497
 9519TIP3   OH250047   1.863   6.062  11.741  0.1143 -0.2193  0.1313
 9519TIP3    H150048   1.875   6.150  11.775 -2.2887  0.3075 -0.1889
 9519TIP3    H250049   1.916   6.059  11.661  3.0704 -0.3467  1.9547
 9520TIP3   OH250050   1.714   3.493   2.025 -0.2910 -0.0963 -0.6824
 9520TIP3    H150051   1.716   3.561   1.957  1.4590  1.6389  1.0000
 9520TIP3    H250052   1.803   3.457   2.026  0.8720  2.3160  2.8404
 9521TIP3   OH250053   3.422   0.553   1.321  0.0281  0.4162 -0.3998
 9521TIP3    H150054   3.465   0.482   1.274 -0.7525  0.0575 -0.5829
 9521TIP3    H250055   3.488   0.623   1.325  0.4395  0.0729 -1.1324
 9522TIP3   OH250056   5.402   3.003   4.383 -0.3707 -0.0357  0.6867
 9522TIP3    H150057   5.390   2.991   4.477  2.7324  1.4079  1.3576
 9522TIP3    H250058   5.496   3.004   4.370 -0.6439 -1.9872 -2.7551
 9523TIP3   OH250059   5.272   4.024   1.149 -0.3068  0.1180  0.2349
 9523TIP3    H150060   5.226   4.095   1.194 -0.7023 -0.0679  0.1271
 9523TIP3    H250061   5.343   4.001   1.209 -0.2450  0.5239  0.3230
 9524TIP3   OH250062   6.318   5.335   0.000 -0.6062  0.4567 -0.0351
 9524TIP3    H150063   6.317   5.254  -0.050 -1.5316  1.1740 -1.2442
 9524TIP3    H250064   6.253   5.322   0.069 -0.3721 -0.0122  0.0968
 9525TIP3   OH250065   4.563   5.418   5.615  0.4844  0.2930  0.2581
 9525TIP3    H150066   4.610   5.430   5.532  0.2959  0.8486  0.2263
 9525TIP3    H250067   4.474   5.448   5.597 -0.0446 -1.2677  0.1677
 9526TIP3   OH250068   2.695   6.389  16.363 -0.0463  0.0142  0.6388
 9526TIP3    H150069   2.686   6.465  16.420 -1.1571 -0.2732  0.8663
 9526TIP3    H250070   2.783   6.357  16.380  0.0004  0.5413  1.4332
 9527TIP3   OH250071   5.934   4.173   2.345 -0.0486  0.2068 -0.3787
 9527TIP3    H150072   6.009   4.119   2.370  1.8548  2.8924  0.1977
 9527TIP3    H250073   5.888   4.189   2.427 -2.0875 -2.4278 -0.9008
 9528TIP3   OH250074   0.004   1.456  15.592  0.1537  0.1856 -0.3975
 9528TIP3    H150075  -0.026   1.506  15.517  1.6799  1.0299 -0.4762
 9528TIP3    H250076   0.096   1.480  15.602 -0.0191  0.1623  1.7745
 9529TIP3   OH250077   2.329   2.548   2.333  0.0392  0.0771 -0.9836
 9529TIP3    H150078   2.314   2.523   2.242 -3.8367  1.0006 -0.7813
 9529TIP3    H250079   2.355   2.640   2.329  0.6246 -0.0928 -1.1650
 9530TIP3   OH250080   4.669   5.947   1.982  0.4424  0.1185  0.6596
 9530TIP3    H150081   4.633   5.977   2.065  0.6786  0.0617  0.7831
 9530TIP3    H250082   4.685   6.027   1.933 -0.7256  0.1071  0.2336
 9531TIP3   OH250083   4.319   2.247  14.528 -0.5871  0.3605 -0.0230
 9531TIP3    H150084   4.324   2.296  14.446  3.7252 -0.4849 -0.4582
 9531TIP3    H250085   4.317   2.155  14.502  0.0594  0.1024  0.7968
 9532TIP3   OH250086   2.142   4.512   1.561 -0.0781  0.2020 -0.0204
 9532TIP3    H150087   2.100   4.437   1.518  1.0128 -1.1293  1.1059
 9532TIP3    H250088   2.107   4.511   1.650  1.8090 -0.5998  0.7728
 9533TIP3   OH250089   5.079   6.406  12.864  0.1950 -0.1487  0.4046
 9533TIP3    H150090   5.145   6.420  12.795 -0.1164  0.5588  0.2432
 9533TIP3    H250091   5.122   6.347  12.926  1.3347  1.0268  0.7785
 9534TIP3   OH250092   1.044   3.199   5.683 -0.8021 -0.3982  0.3544
 9534TIP3    H150093   1.020   3.167   5.596 -0.1088 -0.0429  0.0264
 9534TIP3    H250094   1.044   3.294   5.675  0.3565 -0.3740  0.4303
 9535TIP3   OH250095   5.316   2.750   5.596 -0.3345  0.0283  0.5779
 9535TIP3    H150096   5.411   2.760   5.593 -0.2416 -0.2263  2.2093
 9535TIP3    H250097   5.299   2.668   5.550  0.2732 -0.1935  0.7423
 9536TIP3   OH250098   2.102   4.905  16.700 -0.0983 -0.2163  0.0769
 9536TIP3    H150099   2.093   4.813  16.673  1.0359 -0.3133 -0.0200
 9536TIP3    H250100   2.104   4.901  16.795  1.5732 -0.5023  0.0731
 9537TIP3   OH250101   1.052   1.232   2.240 -1.1510  0.7366 -0.2531
 9537TIP3    H150102   1.119   1.260   2.303 -1.6616 -0.0575  0.6736
 9537TIP3    H250103   1.047   1.137   2.251 -0.0899  0.3277 -2.6791
 9538TIP3   OH250104   2.113   4.435  12.267  0.0819  0.3196  0.5569
 9538TIP3    H150105   2.093   4.371  12.199 -1.0757  0.2474  0.9298
 9538TIP3    H250106   2.203   4.461  12.251  1.0571 -2.3855  1.1952
 9539TIP3   OH250107   2.004   0.399  14.108 -0.1885  0.5194 -0.2065
 9539TIP3    H150108   1.991   0.459  14.181 -0.3024 -0.6803  0.7953
 9539TIP3    H250109   1.916   0.383  14.074 -0.2677  0.1302  0.1799
 9540TIP3   OH250110   2.547   0.623  11.699  0.1251 -0.0672  0.0954
 9540TIP3    H150111   2.562   0.530  11.713  0.8323  0.2604  1.6717
 9540TIP3    H250112   2.454   0.629  11.676  0.0317 -1.1302  0.1557
 9541TIP3   OH250113   6.695   1.641   1.532 -0.4350  0.3430 -0.1510
 9541TIP3    H150114   6.731   1.572   1.477  1.8534  1.3058  0.0394
 9541TIP3    H250115   6.638   1.691   1.474 -1.9098 -1.4962 -0.3532
 9542TIP3   OH250116   3.947   4.665   1.583  0.3749  0.2268 -0.5979
 9542TIP3    H150117   3.981   4.750   1.552  0.6266  0.3471 -0.0016
 9542TIP3    H250118   3.935   4.614   1.503  0.5589  0.7027 -0.9367
 9543TIP3   OH250119   4.810   2.293  11.517  0.4837 -0.3654 -0.1134
 9543TIP3    H150120   4.740   2.317  11.578  0.4752 -0.2457 -0.1697
 9543TIP3    H250121   4.872   2.366  11.522  1.5696 -1.3191  1.3637
 9544TIP3   OH250122   3.917   4.128  16.831  0.1394 -0.0461 -0.1082
 9544TIP3    H150123   3.856   4.202  16.829  0.0474 -0.0659  1.2104
 9544TIP3    H250124   4.001   4.167  16.857  0.4991 -0.1572 -1.0548
 9545TIP3   OH250125   2.854   4.001  11.524  0.2802 -0.2449 -0.4508
 9545TIP3    H150126   2.785   3.956  11.573 -0.5719  0.6332 -0.7910
 9545TIP3    H250127   2.831   3.986  11.432 -0.7166  1.7689 -0.6120
 9546TIP3   OH250128   3.035   0.691  13.420 -0.6310 -0.1765  0.3436
 9546TIP3    H150129   2.975   0.618  13.405 -0.6394 -0.0497 -0.2423
 9546TIP3    H250130   3.043   0.695  13.516  2.3287 -3.3666  0.4253
 9547TIP3   OH250131   6.169   6.644  13.624 -0.4491  0.0675  0.2426
 9547TIP3    H150132   6.216   6.572  13.666 -0.6927 -1.5231 -2.0152
 9547TIP3    H250133   6.230   6.678  13.559 -0.9957  0.7227  0.0578
 9548TIP3   OH250134   2.523   6.286  11.195  0.1001 -0.0291 -0.4384
 9548TIP3    H150135   2.519   6.301  11.100  1.3271 -0.2630 -0.5456
 9548TIP3    H250136   2.603   6.236  11.208 -0.4963 -0.7422  0.6430
 9549TIP3   OH250137   3.694   0.020   0.274  0.1163 -0.2485  0.3988
 9549TIP3    H150138   3.655  -0.068   0.275 -0.3252 -0.1163 -1.7933
 9549TIP3    H250139   3.694   0.046   0.182  1.5328  1.5016  0.8371
 9550TIP3   OH250140   4.504   0.988  14.950  0.0830  0.4448  0.2698
 9550TIP3    H150141   4.519   1.019  15.040  0.7229 -2.4912  1.2909
 9550TIP3    H250142   4.569   1.036  14.898 -0.2351  2.1447  1.3388
 9551TIP3   OH250143   2.976   1.836  15.369  0.0436 -0.2241  0.1225
 9551TIP3    H150144   2.964   1.928  15.390  0.8815  0.1891 -1.0725
 9551TIP3    H250145   3.006   1.836  15.278 -0.3931 -1.7030 -0.0510
 9552TIP3   OH250146   0.654   4.104  12.648 -0.2140 -0.2387 -0.5677
 9552TIP3    H150147   0.699   4.174  12.601 -0.7897 -0.9310 -2.2063
 9552TIP3    H250148   0.570   4.141  12.673 -0.8359 -0.5457 -2.1117
 9553TIP3   OH250149   5.304   3.912   4.874  0.0575  0.0386  0.5301
 9553TIP3    H150150   5.316   3.878   4.786  0.1502  1.6516 -0.1133
 9553TIP3    H250151   5.218   3.881   4.901  0.0769 -0.5518 -0.0674
 9554TIP3   OH250152   2.913   1.325  15.523 -0.5201  0.4398 -0.1385
 9554TIP3    H150153   2.930   1.415  15.495  1.1690  0.2943  0.3450
 9554TIP3    H250154   2.929   1.273  15.445  0.5616  0.3740  0.1208
 9555TIP3   OH250155   0.363   1.830   3.969 -0.0681  0.4843 -0.7702
 9555TIP3    H150156   0.395   1.891   3.902 -0.1374  2.9084  1.2847
 9555TIP3    H250157   0.353   1.883   4.048 -0.6321 -2.1161  1.0363
 9556TIP3   OH250158   3.165   5.521   2.295  0.0201 -0.0921  0.2113
 9556TIP3    H150159   3.235   5.467   2.332 -0.2929 -0.3838  0.3913
 9556TIP3    H250160   3.187   5.529   2.203 -0.2580 -1.0624  0.0520
 9557TIP3   OH250161   6.190   6.309  13.359  0.2183 -0.3024  0.3661
 9557TIP3    H150162   6.100   6.337  13.344  0.1892 -0.4786  0.2056
 9557TIP3    H250163   6.194   6.288  13.452  0.4590  1.0173  0.6749
 9558TIP3   OH250164   5.416   2.320  11.483 -0.0854  0.3175  0.1548
 9558TIP3    H150165   5.419   2.255  11.413  0.3914  0.8261 -0.3100
 9558TIP3    H250166   5.508   2.330  11.509 -0.2417  0.2708  0.7228
 9559TIP3   OH250167   5.831   6.584   4.782 -0.2783 -0.4630  0.0315
 9559TIP3    H150168   5.880   6.507   4.811  0.0276 -0.1321  0.3937
 9559TIP3    H250169   5.828   6.641   4.858 -1.1075 -0.4164 -0.0352
 9560TIP3   OH250170   1.176   5.693   2.231  0.4543 -0.1125  0.6772
 9560TIP3    H150171   1.242   5.687   2.162  0.8135  0.2569  0.9841
 9560TIP3    H250172   1.156   5.603   2.253 -2.0895 -0.4062 -2.1881
 9561TIP3   OH250173   1.954   3.380   4.456  1.1008  0.5797  0.2895
 9561TIP3    H150174   1.875   3.403   4.505 -0.4936 -1.3135 -1.2322
 9561TIP3    H250175   1.945   3.426   4.373  2.8794  2.3000  0.9679
 9562TIP3   OH250176   5.131   0.192  16.344  0.3533 -0.2662 -0.5539
 9562TIP3    H150177   5.171   0.194  16.431 -1.0726 -2.1211  0.2153
 9562TIP3    H250178   5.052   0.245  16.352  0.2392 -0.4090 -0.7184
 9563TIP3   OH250179   1.506   5.789  16.630  0.2787  0.7201  0.1576
 9563TIP3    H150180   1.429   5.776  16.685  0.3459  0.5915  0.2197
 9563TIP3    H250181   1.580   5.759  16.683  0.1074 -1.9403 -0.9562
 9564TIP3   OH250182   2.296   2.936  12.290  0.2820  0.0178 -0.4552
 9564TIP3    H150183   2.256   3.022  12.280  1.9147  0.9172  0.3066
 9564TIP3    H250184   2.370   2.937  12.229 -1.5262 -2.1579 -2.9497
 9565TIP3   OH250185   6.385   1.933   4.705  0.1041  0.4096  0.0018
 9565TIP3    H150186   6.386   1.838   4.699  1.0163  0.3354  1.0051
 9565TIP3    H250187   6.300   1.955   4.742  0.6629 -0.1879  1.7482
 9566TIP3   OH250188   5.164   4.206   5.540 -0.1155 -0.1684 -0.1538
 9566TIP3    H150189   5.158   4.115   5.569  0.6849 -0.7349 -1.6959
 9566TIP3    H250190   5.196   4.253   5.618  2.7481 -1.7732 -0.2125
 9567TIP3   OH250191   6.433   6.038  13.437  0.0270  0.5014 -0.0928
 9567TIP3    H150192   6.339   6.022  13.440  0.3599 -1.5243  0.7945
 9567TIP3    H250193   6.462   5.998  13.356  0.3937 -0.6056  0.5721
 9568TIP3   OH250194   2.299   5.446  11.821  0.1098 -0.6251  0.0415
 9568TIP3    H150195   2.210   5.423  11.796  0.0598 -1.9120  1.2935
 9568TIP3    H250196   2.354   5.380  11.779  0.3083 -0.8173  0.5867
 9569TIP3   OH250197   0.167   5.198  16.430 -0.0869  0.1253 -0.0528
 9569TIP3    H150198   0.249   5.225  16.471  1.4511 -0.4061 -2.5163
 9569TIP3    H250199   0.176   5.226  16.338 -3.0994  0.8989 -0.2410
 9570TIP3   OH250200   0.780   5.303   0.918  0.2198 -0.0915 -0.0313
 9570TIP3    H150201   0.841   5.257   0.860  1.4045  1.2983  0.0439
 9570TIP3    H250202   0.705   5.244   0.927  0.2786 -0.6092 -2.4531
 9571TIP3   OH250203   2.352   2.039   4.241  0.2426  0.1828 -0.3106
 9571TIP3    H150204   2.291   1.966   4.232  0.9408 -0.4664  0.0119
 9571TIP3    H250205   2.298   2.117   4.239 -0.6607 -0.3967  0.5867
 9572TIP3   OH250206   4.374   5.262   2.204  0.3898 -0.5654 -0.5403
 9572TIP3    H150207   4.461   5.279   2.238 -0.4174 -0.2995  1.4984
 9572TIP3    H250208   4.384   5.183   2.150  1.7037 -1.1331  0.4952
 9573TIP3   OH250209   2.939   5.785  13.273 -0.0593  0.5304  0.0914
 9573TIP3    H150210   2.942   5.797  13.178  1.3033  0.4428  0.0981
 9573TIP3    H250211   2.964   5.694  13.286  1.2029  0.9232  0.5823
 9574TIP3   OH250212   4.325   2.450   4.376 -0.2572 -0.6628 -0.3227
 9574TIP3    H150213   4.256   2.515   4.388 -0.8730 -1.2671 -0.5566
 9574TIP3    H250214   4.326   2.402   4.459  0.2026 -0.3637 -0.1477
 9575TIP3   OH250215   4.617   1.213   2.874  0.1086 -0.0075 -0.5233
 9575TIP3    H150216   4.593   1.132   2.919 -0.6929  0.8494  0.6623
 9575TIP3    H250217   4.546   1.228   2.811 -1.4247  1.3083  1.3728
 9576TIP3   OH250218   1.193   4.539  14.099  0.4455  0.1868  0.7172
 9576TIP3    H150219   1.111   4.588  14.097 -0.1780 -0.8465  0.3086
 9576TIP3    H250220   1.184   4.480  14.174  0.8404  0.1093  0.7061
 9577TIP3   OH250221   3.149   6.658   1.712 -0.1530  0.6572 -0.0739
 9577TIP3    H150222   3.152   6.652   1.808  0.4515 -1.8948 -0.1790
 9577TIP3    H250223   3.066   6.617   1.689  0.0521  0.5796 -0.6744
 9578TIP3   OH250224   0.358   6.790  14.594  0.0460  0.1249  0.1896
 9578TIP3    H150225   0.417   6.735  14.645  2.1763  0.4596 -1.7053
 9578TIP3    H250226   0.283   6.735  14.574 -0.4601 -0.2654  2.8484
 9579TIP3   OH250227   1.893   3.898  11.555 -0.4192  0.3544 -0.1287
 9579TIP3    H150228   1.823   3.963  11.562 -1.1538 -0.3919 -0.3995
 9579TIP3    H250229   1.917   3.879  11.646  1.3006  2.5486 -0.0537
 9580TIP3   OH250230   4.593   6.480   5.867 -0.5570  0.4682 -0.6790
 9580TIP3    H150231   4.664   6.488   5.931 -0.7784 -0.6666 -0.2666
 9580TIP3    H250232   4.551   6.566   5.868 -0.2103  0.6492  0.2914
 9581TIP3   OH250233   2.255   4.387   0.843 -0.2949 -0.2567  0.1690
 9581TIP3    H150234   2.202   4.319   0.802 -0.0657 -0.6502  0.5169
 9581TIP3    H250235   2.337   4.343   0.867 -0.6398 -0.1864  1.5657
 9582TIP3   OH250236   3.535   6.166  10.683 -0.5137 -0.0961  0.0744
 9582TIP3    H150237   3.458   6.112  10.702  0.3691 -1.4957 -0.2357
 9582TIP3    H250238   3.609   6.105  10.684  0.6533  1.2671  0.6598
 9583TIP3   OH250239   2.163   6.054   5.891 -0.3248  0.8325  0.0607
 9583TIP3    H150240   2.202   5.986   5.946 -2.3100 -0.6522 -0.2228
 9583TIP3    H250241   2.202   6.040   5.805 -1.3608 -0.6206 -0.2188
 9584TIP3   OH250242   1.923   2.942   1.442  0.2698 -0.6838 -0.0706
 9584TIP3    H150243   1.901   2.956   1.350  0.2836 -1.8679 -0.2674
 9584TIP3    H250244   1.922   2.847   1.453  1.0918 -0.5913  0.9538
 9585TIP3   OH250245   2.858   1.402  17.075  0.5030  0.3349  0.9570
 9585TIP3    H150246   2.871   1.366  17.163  2.3818 -0.0936  0.5558
 9585TIP3    H250247   2.893   1.491  17.080  1.3158  0.0526  0.4734
 9586TIP3   OH250248   1.252   2.254   2.428  0.7098 -0.5761  0.1314
 9586TIP3    H150249   1.220   2.320   2.366  1.0428 -1.9537 -1.6098
 9586TIP3    H250250   1.272   2.303   2.507  1.9630  1.6178 -1.4168
 9587TIP3   OH250251   4.061   4.147  11.442  0.1627 -0.3007 -0.1019
 9587TIP3    H150252   4.100   4.180  11.361 -2.8550  0.3975 -1.4143
 9587TIP3    H250253   4.098   4.059  11.451  0.1902 -0.6282 -2.5663
 9588TIP3   OH250254   3.070   2.655  12.776  0.7393  0.4920  0.3314
 9588TIP3    H150255   3.152   2.705  12.768  0.7585  0.3999 -0.0650
 9588TIP3    H250256   3.012   2.694  12.711  1.6540 -1.7489 -1.9659
 9589TIP3   OH250257   2.699   5.892   4.480  0.4383 -0.0832 -0.2402
 9589TIP3    H150258   2.731   5.980   4.461  0.9054 -0.5245 -1.6111
 9589TIP3    H250259   2.621   5.906   4.534  1.7462  1.0751  1.4669
 9590TIP3   OH250260   2.654   6.258   2.311  0.5877 -0.0994 -0.3875
 9590TIP3    H150261   2.742   6.263   2.349  0.5634 -1.5839 -0.0766
 9590TIP3    H250262   2.632   6.165   2.314 -0.7350  0.1695 -1.0752
 9591TIP3   OH250263   0.037   6.145   4.048 -0.5185 -0.4085 -0.2992
 9591TIP3    H150264   0.114   6.180   4.092  0.1041  0.1288 -1.7543
 9591TIP3    H250265   0.048   6.170   3.956 -3.1788  1.0958 -0.3162
 9592TIP3   OH250266   4.339   0.777  13.162 -0.1522 -0.1293 -0.2549
 9592TIP3    H150267   4.342   0.871  13.145 -0.0532 -0.2037 -0.6506
 9592TIP3    H250268   4.339   0.771  13.257 -0.0537  0.2693 -0.2247
 9593TIP3   OH250269   6.538   3.273   5.281  0.2788 -0.5618 -0.6761
 9593TIP3    H150270   6.537   3.215   5.204 -0.4276 -1.2067 -0.1902
 9593TIP3    H250271   6.513   3.359   5.246  1.6778 -0.4410 -1.4676
 9594TIP3   OH250272   1.698   3.893  11.765 -0.4668  0.3118 -0.0629
 9594TIP3    H150273   1.698   3.810  11.717  0.1263  1.5320 -2.3161
 9594TIP3    H250274   1.623   3.941  11.729 -0.8434  0.7370  1.2569
 9595TIP3   OH250275   3.792   1.516  17.199 -0.9478  0.5257 -1.0410
 9595TIP3    H150276   3.871   1.484  17.243 -1.1411 -3.3852 -3.1490
 9595TIP3    H250277   3.812   1.608  17.180  1.8615  0.5047  1.0084
 9596TIP3   OH250278   0.598   5.151  11.494 -0.3527  0.2075 -0.3678
 9596TIP3    H150279   0.536   5.202  11.442 -0.0378 -0.4881 -1.4746
 9596TIP3    H250280   0.684   5.184  11.468 -0.1460 -0.8221 -1.0769
 9597TIP3   OH250281   1.959   1.582  13.069  0.2381  0.0636 -0.8069
 9597TIP3    H150282   1.924   1.612  13.153  0.7011 -1.7890  0.1033
 9597TIP3    H250283   1.882   1.554  13.020  0.1297 -0.9779 -0.0792
 9598TIP3   OH250284   2.918   1.326  12.943 -0.3810 -0.6465 -0.5134
 9598TIP3    H150285   2.954   1.320  13.032  0.8269 -1.4721 -1.0205
 9598TIP3    H250286   2.971   1.393  12.900 -0.7532 -0.4680 -0.6944
 9599TIP3   OH250287   5.218   1.254   4.163  0.9072 -0.4821  0.5012
 9599TIP3    H150288   5.217   1.331   4.106  3.6274 -0.0818  0.8815
 9599TIP3    H250289   5.157   1.276   4.234 -0.9139 -0.1323 -1.0843
 9600TIP3   OH250290   0.150   4.910  16.923 -0.0017  0.3157 -0.3572
 9600TIP3    H150291   0.160   4.997  16.884 -0.2138  0.0032 -1.1334
 9600TIP3    H250292   0.102   4.925  17.004 -1.4327  0.7580 -1.2574
 9601TIP3   OH250293   0.580   3.099   1.224  0.2010  0.0022  0.2801
 9601TIP3    H150294   0.597   3.118   1.132  1.1028 -0.9505  0.2325
 9601TIP3    H250295   0.649   3.146   1.271  1.7294 -2.0505  0.2327
 9602TIP3   OH250296   5.875   1.084   5.977 -0.4904 -0.4891 -0.6773
 9602TIP3    H150297   5.832   1.012   6.023 -0.6151  0.0953  0.1409
 9602TIP3    H250298   5.879   1.155   6.041 -0.6988  0.3587 -1.5736
 9603TIP3   OH250299   5.598   3.765   1.065  0.3500 -0.6837 -0.0485
 9603TIP3    H150300   5.515   3.812   1.053  0.9935  0.4127 -0.3621
 9603TIP3    H250301   5.598   3.739   1.157 -0.3811 -0.7845 -0.0697
 9604TIP3   OH250302   1.796   4.875  12.229 -0.3423  0.4959 -0.2277
 9604TIP3    H150303   1.821   4.809  12.164 -0.2559  0.4348 -0.1331
 9604TIP3    H250304   1.848   4.854  12.306 -0.2432  0.7362 -0.2294
 9605TIP3   OH250305   3.602   1.973   2.092 -0.2991 -0.1276 -0.3883
 9605TIP3    H150306   3.620   2.018   2.175 -1.2045 -0.2487 -0.1194
 9605TIP3    H250307   3.687   1.971   2.048  0.1462  0.1575  0.4242
 9606TIP3   OH250308   2.993   6.140   2.552  0.1921 -0.2395 -0.0879
 9606TIP3    H150309   3.028   6.117   2.466 -1.7688 -1.7439 -0.5560
 9606TIP3    H250310   2.963   6.230   2.543  1.1137  0.0299 -0.5742
 9607TIP3   OH250311   1.613   3.660   5.439 -0.0736  0.2290 -0.3511
 9607TIP3    H150312   1.556   3.718   5.389 -1.2107  0.0181  0.6776
 9607TIP3    H250313   1.555   3.597   5.480  1.0221 -0.7945 -0.3053
 9608TIP3   OH250314   2.875   2.169   2.525  0.0572 -0.5250 -0.3063
 9608TIP3    H150315   2.930   2.234   2.481  1.9710 -0.4776  2.0003
 9608TIP3    H250316   2.821   2.219   2.585  0.2034 -0.9091  0.1494
 9609TIP3   OH250317   4.267   1.314   5.272  0.4834  0.0813 -0.1572
 9609TIP3    H150318   4.234   1.364   5.346  1.2701 -1.4520  1.2740
 9609TIP3    H250319   4.277   1.379   5.202 -2.5357  1.1639  0.2683
 9610TIP3   OH250320   4.451   4.356   3.515 -0.3407  0.3725 -0.6048
 9610TIP3    H150321   4.406   4.375   3.433 -1.8508  0.9187  0.2933
 9610TIP3    H250322   4.512   4.429   3.527  0.9372 -0.4378 -1.8994
 9611TIP3   OH250323   3.746   4.207  13.913  0.3906 -0.1294 -0.1833
 9611TIP3    H150324   3.732   4.222  14.007  1.4716 -0.3512  0.0319
 9611TIP3    H250325   3.791   4.286  13.883 -1.5191  0.7434 -0.9335
 9612TIP3   OH250326   5.782   0.942   3.950 -0.0693 -0.5626 -0.1277
 9612TIP3    H150327   5.786   0.953   3.855  0.7115 -3.3516 -0.5298
 9612TIP3    H250328   5.693   0.913   3.968  0.0008 -0.7876 -0.1355
 9613TIP3   OH250329   6.744   3.919   1.694 -0.2565  0.4011  0.0775
 9613TIP3    H150330   6.781   3.930   1.606  1.0519  2.0148  0.7702
 9613TIP3    H250331   6.653   3.895   1.679  0.3715 -1.1270 -1.7075
 9614TIP3   OH250332   5.217   4.763   0.926 -0.5743 -0.8231  0.4498
 9614TIP3    H150333   5.309   4.773   0.902 -0.6747  2.5451  0.9417
 9614TIP3    H250334   5.217   4.762   1.022 -1.0579 -0.2723  0.4632
 9615TIP3   OH250335   4.792   0.674  12.101  0.3333  0.2664  0.1477
 9615TIP3    H150336   4.875   0.625  12.100  1.0844  1.5172 -0.1477
 9615TIP3    H250337   4.778   0.700  12.010 -1.4513 -1.6095 -0.1922
 9616TIP3   OH250338   2.059   0.486   3.174  0.1319 -0.1963 -0.0667
 9616TIP3    H150339   2.149   0.468   3.145 -0.1659  0.4362 -1.4807
 9616TIP3    H250340   2.067   0.505   3.267  1.2823 -1.4512  0.1111
 9617TIP3   OH250341   2.640   0.895  15.452 -0.0795 -0.1262  0.5944
 9617TIP3    H150342   2.658   0.907  15.359 -0.8297  2.2155  0.6893
 9617TIP3    H250343   2.544   0.890  15.458 -0.0009 -1.3504  1.1606
 9618TIP3   OH250344   5.907   4.963  13.005 -0.4473  0.1935 -0.1441
 9618TIP3    H150345   5.891   4.957  13.099  0.9833 -3.1964  0.0216
 9618TIP3    H250346   5.842   4.904  12.966  2.9406 -3.8527 -0.4837
 9619TIP3   OH250347   1.311   3.742  11.426 -0.0257  0.0725  0.0622
 9619TIP3    H150348   1.323   3.651  11.453  1.4914  0.0155 -0.6634
 9619TIP3    H250349   1.218   3.759  11.439 -0.4792 -1.7873 -0.3638
 9620TIP3   OH250350   2.775   1.776  12.273 -0.2321  0.1800  0.5494
 9620TIP3    H150351   2.729   1.693  12.290 -0.6104  0.4982  1.1256
 9620TIP3    H250352   2.825   1.760  12.193  0.0730 -0.7564  0.9136
 9621TIP3   OH250353   6.323   1.368   6.785  0.7900  0.4343  0.1640
 9621TIP3    H150354   6.261   1.374   6.712  0.7372  1.5154  0.2841
 9621TIP3    H250355   6.407   1.351   6.743  0.2481 -2.5668  0.0766
 9622TIP3   OH250356   5.591   1.350  15.856  0.4673 -0.6076  0.4294
 9622TIP3    H150357   5.679   1.364  15.891  0.8230 -2.0587  0.1861
 9622TIP3    H250358   5.534   1.402  15.913  1.6664  2.3386 -0.8850
 9623TIP3   OH250359   4.322   5.341  16.967 -0.2204 -0.2675  0.0044
 9623TIP3    H150360   4.269   5.413  17.001  0.6486  0.1825  0.4463
 9623TIP3    H250361   4.299   5.266  17.021  1.1035  0.4209  1.6080
 9624TIP3   OH250362   5.055   4.187   0.062 -0.0553  0.5270 -0.7123
 9624TIP3    H150363   5.072   4.099   0.029  1.8419  0.1273  1.1499
 9624TIP3    H250364   4.974   4.179   0.113  0.6653 -0.4216  0.3257
 9625TIP3   OH250365   0.705   2.879   2.349 -0.1294 -0.1986 -0.1244
 9625TIP3    H150366   0.794   2.906   2.330  0.3908  1.5331  3.7305
 9625TIP3    H250367   0.713   2.788   2.378  0.4503  0.0008  0.3693
 9626TIP3   OH250368   0.987   0.281  15.654 -0.4803 -0.5592  0.1419
 9626TIP3    H150369   0.986   0.319  15.742 -0.5847 -2.0798  0.8429
 9626TIP3    H250370   1.035   0.198  15.665 -0.2808 -0.6601 -1.2940
 9627TIP3   OH250371   0.017   1.223   2.047  0.0482 -0.1703 -0.0643
 9627TIP3    H150372   0.048   1.189   1.963 -0.7590 -0.6067 -0.1937
 9627TIP3    H250373  -0.027   1.148   2.088 -1.0891  0.4966 -0.0227
 9628TIP3   OH250374   6.639   6.363  17.163 -0.8453  0.4415 -0.0581
 9628TIP3    H150375   6.728   6.332  17.150 -0.5922  0.8613  0.6641
 9628TIP3    H250376   6.596   6.347  17.078 -0.5994 -1.3845  0.1148
 9629TIP3   OH250377   5.093   0.041  15.142  0.6093 -0.2262 -0.2932
 9629TIP3    H150378   5.155  -0.014  15.189  1.3531 -0.1769 -1.1866
 9629TIP3    H250379   5.062   0.103  15.207  0.4387 -1.1295  0.5064
 9630TIP3   OH250380   5.854   2.698  14.014 -0.4739 -0.3229 -0.8557
 9630TIP3    H150381   5.906   2.662  14.086  0.8480 -0.7752 -1.9879
 9630TIP3    H250382   5.768   2.716  14.053  0.9230  1.9123  1.5114
 9631TIP3   OH250383   1.255   3.929   2.435 -0.0275  0.3008 -0.2086
 9631TIP3    H150384   1.230   4.019   2.414  0.3774  0.4626 -0.0254
 9631TIP3    H250385   1.351   3.931   2.436  0.0118 -0.3783 -1.2602
 9632TIP3   OH250386   1.411   5.022   6.036 -0.0839 -0.0272 -0.0622
 9632TIP3    H150387   1.472   5.053   6.103 -0.8370  0.0708  0.5827
 9632TIP3    H250388   1.324   5.038   6.072 -0.5218  0.5335 -1.2914
 9633TIP3   OH250389   2.954   0.112   1.489  0.3666  0.1181 -0.0502
 9633TIP3    H150390   2.927   0.203   1.492 -0.3139 -0.0689 -0.3980
 9633TIP3    H250391   2.922   0.080   1.405 -0.7880 -0.8713  0.7344
 9634TIP3   OH250392   3.456   3.783   3.478 -0.3893 -0.6770 -0.4152
 9634TIP3    H150393   3.441   3.714   3.414 -2.1800  0.1436 -0.9622
 9634TIP3    H250394   3.489   3.857   3.426  0.2305 -0.6981 -0.0510
 9635TIP3   OH250395   6.721   1.438  12.427 -0.4922  0.4291 -0.2450
 9635TIP3    H150396   6.742   1.439  12.521 -0.9141  0.1511 -0.1472
 9635TIP3    H250397   6.626   1.442  12.423 -0.4518  1.0714 -0.6825
 9636TIP3   OH250398   2.254   1.402   5.817 -0.3082  0.0427  0.8674
 9636TIP3    H150399   2.232   1.311   5.840 -0.4910  0.4129  2.2514
 9636TIP3    H250400   2.305   1.434   5.891  0.5257  0.8149 -0.0058
 9637TIP3   OH250401   0.650   5.803   5.571  0.2701 -0.5501  0.2262
 9637TIP3    H150402   0.688   5.889   5.587 -1.4867  0.2933  0.0561
 9637TIP3    H250403   0.709   5.742   5.617 -0.0703  1.0063  2.9712
 9638TIP3   OH250404   0.566   4.400   2.455  0.1371  0.2204 -0.1858
 9638TIP3    H150405   0.515   4.366   2.528 -0.1635  0.2200 -0.3987
 9638TIP3    H250406   0.612   4.324   2.420 -0.4106  0.0603 -0.5609
 9639TIP3   OH250407   1.401   5.667   5.004 -0.3002  0.3868  0.3020
 9639TIP3    H150408   1.338   5.739   5.013 -0.2930  0.4350 -0.0184
 9639TIP3    H250409   1.482   5.709   4.974  0.3309  0.5261  2.1050
 9640TIP3   OH250410   0.383   4.361   0.374  0.0818  0.0652  0.2566
 9640TIP3    H150411   0.324   4.330   0.443 -1.0184  0.3434 -0.5348
 9640TIP3    H250412   0.378   4.456   0.378 -1.3587  0.0930 -1.3085
 9641TIP3   OH250413   6.646   0.679   5.857  0.0413  0.0904 -0.5860
 9641TIP3    H150414   6.573   0.658   5.916 -1.9526  2.9599 -1.7458
 9641TIP3    H250415   6.630   0.626   5.779  0.4728 -0.8808 -0.0245
 9642TIP3   OH250416   5.218   2.488   0.133  0.5278 -0.5752  0.6026
 9642TIP3    H150417   5.298   2.440   0.111  0.5354 -0.3868  0.1947
 9642TIP3    H250418   5.240   2.536   0.213  1.4403  0.8824 -0.4747
 9643TIP3   OH250419   1.953   6.436  14.115 -0.8628  0.0338 -0.0192
 9643TIP3    H150420   2.040   6.442  14.073  0.6588 -1.2191  2.7278
 9643TIP3    H250421   1.927   6.528  14.127  0.3593  0.4578 -0.3714
 9644TIP3   OH250422   6.583   3.087  12.474  0.0389  0.0043 -0.4190
 9644TIP3    H150423   6.623   3.011  12.517  0.1965  0.8483  0.9908
 9644TIP3    H250424   6.489   3.075  12.488  0.1166  0.5577  0.7147
 9645TIP3   OH250425   0.079   2.389  13.623  0.5615 -0.0845 -0.0811
 9645TIP3    H150426   0.132   2.403  13.702  0.7065  1.9505 -0.4763
 9645TIP3    H250427   0.098   2.464  13.568 -0.3315 -0.9490 -1.6296
 9646TIP3   OH250428   4.621   3.047  12.621 -0.3009 -0.0130  0.6496
 9646TIP3    H150429   4.709   3.049  12.657 -0.7645  1.5289  1.8134
 9646TIP3    H250430   4.565   3.082  12.691 -1.9161 -1.3607  0.1195
 9647TIP3   OH250431   1.122   4.378   2.967 -0.0415  0.0521 -0.1970
 9647TIP3    H150432   1.171   4.459   2.985 -0.7845  0.5761 -0.4903
 9647TIP3    H250433   1.064   4.401   2.895  0.0574 -0.8831 -0.5863
 9648TIP3   OH250434   1.184   5.868   3.506 -0.0517 -0.1676  0.0664
 9648TIP3    H150435   1.228   5.826   3.432 -2.1685 -1.3093 -0.6223
 9648TIP3    H250436   1.115   5.807   3.531 -0.8670  1.2580  1.4811
 9649TIP3   OH250437   0.878   5.829   2.509 -0.3473  0.1908  0.5716
 9649TIP3    H150438   0.966   5.830   2.547 -0.3516 -1.0159  0.6486
 9649TIP3    H250439   0.847   5.740   2.523 -1.0295  0.2000 -0.7402
 9650TIP3   OH250440   3.768   2.518  13.110 -0.2974 -0.4571 -0.3191
 9650TIP3    H150441   3.741   2.603  13.144 -2.0613  0.1484 -2.9353
 9650TIP3    H250442   3.824   2.539  13.036 -0.2708 -1.5836 -0.6323
 9651TIP3   OH250443   1.673   6.412  15.227  0.2201  0.4879 -0.5978
 9651TIP3    H150444   1.681   6.324  15.264 -1.1774  0.9850  1.0388
 9651TIP3    H250445   1.740   6.415  15.158  1.7672 -1.1377  0.7073
 9652TIP3   OH250446   6.296   0.924  16.162  0.2728  0.1232 -0.2378
 9652TIP3    H150447   6.384   0.893  16.187 -0.4638 -1.4616  0.5894
 9652TIP3    H250448   6.312   0.995  16.100  2.1449  0.2699  0.3407
 9653TIP3   OH250449   4.849   4.362   3.675 -0.5015  0.5970  0.9730
 9653TIP3    H150450   4.932   4.316   3.664 -0.7120  0.7092 -1.6642
 9653TIP3    H250451   4.874   4.453   3.689 -0.1528  0.6471  0.0931
 9654TIP3   OH250452   6.633   0.712   1.679  0.3315 -0.0179 -0.1496
 9654TIP3    H150453   6.577   0.709   1.601 -2.0501  0.3093  1.4490
 9654TIP3    H250454   6.612   0.631   1.726 -1.0088  1.4286  1.8775
 9655TIP3   OH250455   3.169   3.480  14.485  0.0492  0.4359 -0.1675
 9655TIP3    H150456   3.119   3.412  14.440 -0.5882 -0.4070  1.6855
 9655TIP3    H250457   3.119   3.496  14.566  1.0819  1.9165  0.2165
 9656TIP3   OH250458   5.994   5.971   0.701 -0.1882  0.4912  0.2175
 9656TIP3    H150459   6.070   6.012   0.659  0.7968  1.2602  2.5939
 9656TIP3    H250460   5.985   5.887   0.657  1.4803  0.7683 -0.7491
 9657TIP3   OH250461   3.339   6.135   5.168  0.0852  0.0769  0.3954
 9657TIP3    H150462   3.345   6.217   5.217 -0.7884  0.9189 -0.8581
 9657TIP3    H250463   3.325   6.068   5.234  1.8350  0.7714  1.5460
 9658TIP3   OH250464   1.395   3.534  12.436  0.3469 -0.3957 -0.1413
 9658TIP3    H150465   1.339   3.476  12.384  0.1573  0.8337 -1.3747
 9658TIP3    H250466   1.345   3.616  12.443  1.4822  0.3378 -0.2785
 9659TIP3   OH250467   1.571   2.359   3.715  0.3073 -0.2709  0.5498
 9659TIP3    H150468   1.650   2.393   3.674  0.3158 -2.0418 -1.0130
 9659TIP3    H250469   1.503   2.370   3.649 -0.8135  1.2393  1.8722
 9660TIP3   OH250470   3.683   2.209  12.862 -0.1836 -0.8947  0.4965
 9660TIP3    H150471   3.675   2.290  12.912 -2.1188 -0.1678 -0.8721
 9660TIP3    H250472   3.613   2.153  12.896 -1.8357 -0.2218 -1.5440
 9661TIP3   OH250473   0.336   2.409  15.301  0.9945 -0.6957  0.1543
 9661TIP3    H150474   0.351   2.492  15.346  0.4008 -1.4202  1.7794
 9661TIP3    H250475   0.393   2.412  15.224  2.7166  0.2493  1.4114
 9662TIP3   OH250476   1.083   3.852  11.952 -0.1469  0.5743 -0.2421
 9662TIP3    H150477   1.153   3.871  12.014  1.1792 -0.9208 -1.1821
 9662TIP3    H250478   1.110   3.769  11.911 -3.6004 -1.3449  0.9778
 9663TIP3   OH250479   4.469   6.083  15.762 -0.4309  0.0331 -0.0984
 9663TIP3    H150480   4.410   6.039  15.700 -0.0246 -1.6223  0.6361
 9663TIP3    H250481   4.415   6.096  15.840 -0.6325  1.1370 -0.4121
 9664TIP3   OH250482   4.468   0.802  16.525  1.2264  0.5338 -0.5948
 9664TIP3    H150483   4.427   0.742  16.463 -0.2888  0.6954  0.2086
 9664TIP3    H250484   4.486   0.881  16.474 -1.1717  1.1506 -0.5954
 9665TIP3   OH250485   6.313   2.493   1.128  0.5818 -0.0510  0.4772
 9665TIP3    H150486   6.337   2.470   1.038 -0.1143  3.4172 -0.7499
 9665TIP3    H250487   6.394   2.524   1.167  0.7075 -0.7378  0.7673
 9666TIP3   OH250488   2.377   1.894   3.874 -0.0426  0.3993 -0.3543
 9666TIP3    H150489   2.365   1.855   3.961  0.4376  0.5220 -0.2346
 9666TIP3    H250490   2.291   1.884   3.832 -0.9256  2.2281  0.8832
 9667TIP3   OH250491   5.112   6.133  16.484  0.1638 -0.0426  0.1717
 9667TIP3    H150492   5.178   6.089  16.430  0.6269  0.6392  0.1648
 9667TIP3    H250493   5.076   6.063  16.538 -0.0529 -0.6727 -0.7548
 9668TIP3   OH250494   6.212   3.194   4.082  0.8498 -0.2858  0.3527
 9668TIP3    H150495   6.192   3.121   4.024  0.2838  0.6445 -0.6701
 9668TIP3    H250496   6.150   3.185   4.154 -1.8318  1.1827 -1.5785
 9669TIP3   OH250497   1.556   2.678   3.699  0.0888  0.3995 -0.1121
 9669TIP3    H150498   1.582   2.613   3.634 -0.8854  1.5173 -1.6726
 9669TIP3    H250499   1.616   2.751   3.686 -2.1558  2.0405 -2.1737
 9670TIP3   OH250500   4.572   5.691  12.047 -0.8611 -0.2690  0.1205
 9670TIP3    H150501   4.655   5.689  11.999 -0.4802 -1.7351  0.7804
 9670TIP3    H250502   4.512   5.640  11.993 -1.5016  1.1451 -0.5711
 9671TIP3   OH250503   2.367   5.843  15.209  0.4733  0.3257  0.2225
 9671TIP3    H150504   2.345   5.835  15.302 -0.2916  0.6011  0.0729
 9671TIP3    H250505   2.312   5.915  15.178  0.7889  0.2921 -0.4241
 9672TIP3   OH250506   3.190   4.112   2.278 -0.2906 -0.3976 -0.5398
 9672TIP3    H150507   3.262   4.175   2.280 -1.9541  1.6069  1.1250
 9672TIP3    H250508   3.216   4.048   2.211  3.3775 -0.2916  0.5507
 9673TIP3   OH250509   3.573   6.425  16.689 -0.1132 -0.6044 -0.1893
 9673TIP3    H150510   3.506   6.423  16.758 -1.5097 -2.0207 -1.5210
 9673TIP3    H250511   3.655   6.405  16.734 -0.9880 -1.4611  1.0739
 9674TIP3   OH250512   1.085   1.930  14.884 -0.4391  0.0535  0.1895
 9674TIP3    H150513   1.174   1.910  14.854 -0.1959  0.4986  0.6088
 9674TIP3    H250514   1.029   1.878  14.826  0.2262 -3.3945  2.3663
 9675TIP3   OH250515   5.049   5.293  16.701 -0.0230 -0.1627 -0.0682
 9675TIP3    H150516   5.050   5.278  16.796 -1.0064  1.0744  0.1670
 9675TIP3    H250517   5.033   5.206  16.663 -0.9232 -0.4697  0.9702
 9676TIP3   OH250518   1.988   0.922  15.152  0.3399 -0.0374 -0.3658
 9676TIP3    H150519   2.028   0.842  15.118  0.5486 -0.5936  1.1053
 9676TIP3    H250520   2.020   0.928  15.242 -3.2642 -0.8724  1.1700
 9677TIP3   OH250521   2.536   6.744   0.714  0.1693 -0.1268  0.3751
 9677TIP3    H150522   2.568   6.698   0.636 -0.3002  0.3284 -0.1014
 9677TIP3    H250523   2.615   6.769   0.762  0.4139 -2.3820  1.2362
 9678TIP3   OH250524   6.373   0.918   4.750 -0.5761 -0.3440 -0.0526
 9678TIP3    H150525   6.411   0.868   4.822 -0.5077 -2.0884 -1.2427
 9678TIP3    H250526   6.280   0.897   4.752 -0.7800  0.5480  0.2394
 9679TIP3   OH250527   6.225   2.103  16.515 -0.2403  0.0493 -0.0179
 9679TIP3    H150528   6.251   2.046  16.443 -1.0224  0.6539 -0.7954
 9679TIP3    H250529   6.142   2.065  16.546 -0.2410  0.1745  0.1348
 9680TIP3   OH250530   6.095   1.567   4.389  0.4724 -0.3027  0.3773
 9680TIP3    H150531   6.083   1.661   4.376  1.0810 -0.1890  0.6148
 9680TIP3    H250532   6.014   1.528   4.356  0.6075  0.2255 -0.6365
 9681TIP3   OH250533   0.029   0.510  13.972  0.3348  0.2329 -0.1465
 9681TIP3    H150534   0.065   0.487  13.886 -0.2794 -0.8199 -0.1382
 9681TIP3    H250535   0.064   0.444  14.031  0.4062  0.6997  0.3444
 9682TIP3   OH250536   3.093   2.899   5.117 -0.3086 -0.5246 -0.4393
 9682TIP3    H150537   3.097   2.953   5.038  1.4992 -2.0102 -1.4313
 9682TIP3    H250538   3.107   2.960   5.189 -0.1758  0.5965 -1.3922
 9683TIP3   OH250539   1.879   1.247  16.807 -0.4971 -0.0531  0.0613
 9683TIP3    H150540   1.807   1.308  16.825  0.0544  1.0212 -1.2448
 9683TIP3    H250541   1.856   1.208  16.723 -0.0641 -0.4815  0.1400
 9684TIP3   OH250542   5.035   6.312  14.954 -0.3958  0.6361 -0.2098
 9684TIP3    H150543   4.990   6.371  15.014 -0.1328  2.3197 -1.5787
 9684TIP3    H250544   5.112   6.361  14.925  1.1736 -1.3409  0.4256
 9685TIP3   OH250545   1.071   0.366   0.734  0.3027 -0.3762 -0.2705
 9685TIP3    H150546   1.004   0.357   0.801  0.4951  3.8725  0.7370
 9685TIP3    H250547   1.025   0.399   0.657  0.7200 -1.3066 -0.9562
 9686TIP3   OH250548   0.242   3.816  15.115 -0.1634  0.5220  0.4618
 9686TIP3    H150549   0.273   3.774  15.195  0.9973  0.1715 -0.1480
 9686TIP3    H250550   0.163   3.863  15.141 -1.1614 -1.5253  1.3204
 9687TIP3   OH250551   2.793   2.382  14.578 -1.3012 -0.0845 -0.1977
 9687TIP3    H150552   2.757   2.313  14.523 -0.5033  1.2377 -2.5547
 9687TIP3    H250553   2.805   2.456  14.518  0.0155  1.3402  1.7010
 9688TIP3   OH250554   4.786   2.632  10.462 -0.0737  0.2025 -0.3501
 9688TIP3    H150555   4.702   2.669  10.435 -1.1205 -1.8902 -0.1638
 9688TIP3    H250556   4.803   2.563  10.398  1.3892  0.4288 -0.2219
 9689TIP3   OH250557   2.608   2.807   2.152 -0.1295  0.0658 -0.1096
 9689TIP3    H150558   2.527   2.775   2.192 -0.6024  0.5294 -0.6611
 9689TIP3    H250559   2.672   2.739   2.169 -0.9852 -0.9470 -0.8228
 9690TIP3   OH250560   4.959   4.435   0.182 -0.5838 -0.4319  0.0799
 9690TIP3    H150561   4.889   4.377   0.213 -0.3749 -2.1554 -2.3343
 9690TIP3    H250562   5.036   4.379   0.177  0.0059  0.4227 -0.9003
 9691TIP3   OH250563   6.176   5.738   4.628  0.8481 -0.3240 -0.3921
 9691TIP3    H150564   6.175   5.713   4.720  0.4482  1.1725  0.0245
 9691TIP3    H250565   6.262   5.778   4.615  1.2385 -1.2935 -0.8977
 9692TIP3   OH250566   0.710   5.609   3.793  0.0518  0.4443 -0.3603
 9692TIP3    H150567   0.652   5.622   3.718 -1.0118  1.1751  0.5819
 9692TIP3    H250568   0.785   5.666   3.775  0.8681 -0.9929 -1.9027
 9693TIP3   OH250569   1.316   5.759   1.261 -0.0011  0.2131 -0.8124
 9693TIP3    H150570   1.357   5.707   1.331 -2.9334 -1.9333 -0.4667
 9693TIP3    H250571   1.242   5.802   1.304 -0.9114  0.1627 -2.2690
 9694TIP3   OH250572   3.743   2.544  12.769 -0.1512 -0.3579  0.2380
 9694TIP3    H150573   3.781   2.458  12.786  1.3281  0.5040  1.5864
 9694TIP3    H250574   3.648   2.531  12.777  0.0578 -1.8049  0.6237
 9695TIP3   OH250575   6.383   2.628  15.746 -0.2647  0.3514 -0.0740
 9695TIP3    H150576   6.454   2.576  15.709 -1.3579 -1.2227 -0.0558
 9695TIP3    H250577   6.313   2.565  15.764 -0.2708  1.1655  3.5887
 9696TIP3   OH250578   2.176   6.311  11.296  0.2547  0.1149  0.2914
 9696TIP3    H150579   2.146   6.380  11.356  1.8492  0.2547  0.9842
 9696TIP3    H250580   2.255   6.277  11.337  1.3434  0.1296 -1.6897
 9697TIP3   OH250581   0.545   2.691  13.107 -0.5068  0.5702 -0.1582
 9697TIP3    H150582   0.571   2.781  13.124  0.4399  0.5107 -1.1963
 9697TIP3    H250583   0.522   2.689  13.014 -0.0797 -0.3417 -0.2604
 9698TIP3   OH250584   4.702   3.925   5.620  0.6988  0.1241  0.2179
 9698TIP3    H150585   4.694   4.020   5.618  1.5630  0.3737  3.4166
 9698TIP3    H250586   4.723   3.905   5.711  1.6133 -3.0658 -0.5874
 9699TIP3   OH250587   0.652   3.257   4.787  0.2042  0.6553 -0.2589
 9699TIP3    H150588   0.588   3.302   4.842 -0.8761  0.2774 -1.1643
 9699TIP3    H250589   0.599   3.212   4.720  1.1409 -2.5153  0.9460
 9700TIP3   OH250590   3.659   4.904  14.658  0.2604  0.0014 -0.3264
 9700TIP3    H150591   3.602   4.859  14.596 -1.3607 -1.7335  2.2348
 9700TIP3    H250592   3.748   4.889  14.625 -0.4821 -1.4813 -1.8018
 9701TIP3   OH250593   3.810   4.234  17.149 -0.1307 -0.5472  0.2211
 9701TIP3    H150594   3.814   4.148  17.106 -0.3756  0.0491 -1.0384
 9701TIP3    H250595   3.809   4.297  17.077 -0.8214  0.4892  1.1039
 9702TIP3   OH250596   1.399   3.086  10.860 -0.2787 -1.0264 -0.1128
 9702TIP3    H150597   1.401   2.991  10.851 -1.5528 -0.9992 -0.8919
 9702TIP3    H250598   1.467   3.105  10.925 -1.0202 -2.5984  1.1989
 9703TIP3   OH250599   2.001   4.706  15.220  0.4341 -0.2231  0.1498
 9703TIP3    H150600   2.050   4.667  15.293 -0.9502 -0.1598  1.1562
 9703TIP3    H250601   1.909   4.690  15.242 -0.0661  1.1493 -0.8147
 9704TIP3   OH250602   1.765   0.765   0.188  0.4515  0.3318  0.3333
 9704TIP3    H150603   1.844   0.802   0.149  0.6164 -0.2539  0.1022
 9704TIP3    H250604   1.742   0.691   0.132 -2.2014  2.4018 -1.6080
 9705TIP3   OH250605   2.298   1.658  15.229 -0.2503 -0.1050 -0.1842
 9705TIP3    H150606   2.209   1.629  15.249 -0.4885  0.5041 -0.3490
 9705TIP3    H250607   2.290   1.752  15.216  0.2502 -0.1909 -1.1750
 9706TIP3   OH250608   4.401   3.613  14.136  0.3554  0.1315 -0.4348
 9706TIP3    H150609   4.415   3.684  14.073  0.4715  2.3506  1.9720
 9706TIP3    H250610   4.306   3.605  14.141  0.3273  0.6084 -0.1854
 9707TIP3   OH250611   3.705   2.503  13.506  0.2561 -0.4636 -0.2267
 9707TIP3    H150612   3.663   2.576  13.551  1.3378 -0.1221  0.2691
 9707TIP3    H250613   3.704   2.432  13.570  1.4927 -0.0809  0.2439
 9708TIP3   OH250614   6.791   3.814   0.992  0.5507  0.1031 -0.0938
 9708TIP3    H150615   6.811   3.794   1.084  0.8038  1.0905  0.0831
 9708TIP3    H250616   6.708   3.769   0.975 -1.2033  2.4210  1.6051
 9709TIP3   OH250617   1.345   2.345   3.054  0.1944  1.0418 -0.5500
 9709TIP3    H150618   1.279   2.291   3.010 -0.8408  0.6633  1.3688
 9709TIP3    H250619   1.425   2.328   3.005 -0.2370 -1.7074 -0.4887
 9710TIP3   OH250620   6.188   5.093   3.422  0.1226 -0.1649  0.1999
 9710TIP3    H150621   6.195   5.184   3.395 -0.4081 -0.7956 -2.3125
 9710TIP3    H250622   6.269   5.052   3.389 -0.2396 -0.8561  0.1495
 9711TIP3   OH250623   6.241   2.130   5.902 -0.0990  0.3037 -0.1842
 9711TIP3    H150624   6.213   2.083   5.823  0.2979  0.1123 -0.2145
 9711TIP3    H250625   6.221   2.221   5.884  0.9825  0.4040 -0.9544
 9712TIP3   OH250626   1.854   5.006   5.671  0.1182 -0.6084  0.5282
 9712TIP3    H150627   1.947   5.019   5.656  0.1072 -0.8421  0.2277
 9712TIP3    H250628   1.849   4.954   5.751  0.3595 -2.3947 -0.5435
 9713TIP3   OH250629   2.699   1.920   3.917 -0.0251 -0.1863  0.2712
 9713TIP3    H150630   2.676   1.973   3.994 -0.5921  0.1504 -0.1190
 9713TIP3    H250631   2.671   1.973   3.842  0.1214 -0.6999 -0.1558
 9714TIP3   OH250632   0.636   6.702   6.108 -0.4975 -0.4998 -0.8264
 9714TIP3    H150633   0.689   6.765   6.058  0.9837 -0.1356  1.0575
 9714TIP3    H250634   0.557   6.750   6.132  0.2246  0.3895 -0.1582
 9715TIP3   OH250635   5.502   0.255  11.880  0.3200 -0.1067  0.3661
 9715TIP3    H150636   5.449   0.326  11.844 -0.0594 -1.0460 -0.9909
 9715TIP3    H250637   5.563   0.298  11.940 -0.8599  1.1873  0.6738
 9716TIP3   OH250638   5.032   0.450  12.094 -0.4014 -0.2880 -0.0634
 9716TIP3    H150639   4.960   0.423  12.037 -1.4770 -1.2843  1.6762
 9716TIP3    H250640   5.051   0.373  12.148 -0.8050  1.1444  2.2864
 9717TIP3   OH250641   2.165   1.755   6.028 -0.3813  0.9369  0.4697
 9717TIP3    H150642   2.250   1.734   6.065 -0.8569  1.3390  1.8278
 9717TIP3    H250643   2.109   1.682   6.052 -0.4497  0.6817 -0.4039
 9718TIP3   OH250644   3.744   1.834  11.020 -0.5003  0.3514 -0.7905
 9718TIP3    H150645   3.809   1.838  10.950  1.0434  0.7314  0.5936
 9718TIP3    H250646   3.726   1.926  11.041 -0.4918  0.2399 -0.2847
 9719TIP3   OH250647   3.912   5.744  14.017 -0.1572 -0.0173 -0.2208
 9719TIP3    H150648   3.959   5.797  14.082 -0.0053 -0.1053 -0.2593
 9719TIP3    H250649   3.890   5.663  14.064  0.5600 -0.3717 -0.4798
 9720TIP3   OH250650   1.859   2.201   6.586 -0.4819  0.3344  0.6492
 9720TIP3    H150651   1.876   2.128   6.525 -0.3814  0.6974  0.2357
 9720TIP3    H250652   1.821   2.159   6.663  0.4104 -0.2599  0.7781
 9721TIP3   OH250653   3.835   0.865  13.655 -0.1974 -0.2040 -0.3136
 9721TIP3    H150654   3.880   0.808  13.717  1.7294  0.4052 -1.0662
 9721TIP3    H250655   3.820   0.810  13.578 -0.0268 -0.1970 -0.3520
 9722TIP3   OH250656   3.613   3.731   2.813 -0.4459 -0.1768  0.0037
 9722TIP3    H150657   3.629   3.648   2.768 -3.1708  1.2824 -4.2087
 9722TIP3    H250658   3.680   3.789   2.779 -0.4889  0.1540  0.4785
 9723TIP3   OH250659   5.373   2.982  12.895 -0.5804  0.6309  0.2912
 9723TIP3    H150660   5.399   2.982  12.803 -0.2980  2.0561  0.3528
 9723TIP3    H250661   5.284   2.948  12.895  0.0176 -1.0098 -0.3051
 9724TIP3   OH250662   3.106   2.272   3.919 -0.1310 -0.7211 -0.3754
 9724TIP3    H150663   3.126   2.296   4.010 -0.7412 -0.3956 -0.3214
 9724TIP3    H250664   3.111   2.355   3.871  0.9442 -1.0079 -0.7888
 9725TIP3   OH250665   4.467   0.177   3.637 -0.3768  0.1189  0.0518
 9725TIP3    H150666   4.525   0.185   3.712  2.3569 -0.3323 -1.8543
 9725TIP3    H250667   4.432   0.265   3.624  1.2252  0.8379  0.3300
 9726TIP3   OH250668   5.223   3.606  14.569 -0.0455 -0.7335 -0.0066
 9726TIP3    H150669   5.223   3.511  14.580  0.0696 -0.5339  2.2091
 9726TIP3    H250670   5.132   3.628  14.549 -0.0754 -1.2966 -0.5102
 9727TIP3   OH250671   5.044   2.278  15.972  0.1561 -0.1177 -0.6666
 9727TIP3    H150672   5.074   2.333  15.899 -1.0637  1.4984 -0.0185
 9727TIP3    H250673   5.020   2.340  16.040 -0.4087 -1.5228  0.4584
 9728TIP3   OH250674   5.744   1.092  11.176  0.2817 -0.1542  0.0439
 9728TIP3    H150675   5.764   1.185  11.184  0.4100 -0.0678 -1.1802
 9728TIP3    H250676   5.657   1.090  11.136  0.1475 -0.5644  0.3497
 9729TIP3   OH250677   6.396   3.586  14.738  0.3600  0.0121 -0.1727
 9729TIP3    H150678   6.327   3.631  14.787  0.5048  2.0066 -1.6897
 9729TIP3    H250679   6.478   3.619  14.777  0.4609  0.1715 -0.5145
 9730TIP3   OH250680   4.728   2.247  16.692 -0.0044 -0.0743  0.1589
 9730TIP3    H150681   4.721   2.238  16.788  2.8668 -0.8052  0.3702
 9730TIP3    H250682   4.739   2.341  16.678  1.3669 -0.1273  0.7427
 9731TIP3   OH250683   0.886   2.545   5.441  0.0209  0.1240  0.9851
 9731TIP3    H150684   0.977   2.571   5.427  0.2885 -0.1550  2.0911
 9731TIP3    H250685   0.838   2.628   5.441  0.3803  0.3379  1.1253
 9732TIP3   OH250686   4.373   4.530  13.257 -0.6205 -0.5061 -0.5641
 9732TIP3    H150687   4.318   4.467  13.211 -1.1603  0.5428 -1.4177
 9732TIP3    H250688   4.354   4.515  13.349 -2.0530 -0.4456 -0.8212
 9733TIP3   OH250689   3.517   4.155  12.711  0.3803  0.0400 -0.8977
 9733TIP3    H150690   3.603   4.148  12.668  1.2661  1.9528  0.4198
 9733TIP3    H250691   3.535   4.144  12.804 -0.9580 -0.4574 -0.6794
 9734TIP3   OH250692   5.920   2.600  16.318 -0.1173 -0.0860  0.0240
 9734TIP3    H150693   5.890   2.690  16.307  0.9494  0.2711 -0.0680
 9734TIP3    H250694   6.013   2.602  16.296  0.7620 -0.5281  3.2333
 9735TIP3   OH250695   4.006   4.901   5.695 -0.6328  0.9609  0.1532
 9735TIP3    H150696   4.068   4.948   5.750 -1.6781  1.3876  0.9939
 9735TIP3    H250697   3.982   4.824   5.746 -0.0197  0.2479 -0.6114
 9736TIP3   OH250698   2.976   6.044   4.597 -0.6313  0.2783 -0.4143
 9736TIP3    H150699   3.014   5.956   4.600 -0.5346  0.3409  0.5596
 9736TIP3    H250700   3.030   6.092   4.534 -0.8431 -0.4279 -1.1370
 9737TIP3   OH250701   3.217   4.542  16.175 -0.3213 -0.1789 -0.9175
 9737TIP3    H150702   3.195   4.539  16.082  1.5913 -2.1191 -1.4125
 9737TIP3    H250703   3.193   4.456  16.208  0.4875 -0.0866 -0.0259
 9738TIP3   OH250704   1.519   1.260  14.443 -0.2677 -0.0688  0.3071
 9738TIP3    H150705   1.446   1.200  14.459 -0.2678  0.3074  1.9260
 9738TIP3    H250706   1.487   1.345  14.473 -0.3630  0.8633 -2.1868
 9739TIP3   OH250707   1.320   4.002  14.264 -0.2736  0.0083 -0.0283
 9739TIP3    H150708   1.381   4.072  14.240  0.4376 -0.6299 -0.0986
 9739TIP3    H250709   1.265   3.991  14.187 -0.5593  0.6476  0.0689
 9740TIP3   OH250710   3.187   0.741   6.509 -0.3330 -0.2416 -0.4220
 9740TIP3    H150711   3.247   0.757   6.583  0.0461 -1.9555 -0.3194
 9740TIP3    H250712   3.164   0.648   6.517  0.5079 -0.7305 -3.0332
 9741TIP3   OH250713   6.679   3.405   3.841  0.1113  0.0628  0.0849
 9741TIP3    H150714   6.614   3.338   3.864 -0.6651  0.9106  0.4510
 9741TIP3    H250715   6.752   3.390   3.902 -0.9970  0.9079  1.7220
 9742TIP3   OH250716   1.764   1.612  15.351  0.5919 -0.4247 -0.0728
 9742TIP3    H150717   1.715   1.541  15.392  1.8260 -1.0632  0.3452
 9742TIP3    H250718   1.733   1.691  15.395  0.7903 -0.9375  1.0173
 9743TIP3   OH250719   6.625   0.750   2.721 -0.4704  0.1949 -0.6080
 9743TIP3    H150720   6.681   0.793   2.656 -0.0955 -2.2497 -2.0343
 9743TIP3    H250721   6.686   0.722   2.790 -0.4702  0.5290 -0.4711
 9744TIP3   OH250722   6.721   3.679   4.860 -0.0582 -0.8770 -0.0602
 9744TIP3    H150723   6.789   3.625   4.899 -0.4891 -1.0354  0.4850
 9744TIP3    H250724   6.710   3.752   4.921 -0.8854 -1.2381  0.2388
 9745TIP3   OH250725   0.706   5.447   5.676  0.1608 -0.1671  0.0413
 9745TIP3    H150726   0.769   5.390   5.719 -0.4649 -0.4749  0.5594
 9745TIP3    H250727   0.744   5.535   5.684  0.8541 -0.4359 -0.2651
 9746TIP3   OH250728   5.485   0.501  12.511  0.1820 -0.0343 -0.4027
 9746TIP3    H150729   5.484   0.406  12.499 -0.2156  0.1417 -1.9951
 9746TIP3    H250730   5.578   0.524  12.513  0.2813 -0.4989  0.4201
 9747TIP3   OH250731   1.122   0.219  16.571  0.0807 -0.2790  0.0607
 9747TIP3    H150732   1.056   0.252  16.631  0.2736  0.6617 -0.2162
 9747TIP3    H250733   1.119   0.124  16.580 -2.6692 -0.4209 -1.3498
 9748TIP3   OH250734   0.184   1.780  12.040  0.2562  0.2370  0.0420
 9748TIP3    H150735   0.262   1.835  12.037 -1.3720  2.6827 -2.4396
 9748TIP3    H250736   0.181   1.738  11.954 -0.2285 -1.2784  0.7686
 9749TIP3   OH250737   5.725   1.351  15.132 -0.0329 -0.1117  0.5906
 9749TIP3    H150738   5.640   1.384  15.103 -0.0413  0.4078  1.1900
 9749TIP3    H250739   5.761   1.422  15.185  1.1029 -0.0152 -0.2825
 9750TIP3   OH250740   2.019   1.943   1.721  0.1578  0.2497  0.3442
 9750TIP3    H150741   2.060   1.888   1.654 -0.8012 -1.6419  1.2439
 9750TIP3    H250742   1.967   1.883   1.774 -0.7137  1.9932  1.5861
 9751TIP3   OH250743   5.429   0.620  14.117 -0.0252 -0.3268  0.4796
 9751TIP3    H150744   5.386   0.551  14.066  0.0090 -0.0167  0.0195
 9751TIP3    H250745   5.488   0.573  14.175 -0.6121 -0.7296  0.7643
 9752TIP3   OH250746   1.539   6.359   5.514 -0.3612  0.0218 -0.3163
 9752TIP3    H150747   1.613   6.299   5.505 -0.6501 -0.3270 -0.3999
 9752TIP3    H250748   1.528   6.369   5.609 -1.0252 -0.9633 -0.2758
 9753TIP3   OH250749   5.675   3.318   4.825 -0.1936  0.1711  0.1667
 9753TIP3    H150750   5.703   3.258   4.894 -0.2868  0.3452  0.3559
 9753TIP3    H250751   5.585   3.292   4.805  0.3492 -0.9257 -1.0183
 9754TIP3   OH250752   2.340   6.132  14.332  0.1369  0.5252  0.2279
 9754TIP3    H150753   2.277   6.203  14.320  0.0290  0.2866 -0.6910
 9754TIP3    H250754   2.320   6.070  14.262  1.7518  0.7129 -0.4443
 9755TIP3   OH250755   3.532   1.566   1.631 -0.4835 -0.1702  0.3094
 9755TIP3    H150756   3.491   1.564   1.717 -0.1866 -1.8178  0.4591
 9755TIP3    H250757   3.554   1.474   1.613 -0.5926  0.1206 -1.5442
 9756TIP3   OH250758   2.985   1.717   1.182  0.2885  0.1030  0.3021
 9756TIP3    H150759   3.053   1.651   1.173 -0.0865 -0.2701  0.1583
 9756TIP3    H250760   2.990   1.767   1.101  1.6865  1.3356  1.1071
 9757TIP3   OH250761   5.475   5.850   3.879  0.0257 -0.4298  0.4019
 9757TIP3    H150762   5.442   5.938   3.862  1.3184  0.3100  1.4766
 9757TIP3    H250763   5.543   5.836   3.813  0.7833 -0.0252  1.0655
 9758TIP3   OH250764   6.416   0.419   3.632 -0.3845  0.4733  0.7442
 9758TIP3    H150765   6.411   0.370   3.715  0.1043 -0.4956  0.2169
 9758TIP3    H250766   6.366   0.499   3.649  1.2028  1.1659  2.5752
 9759TIP3   OH250767   3.545   1.679  16.145  0.8855  0.2692  0.5055
 9759TIP3    H150768   3.533   1.678  16.240  0.0905 -1.2456  0.4205
 9759TIP3    H250769   3.457   1.666  16.110  1.3633 -0.5906 -0.4097
 9760TIP3   OH250770   1.685   3.255   1.773  0.0400  0.4811 -0.2763
 9760TIP3    H150771   1.642   3.230   1.854 -1.4002  0.6407 -0.9519
 9760TIP3    H250772   1.743   3.182   1.753  0.1635  0.2950  0.7120
 9761TIP3   OH250773   3.059   3.250   0.180  0.5919  0.1130  0.8988
 9761TIP3    H150774   3.033   3.311   0.110  1.1467  0.2498  0.8091
 9761TIP3    H250775   3.025   3.289   0.260  0.1363  0.0647  0.7324
 9762TIP3   OH250776   2.531   2.825   1.900  0.1086 -0.4235  0.4127
 9762TIP3    H150777   2.526   2.739   1.858  1.6013  0.4084 -1.6551
 9762TIP3    H250778   2.561   2.807   1.989 -0.3407 -2.0834  0.2500
 9763TIP3   OH250779   0.559   2.283  15.440  0.6542  0.1026 -0.3001
 9763TIP3    H150780   0.565   2.207  15.382 -0.3151  1.6201 -2.5419
 9763TIP3    H250781   0.479   2.328  15.412  1.5791  2.3256  0.4537
 9764TIP3   OH250782   4.743   3.163  12.848  0.3271  0.1861  0.8122
 9764TIP3    H150783   4.824   3.162  12.900 -0.2729 -0.0071  1.7505
 9764TIP3    H250784   4.675   3.134  12.908 -0.8245  2.3174  0.6285
 9765TIP3   OH250785   6.287   3.036   4.942  1.0014 -0.7574 -0.3113
 9765TIP3    H150786   6.284   2.942   4.962  2.2850 -0.8150 -0.3526
 9765TIP3    H250787   6.365   3.047   4.888 -0.6108 -0.0746 -2.6575
 9766TIP3   OH250788   2.313   1.191   5.069 -0.3301 -0.2233  0.5988
 9766TIP3    H150789   2.368   1.129   5.021  0.4768  0.0609  1.1208
 9766TIP3    H250790   2.226   1.152   5.070 -0.5402  0.0758 -1.6596
 9767TIP3   OH250791   4.707   3.562   4.750  0.2063 -0.4993  0.2826
 9767TIP3    H150792   4.711   3.643   4.698 -0.7040  1.0122  2.3898
 9767TIP3    H250793   4.794   3.555   4.790  1.0977 -1.9794 -1.7828
 9768TIP3   OH250794   4.968   1.665  17.004 -0.0357  0.0888 -0.0326
 9768TIP3    H150795   5.050   1.688  16.960  1.3345 -2.6279  0.8495
 9768TIP3    H250796   4.967   1.717  17.084  0.9243  0.0600  0.0065
 9769TIP3   OH250797   2.384   6.638  10.699  0.4295 -0.8277 -0.1338
 9769TIP3    H150798   2.450   6.707  10.692  0.3826 -0.1696  3.6109
 9769TIP3    H250799   2.329   6.650  10.622  2.2120  1.3217 -1.2005
 9770TIP3   OH250800   2.529   3.995   0.506  0.1169 -0.3805 -0.3370
 9770TIP3    H150801   2.533   4.069   0.445 -3.0880  0.5328  0.3304
 9770TIP3    H250802   2.498   3.922   0.453  0.4733 -0.4518 -0.4441
 9771TIP3   OH250803   0.211   3.144  11.600 -0.1299  0.6153  0.2043
 9771TIP3    H150804   0.134   3.166  11.546 -0.7060 -1.0341  0.2582
 9771TIP3    H250805   0.277   3.118  11.536 -0.4252 -0.2167  0.2180
 9772TIP3   OH250806   3.075   4.822  13.863  0.0824 -0.1298  0.1898
 9772TIP3    H150807   3.006   4.794  13.802  0.4368 -0.8519  0.1062
 9772TIP3    H250808   3.115   4.898  13.820 -0.0039 -0.3207 -0.2383
 9773TIP3   OH250809   3.991   4.514  15.198  0.6171  0.2411 -0.4237
 9773TIP3    H150810   3.897   4.527  15.204  0.8981  2.0815  0.6276
 9773TIP3    H250811   4.008   4.506  15.104 -0.6125 -0.5483 -0.5980
 9774TIP3   OH250812   3.808   0.326  15.882 -1.2393 -0.2054  1.0896
 9774TIP3    H150813   3.820   0.401  15.824  0.8546 -0.4590  1.1128
 9774TIP3    H250814   3.719   0.335  15.915 -0.2613  3.8486  3.2863
 9775TIP3   OH250815   1.636   4.330   0.836 -0.4698  0.4725 -0.5781
 9775TIP3    H150816   1.641   4.333   0.932  1.6851 -0.6343 -0.5937
 9775TIP3    H250817   1.566   4.267   0.818 -0.7694  0.5547  0.2549
 9776TIP3   OH250818   4.713   6.162  11.160  0.1162 -0.5585  0.2537
 9776TIP3    H150819   4.707   6.256  11.172 -0.7249 -0.5416 -0.1768
 9776TIP3    H250820   4.770   6.150  11.084  1.2950 -0.4664  1.0925
 9777TIP3   OH250821   0.425   6.141   4.058  0.1161  0.1682 -0.1091
 9777TIP3    H150822   0.510   6.161   4.099  1.4754 -1.8089 -1.7410
 9777TIP3    H250823   0.401   6.221   4.013  0.7385  0.9959  0.9680
 9778TIP3   OH250824   0.059   3.851  15.748 -0.1677  0.3161  0.6474
 9778TIP3    H150825  -0.032   3.830  15.728 -0.1269  0.7450 -0.0093
 9778TIP3    H250826   0.076   3.933  15.701  0.9155 -0.3784 -0.2221
 9779TIP3   OH250827   4.734   1.314   2.268 -0.0479  0.4393  0.2258
 9779TIP3    H150828   4.773   1.242   2.219 -1.0236 -0.7970  1.1863
 9779TIP3    H250829   4.718   1.278   2.355 -0.8389  1.7257  0.6448
 9780TIP3   OH250830   1.547   0.410  12.555  0.1524 -0.1522  0.0843
 9780TIP3    H150831   1.582   0.378  12.472  0.7211  0.6663  0.0019
 9780TIP3    H250832   1.559   0.505  12.552 -0.3676 -0.0472  0.8517
 9781TIP3   OH250833   5.322   1.683   2.025 -0.1099  0.0849  0.4054
 9781TIP3    H150834   5.232   1.707   2.048 -0.5676 -1.9436  0.9456
 9781TIP3    H250835   5.314   1.597   1.983  1.5818 -0.1161  0.4250
 9782TIP3   OH250836   3.688   3.196  17.125  0.6782 -0.2670 -0.2079
 9782TIP3    H150837   3.668   3.112  17.082  1.0144 -0.1989 -0.5008
 9782TIP3    H250838   3.754   3.175  17.190 -0.6251 -0.5693  1.0599
 9783TIP3   OH250839   4.036   3.518  11.026  0.0285  0.4503  0.0277
 9783TIP3    H150840   3.943   3.508  11.004 -0.2196  0.8174  0.8712
 9783TIP3    H250841   4.082   3.463  10.962 -0.8139 -0.2970  0.0493
 9784TIP3   OH250842   2.311   1.441  14.716 -0.3267  0.2383 -0.9680
 9784TIP3    H150843   2.314   1.536  14.710 -2.2830  0.3974 -0.2409
 9784TIP3    H250844   2.219   1.419  14.701 -0.2648 -1.3822  0.6567
 9785TIP3   OH250845   6.268   4.432  17.005  0.0942 -0.2550 -0.4864
 9785TIP3    H150846   6.244   4.424  17.097 -0.6699 -3.2990 -0.8391
 9785TIP3    H250847   6.185   4.423  16.958  0.5513  0.6840 -1.5158
 9786TIP3   OH250848   4.257   6.178  11.619  0.3354  0.1178  0.2497
 9786TIP3    H150849   4.229   6.092  11.587  3.4708 -0.6514 -0.8066
 9786TIP3    H250850   4.225   6.239  11.553 -2.7049 -0.0081  1.4597
 9787TIP3   OH250851   3.804   1.758  15.531  0.0110  0.2776 -0.1565
 9787TIP3    H150852   3.788   1.690  15.465  1.9831  0.4311 -0.8412
 9787TIP3    H250853   3.781   1.840  15.487 -1.9821  0.1559  0.5394
 9788TIP3   OH250854   1.765   0.851  16.232  0.3548 -0.2551 -0.6968
 9788TIP3    H150855   1.779   0.771  16.182 -0.4618 -0.1648 -1.0817
 9788TIP3    H250856   1.709   0.825  16.305 -0.0488 -0.0028 -0.9150
 9789TIP3   OH250857   6.433   4.478  16.053 -0.1703  0.1166  0.4339
 9789TIP3    H150858   6.397   4.423  16.123  1.0104 -3.1194 -1.2518
 9789TIP3    H250859   6.519   4.505  16.086 -0.0688 -0.4886  0.6904
 9790TIP3   OH250860   2.871   3.655   3.314  0.2700 -0.1510  0.0639
 9790TIP3    H150861   2.908   3.744   3.319  3.5022 -1.1885 -1.8592
 9790TIP3    H250862   2.804   3.653   3.382  0.8608  3.3726  0.9825
 9791TIP3   OH250863   2.068   0.958  14.279  0.6964  0.1238 -0.1981
 9791TIP3    H150864   2.057   1.033  14.337  0.0592  0.1645 -0.3638
 9791TIP3    H250865   1.985   0.953  14.230  0.1311 -1.5710  0.8418
 9792TIP3   OH250866   4.536   5.383  12.459  0.2087  0.3433  0.1222
 9792TIP3    H150867   4.493   5.394  12.374 -1.8548  0.1703  1.1021
 9792TIP3    H250868   4.606   5.320  12.442  0.1432  0.6709 -1.5335
 9793TIP3   OH250869   1.344   4.674  14.701  0.2573 -0.1572 -0.0141
 9793TIP3    H150870   1.387   4.752  14.666 -1.4347  1.1209  0.6001
 9793TIP3    H250871   1.331   4.617  14.625 -1.6374  1.7204 -1.2157
 9794TIP3   OH250872   3.858   6.042   4.168  0.0650  0.0711 -0.0438
 9794TIP3    H150873   3.802   5.988   4.223  0.5357 -1.2253 -0.7918
 9794TIP3    H250874   3.799   6.103   4.125 -0.6528 -0.6763 -0.1321
 9795TIP3   OH250875   5.181   2.644   4.495  0.0109  0.9239  0.2269
 9795TIP3    H150876   5.158   2.730   4.530 -1.1317  0.3493  0.9615
 9795TIP3    H250877   5.190   2.658   4.400 -3.1952  1.3161 -0.1378
 9796TIP3   OH250878   4.170   3.699  13.378 -0.1866 -0.1844 -0.0830
 9796TIP3    H150879   4.212   3.766  13.326 -0.6491 -1.5041 -2.2739
 9796TIP3    H250880   4.133   3.638  13.314 -1.9380 -1.2040  1.7736
 9797TIP3   OH250881   6.112   3.367  12.972 -0.2456 -0.4815  0.1150
 9797TIP3    H150882   6.192   3.318  12.991 -0.1798  0.1335  1.6162
 9797TIP3    H250883   6.074   3.385  13.059 -0.2322  2.1601 -0.3514
 9798TIP3   OH250884   1.308   3.579   5.181 -0.3896  0.6992  0.1129
 9798TIP3    H150885   1.213   3.570   5.184 -0.4134 -0.7647 -2.1812
 9798TIP3    H250886   1.324   3.648   5.116  0.0539 -1.2925 -2.0257
 9799TIP3   OH250887   3.938   6.755   6.627 -0.7168 -0.4829 -0.5885
 9799TIP3    H150888   3.956   6.677   6.679 -0.3688 -1.8097 -2.5867
 9799TIP3    H250889   3.863   6.796   6.670  0.3016 -0.8003  1.6235
 9800TIP3   OH250890   6.063   4.837   5.148  0.2528  0.5296  0.2923
 9800TIP3    H150891   6.036   4.899   5.080  0.3226  0.5763  0.3072
 9800TIP3    H250892   6.134   4.881   5.194 -0.1265  0.7086  0.7169
 9801TIP3   OH250893   1.882   3.743   0.235 -0.2714  0.0225  0.3967
 9801TIP3    H150894   1.934   3.707   0.307 -1.2166 -0.5804  0.7886
 9801TIP3    H250895   1.791   3.736   0.264 -0.6924 -0.5075 -0.9696
 9802TIP3   OH250896   3.900   1.760  14.237  0.1607  0.2741  0.5385
 9802TIP3    H150897   3.955   1.737  14.312  0.7313  0.2380  0.1135
 9802TIP3    H250898   3.901   1.855  14.235  0.8923  0.2650  0.0413
 9803TIP3   OH250899   2.426   4.506   3.886  0.1729 -0.1485  0.0471
 9803TIP3    H150900   2.499   4.529   3.829 -0.2557  1.4446  0.0977
 9803TIP3    H250901   2.467   4.485   3.970  0.5927  0.5345  0.0183
 9804TIP3   OH250902   4.163   2.984   4.411  0.2767  0.3686  0.3479
 9804TIP3    H150903   4.241   3.027   4.445 -0.3260  1.9053 -0.1007
 9804TIP3    H250904   4.196   2.921   4.347  1.1777  0.4740  0.6994
 9805TIP3   OH250905   1.282   3.642   6.196 -0.3315  0.1134 -0.0606
 9805TIP3    H150906   1.307   3.556   6.229  0.5748 -0.0245 -1.0453
 9805TIP3    H250907   1.358   3.672   6.147 -0.4570  1.6817  0.6284
 9806TIP3   OH250908   3.531   1.380  17.241  0.1692  0.0129  0.2803
 9806TIP3    H150909   3.618   1.416  17.223 -0.4266  1.0072 -0.7367
 9806TIP3    H250910   3.546   1.313  17.308  1.5597  0.9427  0.9406
 9807TIP3   OH250911   1.847   0.317   3.175  0.2221 -0.3445  0.0063
 9807TIP3    H150912   1.917   0.369   3.135 -0.3401 -0.3616 -1.0306
 9807TIP3    H250913   1.882   0.292   3.261  1.2617  0.1185 -0.2652
 9808TIP3   OH250914   4.029   2.859  12.366 -0.5770  0.5006  0.1541
 9808TIP3    H150915   3.990   2.798  12.429  1.3454 -1.7979 -0.6989
 9808TIP3    H250916   4.083   2.917  12.419 -0.3502 -0.2767  0.8016
 9809TIP3   OH250917   4.326   5.169   0.675  0.0532 -0.2109 -0.6648
 9809TIP3    H150918   4.245   5.170   0.726  0.7712  0.3928  0.4995
 9809TIP3    H250919   4.384   5.231   0.719  0.1768  1.6035 -3.1473
 9810TIP3   OH250920   6.663   1.497   1.291 -0.3195 -0.3324 -0.9155
 9810TIP3    H150921   6.580   1.535   1.316  0.8074  2.7586 -1.4166
 9810TIP3    H250922   6.643   1.443   1.214 -2.1543 -1.6650  0.4272
 9811TIP3   OH250923   0.606   3.230  13.371 -0.3491 -0.6854 -0.1459
 9811TIP3    H150924   0.603   3.289  13.446  1.8478  0.7640 -1.0953
 9811TIP3    H250925   0.646   3.150  13.405  3.3671  0.9302 -0.1668
 9812TIP3   OH250926   0.606   5.154   2.247 -0.1683 -0.2592  0.0942
 9812TIP3    H150927   0.525   5.206   2.250 -0.3239 -0.5244  0.5874
 9812TIP3    H250928   0.584   5.080   2.191 -0.3555 -0.4794  0.4592
 9813TIP3   OH250929   0.440   3.820  14.902 -0.1700  0.0089 -0.4440
 9813TIP3    H150930   0.432   3.734  14.859 -1.4142  0.1063 -0.4289
 9813TIP3    H250931   0.364   3.825  14.959 -0.4998  1.4145 -0.9765
 9814TIP3   OH250932   2.718   5.769   1.381  0.2123  0.0761  0.5504
 9814TIP3    H150933   2.749   5.684   1.411  0.2805 -0.4714 -0.9930
 9814TIP3    H250934   2.623   5.758   1.372  0.4139 -0.4185 -1.3263
 9815TIP3   OH250935   5.979   5.374  11.682 -0.8084  0.1269 -0.7802
 9815TIP3    H150936   6.060   5.329  11.658 -0.1683  1.5690 -1.3928
 9815TIP3    H250937   6.002   5.424  11.761 -1.2660  0.0961 -0.6241
 9816TIP3   OH250938   3.894   4.839  13.758 -0.1457  0.1738  0.1200
 9816TIP3    H150939   3.928   4.892  13.686 -1.8621 -1.2232 -1.8336
 9816TIP3    H250940   3.800   4.833  13.742 -0.3991 -1.2219  1.8005
 9817TIP3   OH250941   5.199   1.504   2.718  0.1925 -0.1261  0.1314
 9817TIP3    H150942   5.227   1.543   2.801  1.7721 -0.5801 -0.1546
 9817TIP3    H250943   5.178   1.414   2.741  0.5432 -0.2271  0.0639
 9818TIP3   OH250944   5.109   5.862  17.051 -0.1651 -0.1074  0.2747
 9818TIP3    H150945   5.133   5.788  16.996 -1.7428  0.2525 -0.9646
 9818TIP3    H250946   5.068   5.822  17.128 -2.3339 -0.5504 -1.0408
 9819TIP3   OH250947   0.960   3.325   1.454 -0.4605  0.5064 -0.1777
 9819TIP3    H150948   1.035   3.367   1.497  0.1603 -0.1512 -0.5852
 9819TIP3    H250949   0.986   3.233   1.444 -2.3965 -0.3812  2.0678
 9820TIP3   OH250950   5.409   1.333   3.923  0.3084 -0.5169  0.5822
 9820TIP3    H150951   5.352   1.285   3.863 -0.1529 -0.6563  1.1293
 9820TIP3    H250952   5.424   1.273   3.996  0.7595 -0.2982  0.6739
 9821TIP3   OH250953   0.171   6.585   4.424 -0.3305 -0.6214  0.4774
 9821TIP3    H150954   0.233   6.603   4.495 -0.7111 -0.0030  0.6619
 9821TIP3    H250955   0.118   6.664   4.417  0.2372 -0.3281 -1.0573
 9822TIP3   OH250956   6.275   0.395   5.319  0.2245  0.4543 -0.4508
 9822TIP3    H150957   6.293   0.430   5.406 -0.3652  3.3438 -1.3764
 9822TIP3    H250958   6.213   0.324   5.333  1.7367 -0.5672  1.5949
 9823TIP3   OH250959   4.085   5.921   0.390 -0.2407  0.4664 -0.2626
 9823TIP3    H150960   4.083   6.007   0.432  0.6332  0.1113  0.5443
 9823TIP3    H250961   4.003   5.880   0.418 -1.2847  1.4717 -1.6782
 9824TIP3   OH250962   3.600   4.988  14.929 -0.2099 -0.7177 -0.1897
 9824TIP3    H150963   3.613   4.960  14.839 -0.0014  1.4979 -0.9162
 9824TIP3    H250964   3.511   5.025  14.929  0.4921  1.1063 -0.0698
 9825TIP3   OH250965   2.138   1.055   6.322 -0.1823  0.3932  0.5813
 9825TIP3    H150966   2.218   1.075   6.370  0.4869 -0.5305 -0.0894
 9825TIP3    H250967   2.079   1.127   6.341  1.3482  1.8963 -0.1079
 9826TIP3   OH250968   2.360   4.625  15.095 -0.1607 -0.4168  0.2709
 9826TIP3    H150969   2.296   4.563  15.128  2.0374 -3.5354 -0.8145
 9826TIP3    H250970   2.419   4.572  15.042  0.8326  2.9867 -2.3941
 9827TIP3   OH250971   1.951   4.269   6.126  0.1246  0.3654 -0.3739
 9827TIP3    H150972   1.953   4.200   6.059 -0.4384  1.0130 -1.0878
 9827TIP3    H250973   1.896   4.233   6.196 -0.6010  0.2703 -0.9739
 9828TIP3   OH250974   5.045   5.766   2.909  0.1674  0.5653 -0.1324
 9828TIP3    H150975   5.051   5.839   2.970 -1.9466 -0.4151  1.3735
 9828TIP3    H250976   5.001   5.803   2.832  1.1358  1.3622 -0.3240
 9829TIP3   OH250977   5.977   2.186   4.272 -0.1916  0.0586 -0.3471
 9829TIP3    H150978   5.995   2.199   4.365  1.3897  1.9980 -0.8604
 9829TIP3    H250979   6.064   2.182   4.231 -0.8291 -1.7650 -1.6520
 9830TIP3   OH250980   1.812   3.725   2.527  0.2751 -0.5072  0.2944
 9830TIP3    H150981   1.864   3.801   2.501 -1.9252  1.1469  0.4447
 9830TIP3    H250982   1.822   3.664   2.454  4.0642 -1.2595  1.2210
 9831TIP3   OH250983   4.461   1.531  13.819  0.4055  0.3738  0.4391
 9831TIP3    H150984   4.469   1.507  13.727  0.3960 -2.6445  1.1336
 9831TIP3    H250985   4.371   1.563  13.827  0.1073 -0.2106 -0.4371
 9832TIP3   OH250986   4.803   0.506   0.771  0.4531  0.1573 -0.2277
 9832TIP3    H150987   4.719   0.546   0.789  0.5246  0.3441 -0.3096
 9832TIP3    H250988   4.791   0.461   0.687  0.0185 -1.0011  0.4299
 9833TIP3   OH250989   4.307   0.409   4.198  0.1771 -0.5570  0.1787
 9833TIP3    H150990   4.266   0.328   4.169  0.7843 -0.7179 -0.2536
 9833TIP3    H250991   4.372   0.381   4.263 -1.7136 -0.1376  2.3688
 9834TIP3   OH250992   4.835   4.126   3.070  0.4454  0.0431 -0.4652
 9834TIP3    H150993   4.758   4.183   3.069  1.3000  1.2952  0.8887
 9834TIP3    H250994   4.875   4.138   2.984 -0.6803 -0.4035 -1.0783
 9835TIP3   OH250995   4.812   5.823   0.629  0.4474 -0.0329 -0.7039
 9835TIP3    H150996   4.828   5.915   0.610 -0.0510  0.0486 -0.7256
 9835TIP3    H250997   4.899   5.782   0.622  0.6575  0.4162 -0.7664
 9836TIP3   OH250998   5.329   5.127   6.343  0.5108  0.2437  0.5224
 9836TIP3    H150999   5.348   5.048   6.395 -0.1756 -0.9698 -0.9840
 9836TIP3    H251000   5.397   5.127   6.275  0.0271  0.5052  0.0379
 9837TIP3   OH251001   2.200   1.495   5.283 -0.0155  0.4384  0.8505
 9837TIP3    H151002   2.293   1.478   5.269 -0.3760 -1.4515  0.5621
 9837TIP3    H251003   2.159   1.474   5.199 -0.7970  0.6149  1.1746
 9838TIP3   OH251004   2.258   2.939  15.033 -0.5947 -0.1124  0.6943
 9838TIP3    H151005   2.303   3.023  15.028  0.1081 -0.4526  1.1575
 9838TIP3    H251006   2.184   2.954  15.093 -1.4537  0.5914 -0.5033
 9839TIP3   OH251007   6.778   5.632   5.021 -0.0585 -0.2905  0.1739
 9839TIP3    H151008   6.825   5.553   5.049 -0.1852 -0.7124 -0.7756
 9839TIP3    H251009   6.701   5.635   5.078  1.1272  0.4682  1.8297
 9840TIP3   OH251010   6.219   2.199  12.105 -0.9700 -0.5702 -0.0526
 9840TIP3    H151011   6.153   2.251  12.060  1.8417  0.8306 -2.9270
 9840TIP3    H251012   6.281   2.262  12.140  0.4120 -1.8689 -0.0448
 9841TIP3   OH251013   6.553   1.552   4.186 -0.1019 -0.3569  0.1225
 9841TIP3    H151014   6.602   1.634   4.185  0.4636 -0.6982  0.0079
 9841TIP3    H251015   6.519   1.546   4.275  0.0807 -0.1310  0.2079
 9842TIP3   OH251016   0.892   6.132  10.810  0.0544 -0.2306  0.1284
 9842TIP3    H151017   0.828   6.062  10.806 -1.5743  1.1318 -4.0048
 9842TIP3    H251018   0.865   6.186  10.885 -0.8312 -2.0562  1.1756
 9843TIP3   OH251019   4.160   4.960   3.594  0.2967 -0.1118 -0.0666
 9843TIP3    H151020   4.205   4.895   3.646  0.8905  0.9203  0.7473
 9843TIP3    H251021   4.128   4.912   3.517  0.4914 -1.3870  0.6339
 9844TIP3   OH251022   3.635   2.194   5.155  0.0777 -0.2388  0.2667
 9844TIP3    H151023   3.707   2.249   5.185 -1.1161  1.5125  0.0478
 9844TIP3    H251024   3.565   2.210   5.217 -0.6535 -0.6835 -0.4260
 9845TIP3   OH251025   4.730   3.999  15.561  0.5115  0.3012  0.7379
 9845TIP3    H151026   4.665   4.069  15.549  0.4815  0.4925  1.9154
 9845TIP3    H251027   4.682   3.928  15.603 -0.0994 -1.4976 -2.6339
 9846TIP3   OH251028   1.296   2.527  11.445 -0.0385  0.1958 -0.7483
 9846TIP3    H151029   1.335   2.467  11.509  0.9728 -1.2835 -2.6329
 9846TIP3    H251030   1.251   2.470  11.383  0.6396  1.3668 -2.4058
 9847TIP3   OH251031   6.438   2.542   5.697  0.2884  0.2435 -0.2042
 9847TIP3    H151032   6.497   2.615   5.717  1.0536 -0.8755  2.0565
 9847TIP3    H251033   6.350   2.578   5.709  0.5467  1.3971 -1.5692
 9848TIP3   OH251034   1.071   1.413   1.277 -0.1377  0.6794 -0.1632
 9848TIP3    H151035   1.110   1.482   1.330  1.6655 -1.1745  1.1005
 9848TIP3    H251036   1.089   1.439   1.187 -0.4489  2.3457  0.2322
 9849TIP3   OH251037   6.087   0.119   1.856 -0.3814 -0.2791 -0.1237
 9849TIP3    H151038   6.033   0.092   1.782 -3.5437  0.8421  1.5809
 9849TIP3    H251039   6.103   0.038   1.905 -0.8058 -0.5799 -0.4734
 9850TIP3   OH251040   3.390   6.699  15.605  0.4066  0.1825  0.7023
 9850TIP3    H151041   3.301   6.691  15.572 -1.0829  2.8679  3.5148
 9850TIP3    H251042   3.409   6.614  15.645 -1.1639 -0.2203  0.6609
 9851TIP3   OH251043   2.615   0.818   3.423 -0.1651  0.0084  0.1621
 9851TIP3    H151044   2.578   0.879   3.488  0.6678  0.1360  0.5250
 9851TIP3    H251045   2.700   0.854   3.402 -0.5313  0.1061 -1.2295
 9852TIP3   OH251046   2.092   3.854   4.854 -0.4152 -0.3502 -0.0540
 9852TIP3    H151047   2.001   3.869   4.827 -0.3534  0.6577  0.2326
 9852TIP3    H251048   2.133   3.813   4.778 -0.5811  1.1769 -1.0094
 9853TIP3   OH251049   1.788   4.423  12.019  0.1907 -0.2912 -0.6349
 9853TIP3    H151050   1.811   4.354  11.957 -1.2231 -2.5995  1.2670
 9853TIP3    H251051   1.789   4.381  12.104 -2.0812  1.6708  0.4817
 9854TIP3   OH251052   2.937   2.528  16.095  0.1877  0.7610  0.1010
 9854TIP3    H151053   2.875   2.600  16.102  0.0695  0.7086 -0.3247
 9854TIP3    H251054   2.886   2.450  16.115  0.1670  0.7387 -0.0372
 9855TIP3   OH251055   5.097   2.714  12.312  0.6562 -0.2654  0.5736
 9855TIP3    H151056   5.159   2.775  12.271  0.0902 -0.9747 -1.4324
 9855TIP3    H251057   5.057   2.668  12.239 -0.9382 -1.1094  1.9247
 9856TIP3   OH251058   1.559   4.974   5.209  0.4829  0.1908 -0.3596
 9856TIP3    H151059   1.640   4.927   5.193  1.0870  1.0011  0.2461
 9856TIP3    H251060   1.554   4.981   5.305  0.4906  1.4857 -0.4381
 9857TIP3   OH251061   2.013   6.661  16.655 -0.0642  0.0146 -0.3095
 9857TIP3    H151062   2.029   6.621  16.570  2.7834  0.9369 -0.2880
 9857TIP3    H251063   1.996   6.753  16.636  0.4328  0.1923  0.0872
 9858TIP3   OH251064   5.322   5.849   5.177  0.2759 -0.2952  0.3415
 9858TIP3    H151065   5.268   5.891   5.244 -0.6760  0.2404 -0.7248
 9858TIP3    H251066   5.390   5.803   5.226  0.3283  1.0776  1.6182
 9859TIP3   OH251067   4.638   4.270  14.309  0.7417  0.0967 -0.1164
 9859TIP3    H151068   4.709   4.207  14.296  0.2287 -0.3874 -0.6410
 9859TIP3    H251069   4.655   4.339  14.245  1.0084  0.2352  0.0992
 9860TIP3   OH251070   6.234   1.386  13.740  0.1617  0.2544 -0.4010
 9860TIP3    H151071   6.246   1.439  13.661  1.2400  1.1290  0.3241
 9860TIP3    H251072   6.322   1.373  13.774 -0.2713 -0.3375  0.5239
 9861TIP3   OH251073   0.744   3.346  11.445 -0.3105  0.2942  0.1345
 9861TIP3    H151074   0.739   3.300  11.362 -0.0904 -0.8899  0.7598
 9861TIP3    H251075   0.654   3.348  11.477  0.0299 -2.4081  1.5039
 9862TIP3   OH251076   2.821   6.674   4.944  0.5441 -0.0703  0.4747
 9862TIP3    H151077   2.871   6.595   4.964 -2.5419 -2.3627 -0.1277
 9862TIP3    H251078   2.776   6.695   5.026  0.2862  0.2415  0.2546
 9863TIP3   OH251079   2.844   0.573   1.693 -0.3104 -0.0549 -0.8255
 9863TIP3    H151080   2.934   0.557   1.722  0.0678 -0.1930 -2.0265
 9863TIP3    H251081   2.852   0.641   1.626 -1.0760 -0.2269 -1.1046
 9864TIP3   OH251082   0.197   3.528  13.398  0.1644 -0.1455 -0.5179
 9864TIP3    H151083   0.120   3.583  13.412 -1.5132 -2.9544  2.4588
 9864TIP3    H251084   0.176   3.477  13.320 -0.5643 -0.1787 -0.3075
 9865TIP3   OH251085   0.826   6.698   1.466 -0.4218  0.4206  0.2900
 9865TIP3    H151086   0.842   6.719   1.558 -0.8145  1.5138  0.1326
 9865TIP3    H251087   0.882   6.623   1.447  0.4291  0.8332  1.1467
 9866TIP3   OH251088   2.878   1.822  11.292  0.1499 -0.4366 -0.2665
 9866TIP3    H151089   2.857   1.746  11.237  1.2869 -1.1863  0.3068
 9866TIP3    H251090   2.793   1.860  11.314 -0.3519 -0.1275 -2.4959
 9867TIP3   OH251091   6.526   0.069   2.845  0.1791 -0.3952 -0.4043
 9867TIP3    H151092   6.549   0.157   2.814  0.8458 -1.1986 -2.2966
 9867TIP3    H251093   6.432   0.074   2.863  0.6500  1.4088  2.1438
 9868TIP3   OH251094   2.930   0.992   3.089 -0.1107  0.1619  0.1030
 9868TIP3    H151095   2.963   0.914   3.044  0.0971 -0.2444  0.9324
 9868TIP3    H251096   2.953   1.065   3.032  3.2493  0.0471  1.0853
 9869TIP3   OH251097   6.195   6.096  12.278 -0.0360 -0.3030 -0.2039
 9869TIP3    H151098   6.252   6.156  12.327  1.7942 -0.9027 -1.4637
 9869TIP3    H251099   6.115   6.145  12.263  0.1505  0.6174  1.5928
 9870TIP3   OH251100   6.268   6.696   4.755 -0.0972 -0.6594 -0.0139
 9870TIP3    H151101   6.303   6.782   4.731 -0.6201 -0.2845  0.5299
 9870TIP3    H251102   6.190   6.686   4.700  0.3789 -1.1198 -0.6146
 9871TIP3   OH251103   4.076   1.453   2.009  0.6258  0.7666  0.4262
 9871TIP3    H151104   4.046   1.399   2.082 -0.8214  0.1058 -0.6085
 9871TIP3    H251105   4.171   1.441   2.008  0.5330 -0.1902  1.4515
 9872TIP3   OH251106   2.057   2.451  16.082  0.5493  0.4980 -0.0074
 9872TIP3    H151107   2.004   2.424  16.007  0.6119  0.3103  0.0153
 9872TIP3    H251108   2.026   2.396  16.154  1.3658 -0.2244 -0.1954
 9873TIP3   OH251109   6.233   1.859   4.081  0.4841 -0.2694  0.6189
 9873TIP3    H151110   6.255   1.771   4.052 -0.1679 -0.5670  0.9984
 9873TIP3    H251111   6.231   1.853   4.177 -1.6541 -0.3979  0.6201
 9874TIP3   OH251112   2.910   2.589  13.274 -0.8216 -0.1705  0.3579
 9874TIP3    H151113   2.949   2.585  13.187  0.4556 -0.1344  0.9173
 9874TIP3    H251114   2.830   2.641  13.262 -1.4040 -1.3189 -1.0484
 9875TIP3   OH251115   2.195   2.292   4.219 -0.2221 -0.7063  0.6888
 9875TIP3    H151116   2.129   2.242   4.171  0.4157 -2.4267  1.5007
 9875TIP3    H251117   2.259   2.317   4.153 -1.0753 -0.0333  0.0960
 9876TIP3   OH251118   6.101   1.400   5.682  0.2260 -0.6272  0.3820
 9876TIP3    H151119   6.028   1.339   5.695  0.0676 -0.5007  0.0848
 9876TIP3    H251120   6.111   1.444   5.766  0.2863 -1.0040  0.5736
 9877TIP3   OH251121   0.203   5.587  11.427 -0.1639  0.1235 -0.5965
 9877TIP3    H151122   0.157   5.643  11.489 -0.0392  0.2577 -0.6219
 9877TIP3    H251123   0.184   5.498  11.455  1.6943  0.1703  1.0116
 9878TIP3   OH251124   2.355   0.808  16.753  0.2758 -0.0896 -1.0565
 9878TIP3    H151125   2.395   0.810  16.666  1.5264 -1.2932 -0.5453
 9878TIP3    H251126   2.410   0.749  16.804  1.6683  3.1623  1.5880
 9879TIP3   OH251127   3.833   5.507  16.379 -0.1239 -0.2645 -0.0567
 9879TIP3    H151128   3.890   5.480  16.452 -0.1101 -1.1724 -0.3924
 9879TIP3    H251129   3.813   5.426  16.333  0.1045  0.3343 -1.2543
 9880TIP3   OH251130   2.712   0.751   0.733 -0.2310 -0.2911  0.0494
 9880TIP3    H151131   2.796   0.796   0.723 -0.6099  0.6014  0.7406
 9880TIP3    H251132   2.647   0.817   0.712 -0.7729 -1.3633 -1.8860
 9881TIP3   OH251133   4.326   3.054   1.970  0.1039 -0.0418 -0.1009
 9881TIP3    H151134   4.298   3.019   1.886 -2.1915 -0.0657  0.6074
 9881TIP3    H251135   4.388   2.990   2.004 -0.4733 -1.0480 -0.9119
 9882TIP3   OH251136   2.151   0.314   6.165 -0.1462 -0.1217  0.2647
 9882TIP3    H151137   2.227   0.323   6.108 -0.9577  0.6057 -0.7357
 9882TIP3    H251138   2.127   0.404   6.187  0.4123 -0.3931  2.1403
 9883TIP3   OH251139   3.696   1.045  16.492 -0.0353  0.2169 -0.2289
 9883TIP3    H151140   3.777   0.999  16.514 -0.7150 -0.7108  0.4565
 9883TIP3    H251141   3.688   1.037  16.397 -1.7704 -4.1381  0.0375
 9884TIP3   OH251142   5.499   1.432  14.579  0.7084 -0.5388 -0.4565
 9884TIP3    H151143   5.425   1.411  14.523  1.2467  0.0177 -1.4080
 9884TIP3    H251144   5.529   1.517  14.548  0.2665  0.3971  1.4910
 9885TIP3   OH251145   6.370   3.556  16.997 -0.2390 -0.6598  0.2414
 9885TIP3    H151146   6.309   3.484  17.015 -1.4138  0.5542  1.3803
 9885TIP3    H251147   6.336   3.629  17.048  2.1959  0.0909  0.9273
 9886TIP3   OH251148   1.326   1.431  12.069 -0.0809 -0.2175  0.2720
 9886TIP3    H151149   1.319   1.511  12.120  1.5966 -0.9185  1.7300
 9886TIP3    H251150   1.399   1.383  12.110  0.7187 -1.2818 -2.1870
 9887TIP3   OH251151   4.719   2.694  14.489 -0.1181 -0.0784 -0.3761
 9887TIP3    H151152   4.668   2.622  14.527 -0.4886  0.7676  0.7651
 9887TIP3    H251153   4.810   2.671  14.506 -0.2577  0.0167  0.5423
 9888TIP3   OH251154   0.949   4.831   1.031 -0.1182 -0.2664 -0.1845
 9888TIP3    H151155   0.940   4.830   1.127 -0.4735 -1.3351 -0.2188
 9888TIP3    H251156   1.023   4.773   1.014 -0.8335 -1.0606 -0.6255
 9889TIP3   OH251157   5.236   1.512  15.976  0.1206  0.0894  0.4468
 9889TIP3    H151158   5.210   1.516  16.068  0.5075 -0.2166  0.5719
 9889TIP3    H251159   5.226   1.602  15.944 -1.2259 -0.0386  0.4492
 9890TIP3   OH251160   1.367   2.929   5.019 -0.1106 -0.2127 -0.1067
 9890TIP3    H151161   1.373   2.834   5.015  1.6376 -0.1184 -1.2107
 9890TIP3    H251162   1.458   2.958   5.013 -0.5789  1.5273  0.6291
 9891TIP3   OH251163   3.239   6.729  12.797 -0.1213  0.4729 -0.1587
 9891TIP3    H151164   3.292   6.749  12.720 -0.2861  1.8868  0.0751
 9891TIP3    H251165   3.159   6.690  12.760  0.9789 -1.6034 -0.5126
 9892TIP3   OH251166   1.688   5.352   4.106  1.1471 -0.5296 -0.1836
 9892TIP3    H151167   1.598   5.319   4.102 -0.0360  2.4756 -0.5389
 9892TIP3    H251168   1.701   5.374   4.199  1.4137 -0.6885 -0.1824
 9893TIP3   OH251169   3.208   1.910   3.475  0.1421  0.1201 -0.5170
 9893TIP3    H151170   3.188   1.891   3.383 -1.7049 -0.4848 -0.0398
 9893TIP3    H251171   3.239   2.001   3.474  2.0554 -0.4748 -1.9389
 9894TIP3   OH251172   0.706   5.190   3.726 -0.0867 -0.7601  0.3749
 9894TIP3    H151173   0.775   5.252   3.751 -0.3020  0.4068 -1.7082
 9894TIP3    H251174   0.749   5.129   3.666 -0.5567 -0.8337  0.1090
 9895TIP3   OH251175   6.105   5.026  16.603 -0.2222 -0.5482 -0.3419
 9895TIP3    H151176   6.185   5.006  16.556  0.8792 -0.9574  1.6159
 9895TIP3    H251177   6.047   4.952  16.584  0.2599 -0.7919 -0.8996
 9896TIP3   OH251178   6.309   6.001  12.825  0.2369 -0.3305  0.2498
 9896TIP3    H151179   6.377   6.033  12.766  0.6052 -0.5768  0.5434
 9896TIP3    H251180   6.299   5.909  12.802  0.8319 -0.5881  1.0024
 9897TIP3   OH251181   1.148   1.298   5.896  0.1858  0.4931  0.2701
 9897TIP3    H151182   1.109   1.244   5.827  0.6977  0.9834 -0.4168
 9897TIP3    H251183   1.115   1.260   5.977  1.6344 -1.7436 -0.0995
 9898TIP3   OH251184   1.383   6.575  15.277  0.1025 -0.5973  0.0076
 9898TIP3    H151185   1.411   6.527  15.199  0.1129  0.3371 -0.5804
 9898TIP3    H251186   1.445   6.648  15.284 -0.0867 -0.4953  0.7133
 9899TIP3   OH251187   4.626   4.797  10.784 -0.7425  0.4267 -0.2910
 9899TIP3    H151188   4.544   4.841  10.762 -0.6630  0.2179 -1.0419
 9899TIP3    H251189   4.693   4.864  10.770 -0.8659  1.0241  1.6256
 9900TIP3   OH251190   3.327   1.284  16.650  0.3532  0.0421  0.3822
 9900TIP3    H151191   3.252   1.334  16.618  1.2041 -0.3892 -2.6222
 9900TIP3    H251192   3.290   1.199  16.676 -0.3803  0.2754  0.1178
 9901TIP3   OH251193   1.405   0.615  14.423  0.0789 -0.4476 -0.3178
 9901TIP3    H151194   1.414   0.649  14.335  0.8149  0.9846  0.2850
 9901TIP3    H251195   1.459   0.536  14.424  0.7097 -0.0300 -0.9266
 9902TIP3   OH251196   3.312   0.689  12.045 -0.4143 -0.0537 -0.3853
 9902TIP3    H151197   3.235   0.660  11.996  0.5115  0.8254 -2.4550
 9902TIP3    H251198   3.320   0.782  12.025  1.3700 -0.2026 -0.5026
 9903TIP3   OH251199   4.449   1.596   1.390 -0.0427 -0.1777  0.9806
 9903TIP3    H151200   4.465   1.631   1.302  0.4738 -0.4246  0.9732
 9903TIP3    H251201   4.362   1.628   1.413 -0.6972 -1.1033 -0.1003
 9904TIP3   OH251202   6.403   6.449  16.836 -0.7083 -0.0991 -0.6383
 9904TIP3    H151203   6.387   6.418  16.925 -1.4217  0.8760 -0.4074
 9904TIP3    H251204   6.499   6.448  16.827 -0.6439 -0.4539  0.0381
 9905TIP3   OH251205   6.131   2.785  11.876 -0.3647  0.2106  0.3994
 9905TIP3    H151206   6.189   2.832  11.815  0.5406  1.7286  2.3028
 9905TIP3    H251207   6.062   2.848  11.896  0.1202  0.3053  1.9456
 9906TIP3   OH251208   0.142   4.941   3.069 -0.5437  0.2824  0.4885
 9906TIP3    H151209   0.092   4.921   3.148 -1.1445  0.7408  0.2235
 9906TIP3    H251210   0.117   5.030   3.046 -0.4913  0.0925 -0.3156
 9907TIP3   OH251211   0.007   0.737  11.898 -0.3940 -0.6236 -0.1517
 9907TIP3    H151212  -0.046   0.735  11.819 -1.1828 -2.2748  0.3688
 9907TIP3    H251213   0.095   0.714  11.868 -0.2468  0.7044 -0.8067
 9908TIP3   OH251214   0.098   3.494  12.812  0.5322 -0.1981  0.1736
 9908TIP3    H151215   0.101   3.571  12.869 -0.4109  1.2193 -1.6160
 9908TIP3    H251216   0.022   3.444  12.842  1.4672 -0.7924  1.6989
 9909TIP3   OH251217   4.260   6.493   2.681  0.2493  0.3826 -0.3826
 9909TIP3    H151218   4.210   6.493   2.763  0.4963 -1.9241 -0.1608
 9909TIP3    H251219   4.257   6.584   2.651 -0.7571  1.0721  1.6218
 9910TIP3   OH251220   3.103   5.925  12.041 -0.5891  0.2871  0.6798
 9910TIP3    H151221   3.020   5.878  12.034  0.0102 -0.9257  1.4242
 9910TIP3    H251222   3.169   5.862  12.013  0.2591  0.6445  1.7928
 9911TIP3   OH251223   3.489   4.273  13.833 -0.3344  0.2098  0.4011
 9911TIP3    H151224   3.532   4.322  13.762  0.5241 -2.0592 -0.7473
 9911TIP3    H251225   3.561   4.242  13.888 -0.8690  0.3641  1.2057
 9912TIP3   OH251226   5.391   0.554   1.752 -0.3595 -0.6607 -0.0296
 9912TIP3    H151227   5.357   0.476   1.796 -0.6848 -0.6984 -0.3312
 9912TIP3    H251228   5.364   0.627   1.807  0.7719 -0.8195  0.7503
 9913TIP3   OH251229   4.799   5.487   3.373 -0.0580  0.7044  0.3473
 9913TIP3    H151230   4.783   5.469   3.280  0.1418  2.5925 -0.0863
 9913TIP3    H251231   4.716   5.520   3.406 -0.4432 -0.9463  1.1462
 9914TIP3   OH251232   6.596   5.467  12.485  0.2588  0.3670  0.8928
 9914TIP3    H151233   6.539   5.391  12.478 -1.2493  1.5683 -1.0213
 9914TIP3    H251234   6.536   5.542  12.481  1.7714  1.6704  1.6177
 9915TIP3   OH251235   5.593   1.743  13.350  0.3775  0.3146 -0.2649
 9915TIP3    H151236   5.627   1.832  13.348 -1.6051  1.2264  1.7720
 9915TIP3    H251237   5.504   1.751  13.315  0.7793 -1.2230 -1.7412
 9916TIP3   OH251238   4.588   2.060  15.079 -0.6794  0.6810  0.6185
 9916TIP3    H151239   4.548   1.973  15.070  1.1330 -0.0392 -1.5016
 9916TIP3    H251240   4.591   2.076  15.173  2.2230 -3.2707  1.4652
 9917TIP3   OH251241   1.758   6.026   2.300 -0.0216 -0.1259  0.0628
 9917TIP3    H151242   1.694   5.955   2.292 -0.0415 -0.2260  0.9846
 9917TIP3    H251243   1.831   5.987   2.348 -0.3605  0.6689  1.2520
 9918TIP3   OH251244   4.981   3.624  11.882 -0.1278 -0.2352  0.6524
 9918TIP3    H151245   5.050   3.632  11.816 -1.1447  0.8319 -0.3340
 9918TIP3    H251246   4.970   3.529  11.893 -0.1455 -0.4653 -0.9765
 9919TIP3   OH251247   3.165   1.345   5.739  0.4683 -0.3083  0.5258
 9919TIP3    H151248   3.230   1.308   5.680 -0.9351 -2.2712  0.1148
 9919TIP3    H251249   3.136   1.425   5.696 -0.6715 -1.7939 -1.6326
 9920TIP3   OH251250   3.903   1.622  15.301 -0.4998  0.6452 -0.2236
 9920TIP3    H151251   3.881   1.580  15.217 -1.7376 -1.1161  0.9070
 9920TIP3    H251252   3.893   1.552  15.366  0.6392  1.9063  1.3897
 9921TIP3   OH251253   3.630   0.505   2.649 -0.4224 -0.3414 -0.2302
 9921TIP3    H151254   3.717   0.523   2.683 -0.3466  0.1997 -0.7059
 9921TIP3    H251255   3.612   0.415   2.677  0.2859 -0.4624 -0.1436
 9922TIP3   OH251256   3.806   0.008  11.756 -0.1639  0.3601  0.3811
 9922TIP3    H151257   3.802  -0.048  11.834  0.9799  0.7312  0.7253
 9922TIP3    H251258   3.717   0.007  11.722 -0.7193  0.2972  1.7675
 9923TIP3   OH251259   1.098   3.571   4.904  0.5965  0.5861  0.2562
 9923TIP3    H151260   1.179   3.620   4.885  0.9467 -0.1892 -0.3113
 9923TIP3    H251261   1.093   3.569   4.999  0.4165  1.9669  0.3064
 9924TIP3   OH251262   5.746   2.609   3.050  0.4898  0.1969  0.7504
 9924TIP3    H151263   5.809   2.679   3.032 -1.5323  1.5319 -1.9560
 9924TIP3    H251264   5.785   2.531   3.011  0.2484  1.1944 -1.7057
 9925TIP3   OH251265   4.791   0.437   4.395 -0.8049  0.0598 -0.3246
 9925TIP3    H151266   4.698   0.453   4.382 -0.8340  0.4930  0.3309
 9925TIP3    H251267   4.813   0.490   4.472 -0.0543 -0.1599 -0.3843
 9926TIP3   OH251268   5.137   1.514   5.403  0.3738  0.5050  0.3921
 9926TIP3    H151269   5.090   1.566   5.468 -0.3129 -0.0775  0.3679
 9926TIP3    H251270   5.175   1.579   5.343  0.0034  0.9951  0.6872
 9927TIP3   OH251271   1.045   3.484  12.634  0.6932  0.3425  0.0128
 9927TIP3    H151272   1.111   3.551  12.653  0.2171  0.7350  0.2930
 9927TIP3    H251273   0.963   3.532  12.628  0.2512 -0.2885  0.8143
 9928TIP3   OH251274   3.702   0.763  11.893 -0.3812  0.4899  0.1864
 9928TIP3    H151275   3.724   0.683  11.940 -1.0888 -0.6464 -1.3397
 9928TIP3    H251276   3.765   0.828  11.925 -0.7988 -0.2187  2.6249
 9929TIP3   OH251277   2.577   6.187   5.962 -0.1189  0.0823 -0.2588
 9929TIP3    H151278   2.516   6.258   5.981 -2.1002 -1.7398  0.6290
 9929TIP3    H251279   2.609   6.159   6.047 -0.8570 -1.2962 -0.4019
 9930TIP3   OH251280   1.017   6.735   4.795  0.3511  0.1455  0.4722
 9930TIP3    H151281   1.090   6.683   4.829  0.7931  0.4896  0.0712
 9930TIP3    H251282   1.014   6.714   4.701  0.4453  0.7223  0.3318
 9931TIP3   OH251283   1.168   0.842  11.319  0.2361 -0.4014 -0.3627
 9931TIP3    H151284   1.235   0.851  11.387 -0.7512 -1.8635  0.8852
 9931TIP3    H251285   1.098   0.792  11.361 -1.1047 -0.0167 -2.0067
 9932TIP3   OH251286   1.233   6.710  11.837 -0.0274  0.4167  0.1632
 9932TIP3    H151287   1.306   6.760  11.801  0.0141  0.9831  0.9885
 9932TIP3    H251288   1.235   6.730  11.931  0.7294 -2.0700  0.7406
 9933TIP3   OH251289   3.290   2.650   4.275  0.4555 -0.1322 -0.1514
 9933TIP3    H151290   3.306   2.745   4.280 -0.5902 -0.0028  1.3582
 9933TIP3    H251291   3.315   2.617   4.361  0.6814 -1.2149 -0.6264
 9934TIP3   OH251292   5.444   5.780   1.616 -0.6811 -0.1421 -0.1043
 9934TIP3    H151293   5.494   5.861   1.626  0.7078 -1.0481  0.7177
 9934TIP3    H251294   5.432   5.771   1.522  0.3766  0.3159 -0.2968
 9935TIP3   OH251295   1.273   5.602   5.397  0.4129  0.0070 -0.2927
 9935TIP3    H151296   1.251   5.511   5.380  0.8524  0.3413 -3.1990
 9935TIP3    H251297   1.366   5.602   5.415  0.6244 -0.0605 -1.3129
 9936TIP3   OH251298   0.764   4.298   3.837 -0.0026 -0.2881 -0.4082
 9936TIP3    H151299   0.737   4.378   3.794 -0.9548  0.3356  1.2533
 9936TIP3    H251300   0.855   4.313   3.862 -0.2148  0.3327  0.0027
 9937TIP3   OH251301   3.979   2.231  14.880 -0.1634 -0.0431  0.2105
 9937TIP3    H151302   3.886   2.243  14.898 -0.0274 -0.3285  1.1727
 9937TIP3    H251303   3.983   2.209  14.787 -0.9687  0.8316 -0.0427
 9938TIP3   OH251304   4.853   0.828   2.713  0.3718 -0.3077 -0.9087
 9938TIP3    H151305   4.867   0.754   2.653 -0.0932 -0.5620 -0.7077
 9938TIP3    H251306   4.821   0.899   2.656  0.1477 -0.4799 -1.0024
 9939TIP3   OH251307   2.852   4.411  11.874 -0.3153 -0.1152 -0.0030
 9939TIP3    H151308   2.931   4.393  11.823 -0.7995 -2.7494  0.0556
 9939TIP3    H251309   2.873   4.379  11.962 -1.2702 -0.3811  0.1342
 9940TIP3   OH251310   1.929   2.097   2.262 -0.1309  0.1844 -0.4708
 9940TIP3    H151311   1.943   2.182   2.304  1.6741 -1.0454  1.6170
 9940TIP3    H251312   1.926   2.118   2.168 -0.3494  2.6033 -0.0014
 9941TIP3   OH251313   4.304   6.418   3.970 -0.1595 -0.3300 -0.7191
 9941TIP3    H151314   4.353   6.445   4.048 -2.1218 -0.5825  0.6833
 9941TIP3    H251315   4.279   6.500   3.928  0.8466 -0.1883 -1.0604
 9942TIP3   OH251316   0.530   2.294   0.874 -0.2616  0.1121  0.1052
 9942TIP3    H151317   0.553   2.204   0.852  0.0696  0.2685 -0.2031
 9942TIP3    H251318   0.434   2.295   0.872 -0.2654  0.2503 -1.9652
 9943TIP3   OH251319   3.650   6.586   1.082  0.4460 -0.1299 -0.1923
 9943TIP3    H151320   3.653   6.511   1.023 -0.6570  0.7389 -1.3949
 9943TIP3    H251321   3.565   6.580   1.125  0.9447 -0.3475  0.8077
 9944TIP3   OH251322   2.470   0.239  14.314  0.0566  0.2791  0.1537
 9944TIP3    H151323   2.531   0.312  14.318  0.0237  0.3084  0.1258
 9944TIP3    H251324   2.385   0.279  14.293  0.1064  0.1978 -0.2241
 9945TIP3   OH251325   6.749   2.420  13.336 -0.2549 -0.0514  0.2121
 9945TIP3    H151326   6.707   2.384  13.415 -0.1334  0.3569  0.4681
 9945TIP3    H251327   6.694   2.494  13.311 -1.9953 -1.9348 -1.8392
 9946TIP3   OH251328   1.628   0.009   6.509 -0.0216  0.1452  0.2988
 9946TIP3    H151329   1.544   0.005   6.554  0.6268  0.5370  1.5943
 9946TIP3    H251330   1.624  -0.060   6.443 -1.4935  0.4088  0.0917
 9947TIP3   OH251331   4.570   5.871   5.147  0.8414 -0.3327  0.4139
 9947TIP3    H151332   4.600   5.826   5.068  1.7098 -0.1762  0.6496
 9947TIP3    H251333   4.482   5.836   5.162  0.2231  0.4127 -1.2112
 9948TIP3   OH251334   1.549   6.169   3.103  0.3598  0.1825  0.6983
 9948TIP3    H151335   1.496   6.237   3.061  0.3505  0.1703  0.6903
 9948TIP3    H251336   1.639   6.200   3.097  0.4742 -0.2980 -0.2405
 9949TIP3   OH251337   1.038   3.567  12.942  0.5843 -0.0992  0.2810
 9949TIP3    H151338   1.075   3.615  12.867  1.2578  1.5180  1.5895
 9949TIP3    H251339   0.949   3.600  12.950  0.6297 -0.0081  0.4095
 9950TIP3   OH251340   4.934   4.142   4.805 -0.0076 -0.0254  0.0914
 9950TIP3    H151341   5.011   4.107   4.760  1.2296 -0.2116  2.1938
 9950TIP3    H251342   4.935   4.235   4.785 -0.5030 -0.3470 -1.6065
 9951TIP3   OH251343   1.947   4.431  12.494 -0.4106 -0.7705 -0.1262
 9951TIP3    H151344   1.992   4.417  12.411 -1.0956 -0.8474 -0.4893
 9951TIP3    H251345   1.959   4.524  12.512  0.8686 -1.0084  0.3670
 9952TIP3   OH251346   4.818   6.542   1.666  0.1521  0.5777 -0.2883
 9952TIP3    H151347   4.874   6.465   1.676  2.5229  1.8170 -2.6329
 9952TIP3    H251348   4.815   6.580   1.754  0.0664 -1.3964  0.6303
 9953TIP3   OH251349   6.311   3.771   2.804 -0.0359  0.0786 -0.4738
 9953TIP3    H151350   6.238   3.782   2.743  0.8155  1.0919 -1.3558
 9953TIP3    H251351   6.367   3.847   2.788  1.0290 -0.4844  0.4376
 9954TIP3   OH251352   3.513   5.582   2.702 -0.3404  0.2682 -0.4772
 9954TIP3    H151353   3.456   5.642   2.750 -1.1957 -0.5183 -0.4917
 9954TIP3    H251354   3.592   5.634   2.683  0.4944  0.3150  2.6552
 9955TIP3   OH251355   2.848   2.870  12.166 -0.5071 -0.2912  0.1554
 9955TIP3    H151356   2.871   2.786  12.127  0.3841  0.4325 -0.9471
 9955TIP3    H251357   2.784   2.908  12.105 -1.4202 -0.4491  0.9975
 9956TIP3   OH251358   3.522   4.896   1.190  0.1350 -1.0689  0.5270
 9956TIP3    H151359   3.548   4.807   1.212  1.8394 -1.6304 -3.1624
 9956TIP3    H251360   3.452   4.885   1.125  0.7380  0.2404 -0.3777
 9957TIP3   OH251361   0.421   2.814   2.483 -0.0905  0.8439  0.2135
 9957TIP3    H151362   0.362   2.749   2.522 -0.2200  0.7494 -0.1437
 9957TIP3    H251363   0.464   2.768   2.411 -0.7330  1.3774 -0.5139
 9958TIP3   OH251364   2.205   1.858   2.006 -0.0476 -0.4575 -0.1058
 9958TIP3    H151365   2.211   1.952   1.989  4.3901 -0.3978  0.4487
 9958TIP3    H251366   2.228   1.816   1.923  0.6140 -0.9260  0.3002
 9959TIP3   OH251367   0.093   2.837   6.351  0.4015 -0.6790 -0.2577
 9959TIP3    H151368   0.016   2.893   6.337  0.8199  0.0846  0.4080
 9959TIP3    H251369   0.056   2.754   6.383 -0.1274 -0.1386  0.5840
 9960TIP3   OH251370   4.352   5.447   3.753 -0.0180 -0.6286  0.2202
 9960TIP3    H151371   4.364   5.534   3.713 -0.3592 -1.6715 -2.3762
 9960TIP3    H251372   4.357   5.463   3.847  0.1499  2.1682 -0.1672
 9961TIP3   OH251373   5.022   4.826   2.823 -0.2168 -0.0055  0.4862
 9961TIP3    H151374   5.015   4.732   2.810 -2.1301 -0.3511  3.1986
 9961TIP3    H251375   4.980   4.842   2.907 -0.4136  3.3577 -0.1076
 9962TIP3   OH251376   1.569   3.212  16.406 -0.3125 -0.3318 -0.0759
 9962TIP3    H151377   1.551   3.274  16.477 -2.3994  3.3012 -3.3625
 9962TIP3    H251378   1.484   3.198  16.364  1.0668 -0.8028 -2.9158
 9963TIP3   OH251379   5.691   4.163   2.880  0.3587 -0.2522 -0.2967
 9963TIP3    H151380   5.645   4.214   2.946  0.9453  1.2277 -0.9839
 9963TIP3    H251381   5.646   4.079   2.879  0.3769 -0.3572  2.0161
 9964TIP3   OH251382   1.971   6.602  15.518 -0.4355  0.5594 -0.2852
 9964TIP3    H151383   1.999   6.540  15.451 -1.1343 -0.3651  0.2591
 9964TIP3    H251384   1.877   6.591  15.525 -0.3947  0.7088  0.7669
 9965TIP3   OH251385   4.125   0.785   0.922  0.3951 -0.2781  0.2729
 9965TIP3    H151386   4.086   0.734   0.851  0.0012  1.2066 -0.6192
 9965TIP3    H251387   4.052   0.835   0.958  0.8198 -0.1297  0.9418
 9966TIP3   OH251388   2.257   5.861  15.765 -0.2763  0.1743  0.1720
 9966TIP3    H151389   2.291   5.787  15.815 -0.8390  1.3978  2.5155
 9966TIP3    H251390   2.215   5.822  15.689 -0.9593 -1.9616  1.5602
 9967TIP3   OH251391   4.081   4.147  10.752 -0.0009 -0.1299  0.1516
 9967TIP3    H151392   4.172   4.167  10.775  0.5990  0.4061 -2.3294
 9967TIP3    H251393   4.029   4.192  10.818  1.5198  0.3123  1.1041
 9968TIP3   OH251394   0.943   2.040   6.836 -0.4640 -0.6589 -0.4360
 9968TIP3    H151395   0.932   2.106   6.904  0.3793 -1.9330  1.0072
 9968TIP3    H251396   0.854   2.017   6.810 -0.8150  2.4673 -2.5123
 9969TIP3   OH251397   4.558   6.356   1.569  0.1976  0.0999  0.2350
 9969TIP3    H151398   4.575   6.288   1.634 -0.8594  0.0400  0.4694
 9969TIP3    H251399   4.643   6.399   1.557  0.2416  0.7917  2.4422
 9970TIP3   OH251400   4.255   2.288  17.141  0.3226  0.0263 -0.0044
 9970TIP3    H151401   4.303   2.219  17.187 -0.5834 -0.5235  0.1431
 9970TIP3    H251402   4.249   2.359  17.205  1.2279  0.2335 -0.1454
 9971TIP3   OH251403   2.447   4.491   5.209 -0.4991 -0.1956  0.7523
 9971TIP3    H151404   2.453   4.473   5.115 -1.5491 -0.0624  0.6545
 9971TIP3    H251405   2.417   4.582   5.215  0.7345  0.2099  1.2384
 9972TIP3   OH251406   6.664   2.790   1.726 -0.0306  0.6691 -0.0338
 9972TIP3    H151407   6.575   2.823   1.741 -0.2711  0.2557 -0.5251
 9972TIP3    H251408   6.721   2.858   1.762 -0.5026  1.9412 -1.5887
 9973TIP3   OH251409   5.547   0.146   4.874 -0.2277 -0.0213  0.2804
 9973TIP3    H151410   5.531   0.079   4.940 -0.0947 -0.2000  0.1354
 9973TIP3    H251411   5.481   0.130   4.807  0.1832 -0.3888 -0.0397
 9974TIP3   OH251412   4.760   6.398   4.966  0.2912  0.1423  0.5026
 9974TIP3    H151413   4.821   6.465   5.000 -1.1082  1.0433  1.3373
 9974TIP3    H251414   4.747   6.338   5.039  1.5878 -1.1443 -0.2647
 9975TIP3   OH251415   5.456   2.754   2.214 -0.1004  0.5171  0.2074
 9975TIP3    H151416   5.461   2.672   2.165 -0.3052 -0.3332  1.5542
 9975TIP3    H251417   5.506   2.738   2.294  1.0531  2.1890 -0.1106
 9976TIP3   OH251418   5.481   1.777   5.303 -0.0587 -0.4123 -0.0114
 9976TIP3    H151419   5.502   1.866   5.331 -1.0679 -0.0949 -0.2371
 9976TIP3    H251420   5.550   1.755   5.240 -0.4911  0.6941 -0.9079
 9977TIP3   OH251421   0.838   3.920  14.480 -0.8752  0.1296 -0.4407
 9977TIP3    H151422   0.877   3.960  14.402 -1.4101  1.1689 -0.1972
 9977TIP3    H251423   0.813   3.832  14.451  0.7917 -0.2484 -0.8493
 9978TIP3   OH251424   1.633   5.442   5.698 -0.0071  0.1208  0.3564
 9978TIP3    H151425   1.580   5.380   5.748  0.2897  1.7699  2.9111
 9978TIP3    H251426   1.722   5.408   5.703 -0.2580 -0.7736 -0.8558
 9979TIP3   OH251427   3.174   3.379   6.410  0.1555 -0.1789 -0.4304
 9979TIP3    H151428   3.260   3.375   6.452  0.2540  1.0865 -0.4782
 9979TIP3    H251429   3.179   3.313   6.340  0.3346 -1.6018  0.8616
 9980TIP3   OH251430   6.293   2.944  15.086  0.2669 -0.4039 -0.2864
 9980TIP3    H151431   6.244   2.977  15.161  1.1692 -1.4579  0.8130
 9980TIP3    H251432   6.230   2.944  15.014 -0.1925  2.1315  0.0244
 9981TIP3   OH251433   1.048   6.190   2.449  0.2113 -0.1125  0.2430
 9981TIP3    H151434   1.077   6.122   2.387  0.4084 -0.5571  0.8154
 9981TIP3    H251435   1.095   6.268   2.421 -0.5191 -0.0318 -0.8363
 9982TIP3   OH251436   0.995   6.034  12.617  1.0519 -0.5703 -0.3243
 9982TIP3    H151437   1.065   6.097  12.601  0.9992 -0.4362 -0.0328
 9982TIP3    H251438   1.024   5.953  12.575  1.2842 -0.4530 -0.3862
 9983TIP3   OH251439   1.439   4.565   3.524 -0.0511  0.4831  0.0580
 9983TIP3    H151440   1.452   4.508   3.449  2.0257  1.2785 -0.2490
 9983TIP3    H251441   1.513   4.546   3.582  0.3928  2.3955  0.2030
 9984TIP3   OH251442   4.651   4.548   4.423 -0.7406  0.0378 -0.0168
 9984TIP3    H151443   4.591   4.623   4.424 -2.2822 -1.1386 -0.2957
 9984TIP3    H251444   4.711   4.564   4.496 -2.4699  0.4543  1.3959
 9985TIP3   OH251445   0.295   3.331  12.764 -0.1229 -0.1715  0.6086
 9985TIP3    H151446   0.244   3.257  12.731  0.0146  1.5806 -4.2320
 9985TIP3    H251447   0.230   3.388  12.806 -1.4180 -0.1485 -1.3295
 9986TIP3   OH251448   1.551   3.825   4.359 -0.3831  0.0498 -0.0906
 9986TIP3    H151449   1.640   3.848   4.386 -0.1638  0.4257 -1.0821
 9986TIP3    H251450   1.497   3.844   4.436  0.4631 -0.7716  0.7341
 9987TIP3   OH251451   4.310   5.587   5.710  0.4613 -0.0155  0.2556
 9987TIP3    H151452   4.341   5.616   5.795 -1.7214  0.3926  0.9729
 9987TIP3    H251453   4.219   5.618   5.705  0.2598 -0.7469 -1.8724
 9988TIP3   OH251454   3.546   3.169  15.856 -0.6328  0.2114 -0.5518
 9988TIP3    H151455   3.498   3.193  15.935 -0.1426  0.9315 -0.4574
 9988TIP3    H251456   3.489   3.108  15.810  0.5700 -3.2602  2.1559
 9989TIP3   OH251457   5.181   0.490  11.263  0.0137 -0.5067  0.7975
 9989TIP3    H151458   5.160   0.473  11.172 -1.8999 -0.6565  1.2333
 9989TIP3    H251459   5.275   0.470  11.270 -0.1855 -2.2029 -0.7297
 9990TIP3   OH251460   3.477   2.034   4.000 -0.3832 -0.1933  0.1776
 9990TIP3    H151461   3.511   2.123   4.009 -0.6962  0.0901 -1.1795
 9990TIP3    H251462   3.532   1.994   3.932 -1.4094 -0.4196 -0.5364
 9991TIP3   OH251463   5.706   3.928   3.522 -0.1146 -0.0834 -0.5933
 9991TIP3    H151464   5.628   3.901   3.474  0.2196 -0.2771 -1.0329
 9991TIP3    H251465   5.746   3.996   3.467 -0.7937  1.1296  0.3595
 9992TIP3   OH251466   4.947   0.856  11.390  0.6263 -0.0586  0.0415
 9992TIP3    H151467   4.965   0.833  11.481  1.1909 -2.0805 -0.5342
 9992TIP3    H251468   4.863   0.902  11.393  1.5160  1.5561  1.7639
 9993TIP3   OH251469   3.227   3.335  15.167  0.1200 -0.1178  0.2871
 9993TIP3    H151470   3.141   3.376  15.154 -0.3041 -1.2896 -0.8292
 9993TIP3    H251471   3.284   3.382  15.106  0.1733  0.3632  0.7037
 9994TIP3   OH251472   0.443   1.641  12.330 -0.0409 -0.1272  0.2619
 9994TIP3    H151473   0.490   1.575  12.279  0.8333  0.3324  0.4443
 9994TIP3    H251474   0.432   1.602  12.417 -0.3868 -0.4050  0.0953
 9995TIP3   OH251475   6.638   3.607  16.926 -0.0519 -0.0799  0.0836
 9995TIP3    H151476   6.560   3.585  16.978 -1.3082 -0.5503 -1.8694
 9995TIP3    H251477   6.645   3.536  16.863  1.4181  0.4502 -0.3751
 9996TIP3   OH251478   6.713   1.659   5.995  0.0257 -0.2200 -0.5263
 9996TIP3    H151479   6.764   1.622   6.068 -0.7315  1.2001  0.7644
 9996TIP3    H251480   6.663   1.585   5.962 -0.9836 -0.5736  1.5920
 9997TIP3   OH251481   6.189   6.715   3.213 -0.5143  0.5114 -0.8165
 9997TIP3    H151482   6.117   6.652   3.209  0.9785 -1.1980 -2.4950
 9997TIP3    H251483   6.171   6.775   3.140 -0.5005  0.4113 -0.9015
 9998TIP3   OH251484   0.917   2.491   1.607  0.2667  0.2257  0.3831
 9998TIP3    H151485   0.939   2.575   1.648  1.4060  0.3740 -0.4749
 9998TIP3    H251486   0.822   2.490   1.603  0.2582  2.2687 -1.1437
 9999TIP3   OH251487   2.004   0.914   5.381  0.2477  0.0961 -0.1987
 9999TIP3    H151488   2.026   0.996   5.336 -0.0298  0.5281  0.4525
 9999TIP3    H251489   1.985   0.939   5.471 -2.2215 -0.3403 -0.5275
10000TIP3   OH251490   4.965   6.576  13.362  0.2121 -0.3688  0.1918
10000TIP3    H151491   5.031   6.533  13.417  0.0382 -0.6351  0.1940
10000TIP3    H251492   5.015   6.623  13.296  0.4452  0.3159  0.8410
10001TIP3   OH251493   3.374   0.213   2.079 -0.2227  1.0278  0.2884
10001TIP3    H151494   3.377   0.162   1.997  0.2303  0.9901  0.3294
10001TIP3    H251495   3.414   0.156   2.144 -1.2499  0.7635  0.7014
10002TIP3   OH251496   5.280   0.775  11.836 -0.0899 -0.2263  0.1646
10002TIP3    H151497   5.298   0.693  11.881 -0.3259 -0.7611 -0.6979
10002TIP3    H251498   5.363   0.823  11.840  0.4402 -1.0809 -0.5028
10003TIP3   OH251499   4.952   4.627   1.623 -0.1046 -0.8399  0.5051
10003TIP3    H151500   5.022   4.603   1.684  0.0433 -0.0113  0.6623
10003TIP3    H251501   4.872   4.627   1.676 -0.2845 -2.0607  0.2673
10004TIP3   OH251502   6.232   4.167  12.079  0.3309  0.7769  0.2996
10004TIP3    H151503   6.159   4.131  12.029  1.3070 -0.5249 -0.2597
10004TIP3    H251504   6.240   4.257  12.049 -0.1062  0.4901 -0.7119
10005TIP3   OH251505   5.471   2.521   2.773  0.0923  0.0588 -0.0155
10005TIP3    H151506   5.379   2.540   2.794 -0.0701  0.2753 -0.8711
10005TIP3    H251507   5.474   2.426   2.765  0.7083 -0.3302  3.3736
10006TIP3   OH251508   1.914   5.831  16.070  0.5118 -0.2999 -0.1653
10006TIP3    H151509   1.908   5.860  16.161 -0.9797 -2.8668  0.6456
10006TIP3    H251510   1.998   5.786  16.064  0.8583  0.3479 -0.2273
10007TIP3   OH251511   2.955   1.015   4.268  0.0786  0.1996 -0.2821
10007TIP3    H151512   2.864   0.995   4.290  0.2039  0.5631  0.5995
10007TIP3    H251513   3.001   1.012   4.351  1.3581 -2.3205 -0.9698
10008TIP3   OH251514   4.622   5.168   0.142  0.4778 -0.3526  0.3014
10008TIP3    H151515   4.589   5.239   0.088  2.6026 -0.7912 -1.7352
10008TIP3    H251516   4.548   5.109   0.153 -0.2308  0.1103 -1.5947
10009TIP3   OH251517   5.856   0.459   5.047 -0.0418 -0.3250 -0.3852
10009TIP3    H151518   5.851   0.417   4.961 -0.6995 -0.5029 -0.2668
10009TIP3    H251519   5.793   0.412   5.101 -0.3780  0.4416 -0.0862
10010TIP3   OH251520   6.664   2.310  10.872  0.6353 -0.0027  0.1066
10010TIP3    H151521   6.686   2.379  10.810 -0.6123 -0.8827 -1.3944
10010TIP3    H251522   6.746   2.288  10.915  1.3641  1.2460 -0.6091
10011TIP3   OH251523   6.384   3.938   2.446  0.0885 -0.5291  0.3151
10011TIP3    H151524   6.388   3.985   2.363 -0.4376 -1.3024 -0.1622
10011TIP3    H251525   6.390   3.845   2.422 -1.2965 -0.8381  1.0248
10012TIP3   OH251526   4.506   1.240   0.518 -0.3760  0.2134 -0.7556
10012TIP3    H151527   4.415   1.235   0.491 -0.3381  0.2849 -0.8971
10012TIP3    H251528   4.538   1.150   0.512 -1.0681 -0.2302  1.5170
10013TIP3   OH251529   5.459   0.642  13.331 -0.3125  0.3272 -0.3174
10013TIP3    H151530   5.367   0.659  13.354 -0.1529  1.5241 -0.4963
10013TIP3    H251531   5.494   0.728  13.309  0.8101 -0.1499 -0.4401
10014TIP3   OH251532   5.027   3.625  13.967  0.0312  0.3177 -0.0322
10014TIP3    H151533   5.093   3.568  14.006  0.3699  1.5635  1.2885
10014TIP3    H251534   4.997   3.680  14.038 -2.0628  0.1867 -0.7267
10015TIP3   OH251535   0.859   1.881  13.520 -0.4276 -0.1962  0.1731
10015TIP3    H151536   0.825   1.965  13.489  0.3579  0.0194 -0.1064
10015TIP3    H251537   0.880   1.896  13.612  0.0110  0.0103  0.0419
10016TIP3   OH251538   4.360   6.319  13.489  0.5054 -0.1929  0.1683
10016TIP3    H151539   4.410   6.382  13.438  0.7602 -0.8939 -0.4758
10016TIP3    H251540   4.407   6.236  13.477 -1.1413 -1.0238 -0.9844
10017TIP3   OH251541   5.989   5.269   0.011  0.3186  0.0387 -0.7921
10017TIP3    H151542   6.040   5.221   0.076 -0.3076 -0.4624 -0.6642
10017TIP3    H251543   5.903   5.227   0.012  0.6406 -0.8374 -2.8311
10018TIP3   OH251544   3.406   2.455   0.867 -0.0780 -0.4000 -0.6666
10018TIP3    H151545   3.404   2.544   0.830  0.5238 -0.0248  0.1655
10018TIP3    H251546   3.351   2.404   0.808 -0.3891  0.5115 -1.1996
10019TIP3   OH251547   1.241   4.387  16.691  0.7284  0.0137  0.2234
10019TIP3    H151548   1.209   4.406  16.779  0.5427 -3.1972  0.9828
10019TIP3    H251549   1.177   4.326  16.654  2.2998 -1.0066 -0.9791
10020TIP3   OH251550   2.991   3.530   4.511  0.1546  0.1252  0.5541
10020TIP3    H151551   2.911   3.582   4.509  0.7954  1.1430  0.2449
10020TIP3    H251552   2.962   3.441   4.529 -1.3042 -0.0159 -1.9601
10021TIP3   OH251553   1.726   3.293  11.817  0.4468 -0.2717  0.2023
10021TIP3    H151554   1.654   3.339  11.774 -0.5987 -0.8818  1.2391
10021TIP3    H251555   1.804   3.316  11.765 -0.4264  0.6768 -0.7358
10022TIP3   OH251556   4.001   5.121  11.979 -0.4372  0.3545 -0.2930
10022TIP3    H151557   3.912   5.146  12.005 -1.0802 -1.5582 -0.4606
10022TIP3    H251558   3.988   5.071  11.898  0.9190  0.9375 -0.8889
10023TIP3   OH251559   1.871   6.196  16.541 -0.4064 -0.1730 -0.6835
10023TIP3    H151560   1.879   6.144  16.621  0.9700 -1.1323 -1.3987
10023TIP3    H251561   1.815   6.269  16.565  2.2797  1.2020  2.0448
10024TIP3   OH251562   2.049   2.137  15.960  1.0425 -0.3691  0.5090
10024TIP3    H151563   2.058   2.104  15.870  1.9533  0.3517  0.3294
10024TIP3    H251564   1.954   2.141  15.974  0.8463  0.8168 -0.9163
10025TIP3   OH251565   2.921   4.654   5.850 -0.4589  0.1746 -0.2472
10025TIP3    H151566   2.848   4.677   5.908 -0.4828  0.9690 -0.5879
10025TIP3    H251567   2.998   4.655   5.907 -0.3653  1.7325 -0.3689
10026TIP3   OH251568   0.972   0.077   6.236 -0.6025 -0.1227 -0.2165
10026TIP3    H151569   0.987   0.166   6.205  0.8308 -0.1256  0.4183
10026TIP3    H251570   1.025   0.070   6.315  0.0304 -1.8234 -0.7603
10027TIP3   OH251571   2.022   0.981   2.457 -0.2878  0.4694 -0.1491
10027TIP3    H151572   2.077   1.046   2.413  1.5423 -1.1414 -0.3682
10027TIP3    H251573   2.012   0.911   2.393 -0.5283 -0.3666  0.7791
10028TIP3   OH251574   0.729   3.116   1.477  0.9407  0.5806 -1.3762
10028TIP3    H151575   0.780   3.115   1.558 -0.1960  0.3205 -0.6375
10028TIP3    H251576   0.716   3.023   1.456 -0.7675  0.5958 -0.5278
10029TIP3   OH251577   1.572   1.716  16.390 -0.0858 -0.4022 -0.1738
10029TIP3    H151578   1.596   1.624  16.395 -1.1372 -0.6394  0.8985
10029TIP3    H251579   1.635   1.761  16.446 -0.5939 -0.7032  0.6602
10030TIP3   OH251580   5.006   1.997   5.561 -0.2504  0.1336 -0.1844
10030TIP3    H151581   5.047   1.912   5.542  0.3064 -0.3643  2.8011
10030TIP3    H251582   5.000   2.040   5.475  0.0735 -2.6108 -1.6966
10031TIP3   OH251583   1.022   6.374  12.159  0.4817 -0.5216 -0.2253
10031TIP3    H151584   1.003   6.294  12.208 -1.0110 -0.5413 -0.7905
10031TIP3    H251585   0.990   6.445  12.214 -3.0638 -0.6386 -1.8600
10032TIP3   OH251586   4.013   1.738   4.508  0.2646  0.5636 -0.2408
10032TIP3    H151587   4.107   1.756   4.510  0.4209  0.2308 -2.3167
10032TIP3    H251588   3.976   1.809   4.456 -0.0512 -1.2795 -2.6860
10033TIP3   OH251589   4.659   4.436  12.240  0.0304 -0.3865 -0.0661
10033TIP3    H151590   4.614   4.518  12.260  1.1296 -0.0105  0.9389
10033TIP3    H251591   4.664   4.434  12.144  2.4744  2.1557 -0.1140
10034TIP3   OH251592   3.229   5.835   4.634  0.2735  0.3906  0.1174
10034TIP3    H151593   3.188   5.749   4.649 -1.7659  1.6842  3.2283
10034TIP3    H251594   3.313   5.830   4.679 -0.4133  0.3261  1.4706
10035TIP3   OH251595   2.006   2.842   0.098  1.2955  0.0783  0.2585
10035TIP3    H151596   1.962   2.850   0.013 -0.1267 -1.2989  0.8147
10035TIP3    H251597   1.959   2.771   0.143  2.2176  0.5522  2.0739
10036TIP3   OH251598   1.268   4.238  12.747  0.7914  0.0297  0.2835
10036TIP3    H151599   1.286   4.298  12.674  0.6308 -0.0009  0.2183
10036TIP3    H251600   1.352   4.195  12.764  0.5874 -0.7442 -0.5865
10037TIP3   OH251601   5.135   6.135  14.736 -0.4889 -0.0980  0.3268
10037TIP3    H151602   5.228   6.120  14.717 -0.7122 -0.8251 -0.2145
10037TIP3    H251603   5.115   6.074  14.808 -0.6463 -0.2214  0.1781
10038TIP3   OH251604   0.442   3.362   3.090 -0.1149 -0.1231  0.0883
10038TIP3    H151605   0.480   3.425   3.151  1.3563 -1.5941  0.7540
10038TIP3    H251606   0.372   3.320   3.139 -0.3755  0.2278  0.0169
10039TIP3   OH251607   1.470   4.074   3.806  0.1733  0.2981 -1.1056
10039TIP3    H151608   1.483   4.046   3.716  1.7483 -0.7298 -0.6185
10039TIP3    H251609   1.376   4.089   3.814 -0.4932 -2.6579 -2.0958
10040TIP3   OH251610   3.759   2.959   6.324  0.0599 -0.0658 -0.3950
10040TIP3    H151611   3.680   2.970   6.271  0.7768 -1.1113 -1.7656
10040TIP3    H251612   3.825   3.014   6.282 -0.1066  1.4315  1.2118
10041TIP3   OH251613   0.107   2.796  11.392 -0.1773  0.0265  0.0517
10041TIP3    H151614   0.131   2.830  11.478 -0.1246  0.5888 -0.1770
10041TIP3    H251615   0.110   2.873  11.335 -1.8225 -0.0216 -0.1287
10042TIP3   OH251616   5.926   5.594   0.638  0.4798  0.0297 -0.0241
10042TIP3    H151617   5.957   5.558   0.721  2.1561  1.4998  0.0539
10042TIP3    H251618   5.997   5.578   0.576  0.4592  1.4570 -0.4540
10043TIP3   OH251619   5.831   4.102   0.407 -0.1455  0.4049 -0.2845
10043TIP3    H151620   5.882   4.165   0.355  1.5580  0.6860  1.5966
10043TIP3    H251621   5.777   4.156   0.463  0.9803  0.2422  1.0097
10044TIP3   OH251622   3.411   3.724  12.401  0.5642 -0.1975  0.2559
10044TIP3    H151623   3.329   3.696  12.441  0.2728 -0.2267 -0.3500
10044TIP3    H251624   3.385   3.790  12.337  0.6901 -2.0773 -1.8517
10045TIP3   OH251625   2.600   2.075  13.280 -0.2805 -0.3019 -0.4649
10045TIP3    H151626   2.543   2.146  13.308 -0.9711 -0.8429 -0.4719
10045TIP3    H251627   2.554   2.035  13.206  1.0191  0.4541 -1.7275
10046TIP3   OH251628   0.226   6.493  12.940  0.1454 -0.8141 -0.2960
10046TIP3    H151629   0.231   6.499  13.035  1.3457  3.0189 -0.4317
10046TIP3    H251630   0.310   6.454  12.914 -1.0552 -4.0370  0.1312
10047TIP3   OH251631   1.891   1.939  12.399 -0.0547 -0.1127 -0.0323
10047TIP3    H151632   1.798   1.960  12.395 -0.0922 -0.1809  0.4189
10047TIP3    H251633   1.935   2.024  12.394 -0.1490 -0.0599  0.0329
10048TIP3   OH251634   6.254   4.843  13.654  0.2031  0.0639  0.1658
10048TIP3    H151635   6.249   4.930  13.616 -0.2077 -0.0519 -0.0490
10048TIP3    H251636   6.325   4.849  13.717 -1.6552  1.3874  2.2892
10049TIP3   OH251637   2.504   0.568   3.966 -0.4718 -0.3517  0.3571
10049TIP3    H151638   2.541   0.634   3.908 -0.1773 -1.4798 -0.7918
10049TIP3    H251639   2.552   0.577   4.047  0.5365 -0.0760 -0.2575
10050TIP3   OH251640   3.156   6.490  15.946  0.0214 -0.0229  0.1149
10050TIP3    H151641   3.107   6.438  16.010 -1.2061  1.7395  0.6964
10050TIP3    H251642   3.209   6.426  15.899  0.1816 -1.5267  2.1686
10051TIP3   OH251643   2.115   0.565   0.684 -0.0091 -0.2341 -0.8033
10051TIP3    H151644   2.070   0.530   0.761  0.4138 -1.9925 -1.2987
10051TIP3    H251645   2.065   0.643   0.660 -0.4598  0.0521  0.9224
10052TIP3   OH251646   1.273   2.545   3.753  0.1339 -0.0904  0.1483
10052TIP3    H151647   1.205   2.588   3.805  0.2419  0.1221  0.1150
10052TIP3    H251648   1.342   2.525   3.817 -0.2934 -1.0258  0.3327
10053TIP3   OH251649   1.797   5.523  15.338 -0.6346  0.2159 -0.3597
10053TIP3    H151650   1.736   5.451  15.353 -0.7324  0.5820  1.0819
10053TIP3    H251651   1.757   5.573  15.267 -1.8258  0.2356  0.3028
10054TIP3   OH251652   5.946   5.638  16.380  0.0775 -0.1130 -0.4446
10054TIP3    H151653   6.022   5.696  16.384  1.4066 -1.7709 -0.6902
10054TIP3    H251654   5.962   5.583  16.303 -0.7097 -1.3797  0.2785
10055TIP3   OH251655   1.815   3.282  16.316 -0.3632 -0.2399 -0.2693
10055TIP3    H151656   1.738   3.246  16.358  0.3124 -0.1590  1.1229
10055TIP3    H251657   1.782   3.352  16.260 -1.2097  0.7156  1.3554
10056TIP3   OH251658   4.175   3.973  14.696  0.7352  0.4051 -0.2897
10056TIP3    H151659   4.120   3.983  14.773  1.1036  2.4218 -0.2442
10056TIP3    H251660   4.265   3.982  14.729  1.0476 -1.0069 -0.6429
10057TIP3   OH251661   1.637   5.356  11.428  0.8683 -0.0846  0.0762
10057TIP3    H151662   1.637   5.371  11.333  0.9649 -0.2151  0.0552
10057TIP3    H251663   1.727   5.374  11.455  0.8870 -0.2386  0.1130
10058TIP3   OH251664   0.175   0.655  12.843 -0.3186  0.2740 -0.5276
10058TIP3    H151665   0.229   0.577  12.831  0.0349  0.7508 -2.2237
10058TIP3    H251666   0.121   0.635  12.919 -0.2393 -1.6261 -0.9322
10059TIP3   OH251667   6.697   3.200   0.009 -0.3954  0.0924 -0.2016
10059TIP3    H151668   6.652   3.128   0.052 -0.0395  0.0993  0.1883
10059TIP3    H251669   6.677   3.189  -0.084  0.6743 -1.2422 -0.3085
10060TIP3   OH251670   2.731   4.114  12.278  0.2479 -0.6249  0.0027
10060TIP3    H151671   2.765   4.091  12.365 -0.5250 -0.0926  0.4570
10060TIP3    H251672   2.663   4.049  12.261  0.0590 -0.4321  0.0149
10061TIP3   OH251673   6.475   3.508  16.095  0.5889  0.0575 -0.0914
10061TIP3    H151674   6.493   3.443  16.027 -2.7166 -0.9795 -0.1732
10061TIP3    H251675   6.465   3.457  16.175 -1.3603  0.4604 -0.0204
10062TIP3   OH251676   3.293   3.910  15.765  0.0789  0.0192 -0.7879
10062TIP3    H151677   3.279   3.959  15.846  1.5973  0.6946 -0.9117
10062TIP3    H251678   3.380   3.937  15.735  1.0464 -2.7932 -0.8211
10063TIP3   OH251679   1.833   5.021  12.532  0.2441  0.0756  0.1055
10063TIP3    H151680   1.752   4.972  12.521  0.6698 -0.6014 -0.0564
10063TIP3    H251681   1.899   4.971  12.483  1.0980 -0.2365  1.5176
10064TIP3   OH251682   4.600   4.816  15.666 -0.1803 -0.6767  0.0179
10064TIP3    H151683   4.504   4.809  15.662 -0.3591  0.8042  1.0376
10064TIP3    H251684   4.619   4.839  15.756  1.0187  0.5526 -0.5112
10065TIP3   OH251685   2.802   4.322   0.786 -0.3971  0.1053  0.1798
10065TIP3    H151686   2.825   4.230   0.802 -2.1215 -0.6142 -1.1994
10065TIP3    H251687   2.742   4.345   0.857 -1.5090 -0.4821 -0.5424
10066TIP3   OH251688   2.826   4.186   4.273 -0.2616  0.2648  0.4712
10066TIP3    H151689   2.895   4.227   4.220  0.8246 -1.0721  0.7962
10066TIP3    H251690   2.789   4.119   4.216  0.3019 -0.5770  1.0865
10067TIP3   OH251691   2.180   2.268  12.590  0.3691 -0.5293  0.2556
10067TIP3    H151692   2.192   2.228  12.676  0.4713 -1.6916 -0.2870
10067TIP3    H251693   2.219   2.206  12.528 -0.4475 -0.1137 -0.7147
10068TIP3   OH251694   2.841   2.638   5.807  0.1376 -0.2104 -0.3665
10068TIP3    H151695   2.869   2.725   5.780  0.3692  0.2579  1.2757
10068TIP3    H251696   2.847   2.640   5.903 -1.5256 -1.4524 -0.2017
10069TIP3   OH251697   1.362   0.695  15.609  0.1838  0.2069  0.0309
10069TIP3    H151698   1.429   0.725  15.671 -0.3681  0.5873  0.4577
10069TIP3    H251699   1.392   0.608  15.582  0.9087  0.4177  0.1223
10070TIP3   OH251700   1.605   6.617   6.316 -0.2170 -0.4925  0.3313
10070TIP3    H151701   1.599   6.616   6.220 -0.6708  0.4658  0.3449
10070TIP3    H251702   1.522   6.580   6.345 -0.9830  1.1769  0.3642
10071TIP3   OH251703   1.767   0.875  12.868  0.6313  0.0731 -0.4082
10071TIP3    H151704   1.817   0.796  12.847 -1.0042 -0.9175 -0.7594
10071TIP3    H251705   1.760   0.875  12.963 -0.3052 -0.8633 -0.4521
10072TIP3   OH251706   0.368   1.915   2.425 -0.4003  0.2653 -0.1082
10072TIP3    H151707   0.343   1.947   2.339 -1.2161 -1.2823 -0.4814
10072TIP3    H251708   0.423   1.838   2.407  0.4254  0.6363  0.7520
10073TIP3   OH251709   1.408   2.987   5.927 -0.2843  0.1399  0.4012
10073TIP3    H151710   1.483   3.031   5.967 -0.2961  2.3346 -1.7491
10073TIP3    H251711   1.368   2.939   5.999  2.4008 -0.0650  1.9103
10074TIP3   OH251712   3.449   3.571   3.286 -0.6110 -0.2760  0.2143
10074TIP3    H151713   3.431   3.591   3.194 -1.5333  1.5173  0.7354
10074TIP3    H251714   3.431   3.477   3.295  1.9798 -1.1075 -1.9667
10075TIP3   OH251715   4.207   0.715   1.187  0.4154  0.2226 -0.2619
10075TIP3    H151716   4.230   0.808   1.191  1.0789  0.0816 -0.6254
10075TIP3    H251717   4.194   0.698   1.094  1.7174 -0.3664 -0.3634
10076TIP3   OH251718   3.899   1.708   0.799 -0.2135 -0.0199 -0.3641
10076TIP3    H151719   3.938   1.650   0.734  1.2317 -0.4430  0.8055
10076TIP3    H251720   3.853   1.775   0.748 -0.3316 -1.1288 -1.7626
10077TIP3   OH251721   3.793   5.525   5.388 -0.5038 -0.7306  0.1067
10077TIP3    H151722   3.752   5.549   5.305 -0.5378  0.3770  0.4237
10077TIP3    H251723   3.855   5.596   5.406 -1.0141 -0.5618  1.3676
10078TIP3   OH251724   3.293   4.973   1.839  0.3196 -0.1508 -0.0398
10078TIP3    H151725   3.199   4.962   1.849 -0.1201  2.1449 -0.9784
10078TIP3    H251726   3.330   4.889   1.866 -1.9858 -1.1848  0.1488
10079TIP3   OH251727   6.181   3.481  11.438 -0.2577 -0.2722  0.7508
10079TIP3    H151728   6.196   3.438  11.522 -1.5790 -1.8693  0.2305
10079TIP3    H251729   6.207   3.572  11.453 -0.7685 -0.4254  2.9921
10080TIP3   OH251730   5.961   5.732  16.813  0.5035  0.1029 -0.4984
10080TIP3    H151731   5.974   5.660  16.751 -0.1385 -0.2015 -0.2893
10080TIP3    H251732   5.876   5.768  16.789  0.2764  0.0203  0.1616
10081TIP3   OH251733   0.608   3.345   1.619 -0.1202  0.5865 -0.2382
10081TIP3    H151734   0.671   3.331   1.690 -0.9100  0.1242  0.3833
10081TIP3    H251735   0.635   3.285   1.550 -1.3437 -1.4940  0.9994
10082TIP3   OH251736   2.865   4.951   4.536 -0.4263 -0.0266 -0.3483
10082TIP3    H151737   2.866   4.898   4.616 -0.6770  2.1408  1.1784
10082TIP3    H251738   2.950   4.996   4.537 -1.4555  2.0056  0.1629
10083TIP3   OH251739   0.757   2.269  13.349  0.0479  0.4328 -0.2330
10083TIP3    H151740   0.692   2.305  13.288 -0.2589 -1.9298 -1.4312
10083TIP3    H251741   0.825   2.233  13.293 -0.8919 -3.0416  0.6014
10084TIP3   OH251742   2.192   3.351   1.604 -0.9191  0.0914 -0.2234
10084TIP3    H151743   2.142   3.417   1.557 -0.0285  1.7137  1.0348
10084TIP3    H251744   2.156   3.267   1.573 -1.2448  1.0888 -2.7789
10085TIP3   OH251745   3.242   2.957  16.939  0.5241  0.2634 -0.1124
10085TIP3    H151746   3.305   3.028  16.932  1.1266  0.1516  2.9479
10085TIP3    H251747   3.207   2.963  17.028 -0.8487 -2.0863 -0.3929
10086TIP3   OH251748   0.883   3.463   1.159 -0.0864  0.6117  0.3588
10086TIP3    H151749   0.871   3.459   1.253 -0.5663  1.4516  0.3409
10086TIP3    H251750   0.803   3.503   1.126  0.1087  0.4061 -0.3997
10087TIP3   OH251751   6.003   1.469  13.849 -0.1444  0.2777  0.2009
10087TIP3    H151752   5.948   1.456  13.772 -1.1728 -0.0718  0.9766
10087TIP3    H251753   6.088   1.433  13.823 -0.2136  0.9651 -1.0644
10088TIP3   OH251754   0.801   6.703  10.449  0.0733 -0.7375 -0.4314
10088TIP3    H151755   0.720   6.653  10.437  0.6233 -2.6796  2.6939
10088TIP3    H251756   0.771   6.792  10.466 -1.2542 -0.9618 -1.4073
10089TIP3   OH251757   4.024   0.431  15.728  0.0449 -0.0787 -0.0615
10089TIP3    H151758   3.995   0.355  15.678  0.9200 -0.7208  0.3826
10089TIP3    H251759   4.073   0.395  15.802  0.6508  0.9118  0.0467
10090TIP3   OH251760   0.733   0.593  14.023 -0.2834 -0.2132  0.5145
10090TIP3    H151761   0.792   0.624  14.092  0.7921 -0.0638 -0.4411
10090TIP3    H251762   0.747   0.654  13.951 -0.4033 -1.1371 -0.3095
10091TIP3   OH251763   1.508   1.220   4.255  0.2491  0.9576 -0.0607
10091TIP3    H151764   1.596   1.257   4.262  0.1543  1.2846 -0.6072
10091TIP3    H251765   1.450   1.294   4.272  0.0608  0.3927  2.1878
10092TIP3   OH251766   3.965   4.537  11.232  0.4521 -0.4384  0.2290
10092TIP3    H151767   4.012   4.492  11.303  0.6045 -3.3027 -1.5372
10092TIP3    H251768   3.894   4.478  11.208 -0.5845  1.2000 -0.9768
10093TIP3   OH251769   2.796   0.373   1.324 -0.5533  0.0869 -0.1856
10093TIP3    H151770   2.844   0.426   1.388  0.1197  0.2685 -0.8299
10093TIP3    H251771   2.724   0.429   1.295 -2.0303 -0.6686  1.7864
10094TIP3   OH251772   3.662   2.625   5.193  0.3643  0.1504 -0.0275
10094TIP3    H151773   3.576   2.667   5.192  1.1887  1.9331 -1.5886
10094TIP3    H251774   3.690   2.628   5.101  1.3435 -2.0638  0.1348
10095TIP3   OH251775   2.964   3.774  12.210  0.6034 -0.1066  0.2730
10095TIP3    H151776   2.994   3.831  12.140  0.5632 -0.4031  0.0109
10095TIP3    H251777   2.899   3.717  12.169  0.5611 -0.2665  0.5557
10096TIP3   OH251778   1.597   2.344   6.575 -0.0103  0.0629 -0.0155
10096TIP3    H151779   1.556   2.411   6.631 -1.2161  0.0238 -0.8072
10096TIP3    H251780   1.534   2.271   6.576  1.5381 -1.3409  1.3066
10097TIP3   OH251781   0.807   2.518   2.697 -1.2872  0.2606 -0.1879
10097TIP3    H151782   0.765   2.463   2.763  0.1317 -1.9804 -1.0296
10097TIP3    H251783   0.860   2.580   2.748 -0.3915 -1.2812  0.8571
10098TIP3   OH251784   1.687   6.001  14.113 -0.3410 -0.1111 -0.2878
10098TIP3    H151785   1.635   6.005  14.033  0.8154  3.7026 -1.0852
10098TIP3    H251786   1.654   6.074  14.166  2.8941  1.4059 -0.1180
10099TIP3   OH251787   3.504   5.760   3.607 -0.4096  0.1773  0.7924
10099TIP3    H151788   3.439   5.810   3.658 -1.6387  0.2516 -0.7636
10099TIP3    H251789   3.473   5.670   3.610 -1.2079  0.3662 -0.8021
10100TIP3   OH251790   0.219   4.438  11.566 -0.0045 -0.6566  0.7400
10100TIP3    H151791   0.314   4.431  11.566  0.0516 -0.3304 -1.3267
10100TIP3    H251792   0.197   4.469  11.479 -2.0595 -1.3672  0.9538
10101TIP3   OH251793   0.725   4.133   2.636 -0.1586 -0.0519  0.3751
10101TIP3    H151794   0.649   4.118   2.693 -0.7616 -0.4155 -0.4933
10101TIP3    H251795   0.714   4.070   2.565  1.6303 -0.9589  0.8468
10102TIP3   OH251796   6.254   4.826  12.944  0.0139 -0.3621 -0.3612
10102TIP3    H151797   6.254   4.920  12.928  1.1762 -0.4041 -0.7438
10102TIP3    H251798   6.301   4.816  13.027  0.2917 -0.6241 -0.5463
10103TIP3   OH251799   4.136   6.730   5.007 -0.0881  0.1647  0.3583
10103TIP3    H151800   4.118   6.783   4.930 -0.7312  3.2085  2.4402
10103TIP3    H251801   4.050   6.711   5.043  0.1470 -2.1171 -0.1085
10104TIP3   OH251802   3.139   0.663   4.727  0.1883  0.0651  0.1167
10104TIP3    H151803   3.053   0.629   4.702  0.3480 -0.2887  0.0395
10104TIP3    H251804   3.148   0.639   4.819  0.2650 -0.0222  0.0862
10105TIP3   OH251805   3.816   5.333  11.379  0.2317  0.0028 -0.4743
10105TIP3    H151806   3.906   5.368  11.377  0.1076  0.3152 -1.9773
10105TIP3    H251807   3.818   5.267  11.448  1.7015 -0.1786 -0.6474
10106TIP3   OH251808   5.149   6.414   5.003  0.0436  0.1185 -0.4501
10106TIP3    H151809   5.082   6.413   4.934  0.2315  1.5340 -0.6926
10106TIP3    H251810   5.199   6.494   4.986  1.4874 -0.6536  0.0376
10107TIP3   OH251811   2.568   5.662  16.553 -0.0518 -0.0162  0.4872
10107TIP3    H151812   2.553   5.747  16.595  0.9630 -0.2989  1.4482
10107TIP3    H251813   2.624   5.682  16.478  0.4939  0.1228  0.9271
10108TIP3   OH251814   6.259   3.956   5.715 -0.1013  0.4374 -0.3051
10108TIP3    H151815   6.279   4.043   5.681  0.3536  0.8312  0.9221
10108TIP3    H251816   6.215   3.912   5.642  1.3835  1.0205 -1.6191
10109TIP3   OH251817   3.511   3.685  12.038 -0.9641 -0.6010 -0.2519
10109TIP3    H151818   3.512   3.780  12.025 -1.4535 -0.6819 -0.9087
10109TIP3    H251819   3.590   3.653  11.995 -1.4103 -0.6146 -1.0805
10110TIP3   OH251820   0.634   2.028   6.263 -0.3609  0.2826  0.2821
10110TIP3    H151821   0.725   2.003   6.249 -0.0583  1.8971 -0.9553
10110TIP3    H251822   0.630   2.120   6.237 -2.8918 -0.3917 -2.3117
10111TIP3   OH251823   1.940   2.430   4.558 -0.0274  0.3119 -0.0615
10111TIP3    H151824   1.961   2.446   4.650 -0.1733 -1.4174  0.2940
10111TIP3    H251825   1.845   2.442   4.553 -0.1350 -0.4228  0.1966
10112TIP3   OH251826   1.465   4.243   2.707 -0.3021 -0.4603  0.1866
10112TIP3    H151827   1.370   4.230   2.701 -0.2820 -0.0380 -2.5267
10112TIP3    H251828   1.476   4.311   2.773 -1.6258 -2.1960  2.3673
10113TIP3   OH251829   3.356   1.535   1.943  0.0335 -0.0150 -0.0737
10113TIP3    H151830   3.321   1.549   2.031  1.7987  2.4863  0.3336
10113TIP3    H251831   3.302   1.591   1.887 -0.5659 -0.9782 -0.4797
10114TIP3   OH251832   5.333   6.266  15.574 -0.1316 -0.0061 -0.1376
10114TIP3    H151833   5.256   6.214  15.551 -0.0932 -0.2462  0.2779
10114TIP3    H251834   5.407   6.210  15.550 -0.0851 -0.7321  1.6113
10115TIP3   OH251835   4.098   3.946  13.023 -0.0784  0.1202  0.2249
10115TIP3    H151836   4.137   4.029  12.996 -0.7693  0.9355  1.6602
10115TIP3    H251837   4.022   3.935  12.965  1.9079 -1.2948 -2.3354
10116TIP3   OH251838   4.558   0.612   0.834  0.0514  0.1915 -0.4119
10116TIP3    H151839   4.557   0.678   0.903 -1.3173 -0.8635  0.6517
10116TIP3    H251840   4.492   0.642   0.771  1.6040  1.3788 -1.5542
10117TIP3   OH251841   4.833   4.983   2.711 -0.1167  0.4931  0.2716
10117TIP3    H151842   4.839   5.058   2.770  1.4515  1.3957 -0.9636
10117TIP3    H251843   4.900   4.922   2.742  1.4568  1.4305 -1.1239
10118TIP3   OH251844   3.424   5.502   6.540 -0.0279 -0.3419  0.0503
10118TIP3    H151845   3.510   5.516   6.579  0.5334  1.3617 -1.6657
10118TIP3    H251846   3.388   5.589   6.528 -1.4649 -0.9633 -0.4468
10119TIP3   OH251847   6.060   6.296   2.194  0.1119  0.1765  0.4037
10119TIP3    H151848   6.155   6.297   2.188  0.2651 -0.1626  2.1783
10119TIP3    H251849   6.030   6.347   2.119  1.6338 -0.7589 -0.9019
10120TIP3   OH251850   1.247   1.070   4.882  0.1960 -0.2139 -0.2623
10120TIP3    H151851   1.231   1.026   4.966  2.0257 -0.4588 -0.0134
10120TIP3    H251852   1.218   1.006   4.816  0.8280 -0.9382  0.1453
10121TIP3   OH251853   5.932   6.733  15.287 -0.2205  0.1627 -0.2592
10121TIP3    H151854   5.921   6.816  15.333  1.1757 -0.0396  0.4758
10121TIP3    H251855   5.987   6.680  15.344 -0.0749 -0.8307 -1.2713
10122TIP3   OH251856   1.557   2.694   3.402 -0.0759 -0.3102  0.5639
10122TIP3    H151857   1.482   2.669   3.348  0.6156 -0.1354 -0.5116
10122TIP3    H251858   1.527   2.771   3.450  0.1799  1.3284 -1.7412
10123TIP3   OH251859   0.639   5.603   4.160 -0.4347  0.3657 -0.2303
10123TIP3    H151860   0.668   5.519   4.124  0.0322 -0.2721  1.5270
10123TIP3    H251861   0.644   5.592   4.255 -2.2154  1.7584  0.0855
10124TIP3   OH251862   1.454   4.643  13.238  0.3507 -0.2802 -0.0622
10124TIP3    H151863   1.510   4.588  13.293 -1.0256 -1.4414  0.2547
10124TIP3    H251864   1.385   4.583  13.208 -2.0856  1.5454  1.5056
10125TIP3   OH251865   0.671   6.217   0.674  0.2128  0.4713 -0.1884
10125TIP3    H151866   0.747   6.266   0.705 -0.0497  1.8671 -1.6337
10125TIP3    H251867   0.627   6.188   0.754  0.4650  2.4866  0.7427
10126TIP3   OH251868   5.019   3.805   0.874  0.1956  0.4720 -0.2072
10126TIP3    H151869   5.067   3.743   0.820  1.3734  1.7269 -0.6666
10126TIP3    H251870   4.973   3.860   0.810  0.7268  1.2896  0.1052
10127TIP3   OH251871   2.699   2.844  14.094  0.0302  0.7894  0.0479
10127TIP3    H151872   2.634   2.829  14.163  0.9061  1.9532  1.1635
10127TIP3    H251873   2.648   2.878  14.020 -0.6211  1.9347  0.9943
10128TIP3   OH251874   6.055   6.490  15.141 -0.6276 -0.3191  0.4672
10128TIP3    H151875   5.991   6.448  15.198  0.0017  1.1752  2.3753
10128TIP3    H251876   6.135   6.440  15.154 -0.4395  0.1275  1.0383
10129TIP3   OH251877   4.622   0.336  14.843  0.2412  0.1112 -0.1850
10129TIP3    H151878   4.703   0.355  14.890 -0.4475  0.6619  0.8096
10129TIP3    H251879   4.634   0.247  14.810  1.1391  0.0887  0.1695
10130TIP3   OH251880   0.941   6.198   1.575  0.1181  0.0263 -0.9302
10130TIP3    H151881   0.980   6.132   1.633 -1.3185  0.5335  0.6979
10130TIP3    H251882   0.973   6.282   1.610 -1.2844  0.3716 -0.4162
10131TIP3   OH251883   0.353   1.375  10.778  0.1913  0.2475 -0.1221
10131TIP3    H151884   0.420   1.410  10.837 -1.3683  0.5996  1.5633
10131TIP3    H251885   0.326   1.450  10.725 -1.0422  0.9582  1.4174
10132TIP3   OH251886   3.056   2.339  15.419 -0.7112  0.5462 -0.0893
10132TIP3    H151887   3.063   2.250  15.384 -3.2941  0.0253  0.4644
10132TIP3    H251888   3.020   2.390  15.346  1.9125  1.5006 -0.8060
10133TIP3   OH251889   3.654   6.095  14.658 -0.0565  0.1922 -0.0936
10133TIP3    H151890   3.731   6.103  14.715 -1.0129 -0.2188  1.3229
10133TIP3    H251891   3.584   6.140  14.706 -0.4186  1.7672 -1.9691
10134TIP3   OH251892   1.509   3.258  13.129 -0.3446 -0.5905 -0.0485
10134TIP3    H151893   1.545   3.174  13.099 -0.4401 -0.3378 -0.8978
10134TIP3    H251894   1.492   3.307  13.049 -0.6550  0.0973  0.4252
10135TIP3   OH251895   4.699   3.281  13.389  0.1215 -0.3389 -0.1052
10135TIP3    H151896   4.774   3.332  13.420  0.7623  0.5027 -2.7825
10135TIP3    H251897   4.622   3.330  13.418  0.5807 -0.5333  1.5534
10136TIP3   OH251898   4.660   4.789  14.251 -0.1963  0.2667  0.3830
10136TIP3    H151899   4.624   4.858  14.306 -0.2371  0.7799 -0.2829
10136TIP3    H251900   4.587   4.764  14.193  0.3793  1.0125 -0.6824
10137TIP3   OH251901   2.938   3.479   4.888  0.2366  0.5963 -0.1300
10137TIP3    H151902   2.905   3.456   4.975  1.8085 -1.1469  0.0618
10137TIP3    H251903   2.905   3.410   4.831  2.1363 -0.3140 -0.2117
10138TIP3   OH251904   0.154   2.372   4.589 -0.2358 -0.0904 -0.7783
10138TIP3    H151905   0.070   2.354   4.632 -0.1438  0.5182 -0.3336
10138TIP3    H251906   0.216   2.313   4.632 -0.1328  0.5551 -0.0202
10139TIP3   OH251907   4.808   5.869   3.103  0.2561 -0.2000  0.3804
10139TIP3    H151908   4.762   5.792   3.070  1.1904 -0.4978 -0.2892
10139TIP3    H251909   4.819   5.853   3.196  0.4705 -0.8983  0.2409
10140TIP3   OH251910   3.083   4.468  13.146  0.0091 -0.1092 -0.0604
10140TIP3    H151911   2.992   4.445  13.126  0.2101 -0.3685 -0.6944
10140TIP3    H251912   3.127   4.469  13.061  0.6217 -0.0749  0.2514
10141TIP3   OH251913   0.849   5.684   2.025  0.1073  0.4315  0.0126
10141TIP3    H151914   0.876   5.768   1.986 -2.4932  0.8988 -0.9888
10141TIP3    H251915   0.797   5.709   2.101 -0.9479 -0.2090 -0.4713
10142TIP3   OH251916   6.174   5.968   2.413 -0.3914  0.0738 -0.1205
10142TIP3    H151917   6.084   5.998   2.404 -0.5155 -0.4113 -0.5985
10142TIP3    H251918   6.211   5.976   2.325 -0.4020 -1.0429 -0.2404
10143TIP3   OH251919   2.508   6.135  13.782 -0.7525  0.3008 -0.1330
10143TIP3    H151920   2.458   6.195  13.728 -2.4540 -0.7039  0.2593
10143TIP3    H251921   2.444   6.072  13.814  0.9585 -1.7691 -0.5715
10144TIP3   OH251922   4.898   5.227   2.003  0.4695 -0.5443 -0.2981
10144TIP3    H151923   4.862   5.170   2.071 -0.3074  0.1241 -0.1375
10144TIP3    H251924   4.823   5.251   1.949  0.7533  0.4751 -0.2532
10145TIP3   OH251925   6.261   2.216  12.964 -0.2044  0.1012 -0.1141
10145TIP3    H151926   6.326   2.257  13.022  0.4896 -0.3919 -0.5299
10145TIP3    H251927   6.178   2.225  13.011  0.0962  1.0502  0.2755
10146TIP3   OH251928   4.930   1.166  15.687 -0.0058  0.1442  0.2526
10146TIP3    H151929   4.974   1.250  15.705  0.4123 -0.1595  0.6773
10146TIP3    H251930   4.836   1.187  15.692  0.0708  0.2645  2.0805
10147TIP3   OH251931   2.709   1.369  15.947  0.3138  0.2741  0.2384
10147TIP3    H151932   2.788   1.364  15.892  0.1399 -2.7108  0.0784
10147TIP3    H251933   2.741   1.358  16.036  0.3106  2.1855  0.5133
10148TIP3   OH251934   1.151   5.459   4.786 -0.1461  0.1106 -0.3892
10148TIP3    H151935   1.223   5.450   4.849 -0.6872 -2.1299 -0.0087
10148TIP3    H251936   1.194   5.483   4.704  0.8786  0.2839  0.1860
10149TIP3   OH251937   1.106   3.063   0.765  0.6410  0.0997  0.8471
10149TIP3    H151938   1.068   3.131   0.708 -0.0701 -0.3270  0.8007
10149TIP3    H251939   1.043   2.992   0.762  0.0140  0.4923  3.0682
10150TIP3   OH251940   6.448   0.677  16.697  0.1016 -0.8446 -0.0484
10150TIP3    H151941   6.387   0.618  16.654 -1.4654 -0.6598  1.7952
10150TIP3    H251942   6.494   0.623  16.761  1.6095 -0.8768 -1.0866
10151TIP3   OH251943   4.789   5.053  14.417  0.3679 -0.1208  0.1000
10151TIP3    H151944   4.784   5.047  14.512 -1.4681 -1.7751 -0.0268
10151TIP3    H251945   4.729   5.124  14.394  1.3635  0.7682  0.1874
10152TIP3   OH251946   2.273   0.654  15.728 -0.7600  0.2530  0.3968
10152TIP3    H151947   2.241   0.605  15.653  0.4619  0.8339 -0.5309
10152TIP3    H251948   2.290   0.742  15.694  0.5672  0.3133  1.1366
10153TIP3   OH251949   5.613   3.366  12.476 -0.5436  0.2469  0.9185
10153TIP3    H151950   5.635   3.346  12.385 -0.9939  2.3338  0.2894
10153TIP3    H251951   5.697   3.369  12.522 -0.2021  0.5037  0.2817
10154TIP3   OH251952   2.577   5.541   4.475  0.1934  0.2065  0.8380
10154TIP3    H151953   2.576   5.580   4.563  2.5474 -0.6583  1.3152
10154TIP3    H251954   2.537   5.455   4.488 -1.7133  0.9811  0.5003
10155TIP3   OH251955   1.139   5.169  13.839  0.8130  0.1173 -0.1143
10155TIP3    H151956   1.102   5.107  13.776 -0.0130  0.7909 -0.3162
10155TIP3    H251957   1.065   5.192  13.896  1.0126  1.2021 -0.2768
10156TIP3   OH251958   5.713   5.259  14.398 -0.3259 -0.2247  0.2325
10156TIP3    H151959   5.649   5.278  14.466  2.2246  1.2108  2.4160
10156TIP3    H251960   5.694   5.321  14.328 -1.5608 -0.1305  0.6335
10157TIP3   OH251961   6.276   2.877  12.982 -0.2504  0.0846  0.0570
10157TIP3    H151962   6.315   2.965  12.984 -1.2084  0.5074  1.2371
10157TIP3    H251963   6.193   2.889  12.937 -0.8751  0.0108  1.1645
10158TIP3   OH251964   4.205   6.639  16.370 -0.3890  0.5781 -0.5379
10158TIP3    H151965   4.298   6.621  16.359 -0.3530  1.7911 -2.8884
10158TIP3    H251966   4.161   6.570  16.321 -0.9928 -1.6065  2.7106
10159TIP3   OH251967   2.303   5.158  12.709  0.0443  0.7451  0.1387
10159TIP3    H151968   2.262   5.145  12.624 -2.0048 -0.7625  1.2578
10159TIP3    H251969   2.249   5.224  12.752  0.1788  0.4426  0.7862
10160TIP3   OH251970   6.432   6.135  11.882 -0.1187 -0.1504  0.4851
10160TIP3    H151971   6.461   6.104  11.796  0.1065 -0.1566  0.5638
10160TIP3    H251972   6.484   6.214  11.898 -1.9613  1.3608 -0.5225
10161TIP3   OH251973   3.026   5.522   0.330 -0.6259  0.3076  0.2887
10161TIP3    H151974   3.003   5.603   0.285 -1.1048  0.3787  0.6604
10161TIP3    H251975   3.106   5.493   0.286 -1.0352  0.4187 -0.5575
10162TIP3   OH251976   5.903   0.437  13.066 -0.2605 -0.3697  0.0137
10162TIP3    H151977   5.813   0.405  13.077 -0.1239 -0.7715  0.0044
10162TIP3    H251978   5.939   0.382  12.996  0.5713 -1.4708  1.2537
10163TIP3   OH251979   5.042   0.785   4.221  0.4252  0.2358  0.0677
10163TIP3    H151980   5.044   0.877   4.194  2.0259  0.0256 -0.6769
10163TIP3    H251981   5.134   0.760   4.228  0.0457 -0.7434  2.3879
10164TIP3   OH251982   1.812   4.594  11.742  0.2703  0.0532  0.4038
10164TIP3    H151983   1.754   4.670  11.739  0.6429  0.3410  0.4481
10164TIP3    H251984   1.856   4.600  11.827  0.3199 -0.1998  0.3992
10165TIP3   OH251985   4.546   4.268  13.048 -0.1114 -0.8124 -0.1538
10165TIP3    H151986   4.585   4.353  13.067 -0.7584 -0.0966 -1.8524
10165TIP3    H251987   4.556   4.257  12.954 -0.1444 -2.5884  0.0151
10166TIP3   OH251988   6.543   6.158   5.303  0.5781 -0.4231 -0.1721
10166TIP3    H151989   6.491   6.182   5.380  0.2186  0.2724 -0.6204
10166TIP3    H251990   6.533   6.232   5.244  1.1387 -0.8007 -0.7467
10167TIP3   OH251991   1.380   3.352  11.092 -0.1344 -0.3533  0.1221
10167TIP3    H151992   1.450   3.286  11.086 -1.3007 -1.7828  1.2665
10167TIP3    H251993   1.416   3.430  11.050  1.2632 -1.7592 -1.4306
10168TIP3   OH251994   3.420   2.917   1.406 -0.1234 -0.4951  0.4826
10168TIP3    H151995   3.350   2.961   1.358  0.2910 -0.0309  0.3033
10168TIP3    H251996   3.444   2.978   1.476  1.1912  0.0527 -0.4165
10169TIP3   OH251997   2.415   4.432  14.709 -0.3993 -0.1205 -0.5672
10169TIP3    H151998   2.344   4.369  14.697 -0.0105 -1.2161  2.2615
10169TIP3    H251999   2.494   4.379  14.711  0.0615  0.5703  0.6683
10170TIP3   OH252000   5.599   0.682   2.747 -0.4353  0.5111 -1.3086
10170TIP3    H152001   5.584   0.775   2.765 -1.5453  0.2483 -0.8007
10170TIP3    H252002   5.581   0.672   2.654  2.4808  1.3179 -2.0688
10171TIP3   OH252003   2.239   1.758  17.121  0.4819  0.4972  0.1749
10171TIP3    H152004   2.200   1.705  17.191  3.0109 -0.2237  1.1329
10171TIP3    H252005   2.285   1.695  17.066 -0.9915  1.1223 -1.9324
10172TIP3   OH252006   6.025   1.863  16.255  0.4601 -0.1603  0.6693
10172TIP3    H152007   6.019   1.955  16.228 -1.7188 -0.4124  0.1003
10172TIP3    H252008   5.945   1.847  16.305  1.6067 -1.3262  2.2375
10173TIP3   OH252009   5.633   3.568  10.878  0.5704 -0.0476  0.0642
10173TIP3    H152010   5.583   3.532  10.804  1.6546 -1.3588 -0.0741
10173TIP3    H252011   5.654   3.657  10.851  2.3871 -1.0093 -2.0344
10174TIP3   OH252012   4.596   0.606   4.074  0.3181  0.6953  0.1268
10174TIP3    H152013   4.619   0.659   4.151 -0.3451  0.4490  0.5042
10174TIP3    H252014   4.541   0.664   4.021 -3.0759 -0.4805  2.0174
10175TIP3   OH252015   4.646   3.986   0.349 -0.1585 -0.1352  0.3543
10175TIP3    H152016   4.661   3.892   0.339 -0.2121  0.0168 -1.6633
10175TIP3    H252017   4.641   4.000   0.443 -2.5878 -2.5389  0.7086
10176TIP3   OH252018   3.468   4.930  16.080 -0.6860  0.2014 -0.5336
10176TIP3    H152019   3.554   4.926  16.123 -0.8384  1.7732 -0.0293
10176TIP3    H252020   3.475   4.867  16.008  0.4828 -0.5535  0.1996
10177TIP3   OH252021   3.658   3.952  10.781  0.2886  0.3963  0.6395
10177TIP3    H152022   3.709   4.016  10.830  0.1870 -0.4976  1.9667
10177TIP3    H252023   3.692   3.957  10.692  0.9166  1.6187  0.9352
10178TIP3   OH252024   6.102   6.191  12.794  0.4351 -0.5364 -0.3022
10178TIP3    H152025   6.174   6.137  12.825 -0.1380 -1.4804 -0.5936
10178TIP3    H252026   6.139   6.242  12.722  1.2133  0.1399  0.5411
10179TIP3   OH252027   1.352   1.195  13.645 -0.1785 -0.5555 -0.1141
10179TIP3    H152028   1.445   1.201  13.665 -0.4640 -3.3647  2.7088
10179TIP3    H252029   1.310   1.251  13.710 -0.5544 -0.6130 -0.3059
10180TIP3   OH252030   2.152   6.633   3.624 -0.7742  0.4590 -0.4307
10180TIP3    H152031   2.115   6.546   3.639 -0.3959  0.3648 -0.0004
10180TIP3    H252032   2.218   6.643   3.693  1.5746 -0.2789 -2.4360
10181TIP3   OH252033   5.738   3.968  17.260 -0.0228  0.3362  0.0771
10181TIP3    H152034   5.763   3.890  17.211 -0.1487  1.0665 -1.2118
10181TIP3    H252035   5.722   3.937  17.349 -0.9883 -1.2554 -0.6129
10182TIP3   OH252036   3.254   0.939  15.444 -0.4347  0.5137 -0.0650
10182TIP3    H152037   3.168   0.979  15.458 -1.2081 -0.8218 -0.7752
10182TIP3    H252038   3.234   0.854  15.405  1.2338  0.3172 -0.5416
10183TIP3   OH252039   5.739   0.638   0.029 -0.7049  0.1926 -0.3533
10183TIP3    H152040   5.780   0.667  -0.053 -3.1464 -0.1923 -1.7825
10183TIP3    H252041   5.696   0.717   0.063 -0.5565  0.1074  0.0345
10184TIP3   OH252042   0.573   3.568   6.235  0.0553 -0.5361  0.2759
10184TIP3    H152043   0.601   3.498   6.295  0.1886 -1.2665 -0.6216
10184TIP3    H252044   0.651   3.624   6.226  1.0785 -2.1446 -1.6241
10185TIP3   OH252045   4.960   3.189  16.214  0.2400  0.0036  0.0212
10185TIP3    H152046   4.979   3.112  16.161  0.3399  0.2719 -0.3380
10185TIP3    H252047   4.954   3.261  16.151 -0.9474  0.1136  0.2324
10186TIP3   OH252048   3.585   5.124   2.889 -0.0480 -0.5156 -0.2224
10186TIP3    H152049   3.533   5.201   2.912 -2.1771 -1.4165 -1.7253
10186TIP3    H252050   3.658   5.159   2.839  0.2775  0.6996  1.0318
10187TIP3   OH252051   0.234   6.243  13.323 -0.2956 -0.3467 -0.1410
10187TIP3    H152052   0.196   6.167  13.278  1.6665 -1.2700 -0.3570
10187TIP3    H252053   0.210   6.231  13.415  2.0085 -2.6945  0.2883
10188TIP3   OH252054   5.599   5.287   5.008  0.1943 -0.0259  0.2359
10188TIP3    H152055   5.568   5.235   5.083 -2.1185 -0.7705 -1.1222
10188TIP3    H252056   5.564   5.374   5.025  0.4418  0.0355  0.4437
10189TIP3   OH252057   0.398   2.010   2.169 -0.3904  0.0716  0.3591
10189TIP3    H152058   0.368   1.931   2.123  0.6247 -0.6528  0.9018
10189TIP3    H252059   0.394   2.079   2.103 -1.2948 -0.4269 -0.1284
10190TIP3   OH252060   2.948   0.620   3.400 -0.2911 -0.1624 -0.0609
10190TIP3    H152061   3.040   0.640   3.384  0.5090 -2.4301  1.2096
10190TIP3    H252062   2.911   0.703   3.432  1.0921  0.9701 -1.2248
10191TIP3   OH252063   1.077   1.434   4.775  0.2354  0.9204 -0.5355
10191TIP3    H152064   1.057   1.505   4.714 -0.7930 -1.1555 -2.7707
10191TIP3    H252065   0.998   1.424   4.828 -0.1648  0.4827 -1.2176
10192TIP3   OH252066   5.533   1.848   6.107  0.1797 -0.1138  0.3419
10192TIP3    H152067   5.564   1.909   6.173 -1.1504 -1.0534  1.9136
10192TIP3    H252068   5.439   1.844   6.120  0.1039 -1.6787 -0.4069
10193TIP3   OH252069   3.554   1.937  16.665  0.0931 -0.3399 -0.5534
10193TIP3    H152070   3.576   2.000  16.596 -0.2894 -0.7399 -1.0460
10193TIP3    H252071   3.610   1.862  16.647  1.1563  0.1663  0.5312
10194TIP3   OH252072   2.150   2.823   2.506  0.2418 -0.3170 -0.5221
10194TIP3    H152073   2.068   2.862   2.537  0.1663  0.2907 -1.4209
10194TIP3    H252074   2.157   2.740   2.553  0.7076  1.0263  1.9551
10195TIP3   OH252075   1.891   2.307  10.444  0.3430  0.1518 -0.4526
10195TIP3    H152076   1.868   2.270  10.530  0.5050  0.2776 -0.3536
10195TIP3    H252077   1.851   2.247  10.381 -1.3399  1.0217 -0.2812
10196TIP3   OH252078   0.179   2.977  13.842 -0.2019  0.4704  0.2195
10196TIP3    H152079   0.161   2.883  13.835  0.8333  0.2864 -0.1807
10196TIP3    H252080   0.098   3.019  13.812 -1.8016 -0.2263  3.1608
10197TIP3   OH252081   3.396   4.558  15.208  0.5270 -0.0818 -0.0738
10197TIP3    H152082   3.388   4.468  15.176  1.2660 -0.0816 -0.2770
10197TIP3    H252083   3.393   4.550  15.303 -0.9624 -0.1554 -0.1100
10198TIP3   OH252084   4.348   6.304  15.429 -0.5600  0.1978 -0.5140
10198TIP3    H152085   4.410   6.234  15.408  0.7422  1.0539  0.3103
10198TIP3    H252086   4.367   6.325  15.520 -0.9252  1.6287 -0.7568
10199TIP3   OH252087   4.812   2.047  11.820 -0.2259 -0.0641  0.6786
10199TIP3    H152088   4.853   2.080  11.900 -0.7432  0.2796  0.8090
10199TIP3    H252089   4.747   1.984  11.850  0.2670 -0.6819  0.4662
10200TIP3   OH252090   4.136   2.494   3.862  0.0918 -0.6471  0.0841
10200TIP3    H152091   4.193   2.565   3.833  1.6351 -1.9188 -0.1718
10200TIP3    H252092   4.151   2.488   3.956 -0.0007 -0.6611  0.0985
10201TIP3   OH252093   1.779   3.283   4.010 -0.1441  0.3874  0.3623
10201TIP3    H152094   1.708   3.235   4.051  0.1200  1.1263  1.7656
10201TIP3    H252095   1.772   3.372   4.046 -0.1275  1.1997 -1.5149
10202TIP3   OH252096   2.539   6.653  16.888 -0.3148  0.4841 -0.4873
10202TIP3    H152097   2.517   6.724  16.828  1.5868 -0.4684 -2.4507
10202TIP3    H252098   2.611   6.687  16.941 -0.4893  0.5842 -0.3170
10203TIP3   OH252099   6.773   1.316  13.165 -0.3585  0.6695 -0.2723
10203TIP3    H152100   6.756   1.270  13.082 -1.0305 -0.3012  0.3745
10203TIP3    H252101   6.720   1.395  13.160  1.2212  1.6958 -1.6321
10204TIP3   OH252102   2.088   6.321   4.018  0.6971 -0.0889  0.0050
10204TIP3    H152103   2.028   6.392   4.040 -1.0141 -1.4429 -0.0013
10204TIP3    H252104   2.122   6.344   3.931  1.1655  1.3086  0.5415
10205TIP3   OH252105   5.308   3.317  14.597  0.0775 -0.1315 -0.0634
10205TIP3    H152106   5.356   3.308  14.680 -1.3832 -0.2603  0.8098
10205TIP3    H252107   5.221   3.282  14.616 -0.4949  0.4339 -1.4869
10206TIP3   OH252108   5.422   2.793   6.030  0.0801 -0.8641  0.4172
10206TIP3    H152109   5.456   2.882   6.025 -2.2321  0.0254 -1.3170
10206TIP3    H252110   5.429   2.769   6.122  0.8863  1.0366  0.8973
10207TIP3   OH252111   1.537   4.295   4.240  0.0227  0.0716  0.0656
10207TIP3    H152112   1.576   4.290   4.327  0.4826  0.2258 -0.1324
10207TIP3    H252113   1.525   4.204   4.214 -0.3891  0.0233  0.4102
10208TIP3   OH252114   2.334   6.052   0.780 -0.1529 -0.1446 -0.6765
10208TIP3    H152115   2.268   6.111   0.818  0.4643  1.2929 -1.7487
10208TIP3    H252116   2.378   6.014   0.856  0.7574  2.3021  0.1116
10209TIP3   OH252117   0.911   4.704  16.797  0.7126 -0.2172  0.1132
10209TIP3    H152118   1.003   4.680  16.785  1.3037  0.7206  2.3556
10209TIP3    H252119   0.886   4.665  16.880  0.0066  2.0027  1.0183
10210TIP3   OH252120   4.132   0.495  16.848  0.0098  0.1380 -0.2319
10210TIP3    H152121   4.178   0.412  16.854  1.2082  0.8507  0.7663
10210TIP3    H252122   4.186   0.549  16.790  0.0800  0.7395  0.3782
10211TIP3   OH252123   4.216   3.256   6.275  0.3316 -0.4025 -0.7892
10211TIP3    H152124   4.207   3.194   6.347  1.2652  1.1602  0.7438
10211TIP3    H252125   4.142   3.316   6.284 -0.6957 -1.3450 -2.3989
10212TIP3   OH252126   5.259   6.285  15.847 -0.2053 -0.1381 -0.0112
10212TIP3    H152127   5.310   6.284  15.765  1.8543  0.1439  1.1959
10212TIP3    H252128   5.295   6.213  15.898 -1.1532 -0.0226  0.8461
10213TIP3   OH252129   4.701   2.675   5.724 -0.2038  0.4880 -0.3962
10213TIP3    H152130   4.779   2.698   5.673  0.6223  0.9433  1.0113
10213TIP3    H252131   4.713   2.583   5.745  1.3453  1.1468  2.0196
10214TIP3   OH252132   3.709   2.975  13.240 -0.0810  0.2101  0.3897
10214TIP3    H152133   3.641   3.040  13.258  2.2527  2.6177  1.1409
10214TIP3    H252134   3.760   3.013  13.168  0.9565 -1.1625  0.3624
10215TIP3   OH252135   2.859   3.854   3.708  0.1353 -0.2857  0.6032
10215TIP3    H152136   2.807   3.806   3.644  0.4700  1.0850 -0.7536
10215TIP3    H252137   2.930   3.893   3.657  0.5915  0.6094  1.8620
10216TIP3   OH252138   5.863   2.303   0.692 -0.1397 -0.3971  0.1082
10216TIP3    H152139   5.772   2.280   0.710  0.5195 -3.0031  0.5369
10216TIP3    H252140   5.914   2.233   0.732  2.2644  2.2783  2.1848
10217TIP3   OH252141   3.403   2.394   1.136  0.1487  0.0661  0.3601
10217TIP3    H152142   3.492   2.360   1.140 -0.3891 -1.3679  1.0276
10217TIP3    H252143   3.397   2.437   1.051  1.7812  1.1633  0.7598
10218TIP3   OH252144   6.230   2.200   3.130 -0.6075  0.2772  0.5287
10218TIP3    H152145   6.140   2.231   3.137 -0.9906 -0.8459  0.6885
10218TIP3    H252146   6.239   2.173   3.039 -1.1358 -1.6371  0.9974
10219TIP3   OH252147   3.177   4.567   1.492  0.0156 -0.6387 -0.3071
10219TIP3    H152148   3.151   4.476   1.481 -0.2233 -0.4935 -0.9479
10219TIP3    H252149   3.171   4.605   1.405 -4.3224  1.1980  0.5439
10220TIP3   OH252150   5.826   5.646   4.168 -0.1430 -0.2070 -0.5214
10220TIP3    H152151   5.891   5.576   4.161 -2.4775 -2.3871 -1.8094
10220TIP3    H252152   5.781   5.629   4.251  0.7291  1.1715  0.2677
10221TIP3   OH252153   2.379   3.783  14.756 -0.2592  1.0445  0.1873
10221TIP3    H152154   2.340   3.809  14.672  1.9540 -0.5331 -1.4497
10221TIP3    H252155   2.457   3.838  14.764 -0.1104  0.7382  0.8815
10222TIP3   OH252156   3.496   5.962   3.962 -0.0354 -0.0536 -0.4573
10222TIP3    H152157   3.506   5.933   4.053 -0.2369 -2.2790 -1.0902
10222TIP3    H252158   3.411   5.926   3.935 -0.5681  1.6486 -1.1794
10223TIP3   OH252159   3.180   1.825   1.699  0.4953  0.3064 -0.3032
10223TIP3    H152160   3.256   1.858   1.748 -1.0008  1.6749  1.2197
10223TIP3    H252161   3.113   1.812   1.765 -0.6425 -0.8431 -1.6238
10224TIP3   OH252162   4.160   5.528  13.081 -0.1439  0.2695  0.1389
10224TIP3    H152163   4.196   5.569  13.002 -1.5964 -0.8530 -1.1662
10224TIP3    H252164   4.124   5.600  13.131  0.0338  0.9231 -0.6449
10225TIP3   OH252165   4.377   4.837   5.658  0.9326  0.2931  0.5528
10225TIP3    H152166   4.345   4.812   5.571  0.3771  0.1228  0.7970
10225TIP3    H252167   4.309   4.806   5.718  0.6425  1.6191  0.9427
10226TIP3   OH252168   1.010   5.493  16.235 -0.4162  0.1557  0.4783
10226TIP3    H152169   1.034   5.526  16.321 -0.0262  3.0626 -0.6356
10226TIP3    H252170   0.955   5.562  16.197 -2.2619 -1.9103 -0.8820
10227TIP3   OH252171   3.645   6.104   0.573 -0.2305 -0.0792  0.3854
10227TIP3    H152172   3.699   6.039   0.528 -1.0212 -0.3113 -0.2630
10227TIP3    H252173   3.651   6.080   0.665  2.3713  1.1061  0.6234
10228TIP3   OH252174   2.806   5.453   6.598  0.3662  0.2114  0.1333
10228TIP3    H152175   2.897   5.479   6.615  1.5005 -1.8874 -2.0609
10228TIP3    H252176   2.761   5.535   6.580  1.7756  1.3295  1.4093
10229TIP3   OH252177   1.689   1.443  16.392  0.4194 -0.1355 -0.3418
10229TIP3    H152178   1.715   1.447  16.484  0.5653 -0.1995 -0.3811
10229TIP3    H252179   1.660   1.353  16.380 -0.6499  0.1526 -0.0747
10230TIP3   OH252180   1.118   3.774   0.880 -0.0459 -0.3251  0.5257
10230TIP3    H152181   1.037   3.726   0.895  0.1477 -0.4914  1.0515
10230TIP3    H252182   1.114   3.847   0.942 -2.2044  2.7529 -2.8020
10231TIP3   OH252183   3.857   3.954  13.408  0.5709  0.1159  0.6797
10231TIP3    H152184   3.770   3.972  13.372 -0.4474 -0.2869  2.7859
10231TIP3    H252185   3.879   4.033  13.458  1.8193  0.5502 -0.4957
10232TIP3   OH252186   4.336   4.370   5.976  0.6241 -0.1485  0.3385
10232TIP3    H152187   4.364   4.410   5.894 -1.9040 -2.5535 -1.8803
10232TIP3    H252188   4.381   4.286   5.978 -0.4049 -0.7019  0.7147
10233TIP3   OH252189   1.797   0.428  12.970 -0.2546  0.4699 -0.3039
10233TIP3    H152190   1.828   0.476  13.047 -0.3737  1.3177 -0.7710
10233TIP3    H252191   1.709   0.398  12.994 -0.1518  0.4254  0.0185
10234TIP3   OH252192   4.753   5.132  14.685  0.2838  0.2896  0.0649
10234TIP3    H152193   4.764   5.225  14.703  0.8091  0.0103  1.2999
10234TIP3    H252194   4.659   5.116  14.695  0.2991  0.5428  0.6546
10235TIP3   OH252195   2.214   3.622  16.759 -0.4828 -0.0408  0.1362
10235TIP3    H152196   2.173   3.569  16.690 -0.7352  0.4947 -0.1324
10235TIP3    H252197   2.186   3.582  16.841 -3.1593  1.4186  0.0470
10236TIP3   OH252198   3.639   2.112   3.076  0.3845  0.7028 -0.1391
10236TIP3    H152199   3.651   2.172   3.150 -1.4484 -0.7668  1.4490
10236TIP3    H252200   3.710   2.048   3.087  0.1411  0.5102  0.3354
10237TIP3   OH252201   3.485   6.392  15.592  0.1919  0.4637  0.3331
10237TIP3    H152202   3.426   6.358  15.525  0.0801  0.5194  0.4013
10237TIP3    H252203   3.517   6.314  15.638  0.6115  0.3985 -0.0665
10238TIP3   OH252204   4.805   0.703  12.976  0.1603 -0.1386 -0.0096
10238TIP3    H152205   4.764   0.617  12.982  1.2385 -0.6443  0.2683
10238TIP3    H252206   4.732   0.765  12.981 -0.7164 -1.0471 -1.1171
10239TIP3   OH252207   2.297   4.293   3.702  0.2883 -0.1789 -0.2807
10239TIP3    H152208   2.322   4.338   3.782  1.4510  3.0843 -2.2974
10239TIP3    H252209   2.208   4.260   3.720 -0.4335  2.4769  1.5899
10240TIP3   OH252210   5.972   2.701  12.750 -0.0074 -0.3099  0.0214
10240TIP3    H152211   5.922   2.655  12.817  0.0125 -0.4714 -0.0729
10240TIP3    H252212   6.007   2.778  12.794 -1.3218  0.4546 -0.1987
10241TIP3   OH252213   1.298   0.422  15.272 -0.4366  0.8636 -0.3907
10241TIP3    H152214   1.377   0.433  15.218  1.1722  0.1708  1.6895
10241TIP3    H252215   1.304   0.333  15.306 -1.5671  1.1600  0.6613
10242TIP3   OH252216   6.603   6.207  13.097 -0.0559  0.1978  0.1000
10242TIP3    H152217   6.604   6.184  13.004  1.0794  0.1910  0.1084
10242TIP3    H252218   6.511   6.201  13.122 -0.5183  1.1527 -1.2643
10243TIP3   OH252219   1.805   0.086   1.897 -0.6995 -0.1694 -0.0099
10243TIP3    H152220   1.780   0.133   1.977  0.5237 -0.3227  0.4769
10243TIP3    H252221   1.730   0.030   1.878 -0.5868 -0.9371  1.6498
10244TIP3   OH252222   3.865   0.308  11.280 -0.2139 -0.1776 -0.6004
10244TIP3    H152223   3.778   0.346  11.266 -1.0711 -2.5845 -2.7706
10244TIP3    H252224   3.876   0.307  11.375 -2.2888  0.7355 -0.2893
10245TIP3   OH252225   6.082   1.985   0.272 -0.1754 -0.1083  0.2762
10245TIP3    H152226   6.063   1.902   0.315 -0.1815 -0.7806 -0.9877
10245TIP3    H252227   6.003   2.038   0.284 -1.3362 -1.3740 -1.4196
10246TIP3   OH252228   0.603   0.958  11.680  0.1448  0.9684  0.7981
10246TIP3    H152229   0.538   0.922  11.620  0.7577  0.7368  0.2610
10246TIP3    H252230   0.579   0.923  11.766  0.7581 -0.7969  0.2925
10247TIP3   OH252231   2.027   2.807  12.018  0.3618 -0.1078 -0.2447
10247TIP3    H152232   1.934   2.789  12.037  0.6297 -2.1685 -0.5940
10247TIP3    H252233   2.027   2.893  11.977 -1.2403  0.5015  0.9341
10248TIP3   OH252234   5.659   3.262  17.042  0.4326  0.1316  0.2218
10248TIP3    H152235   5.651   3.274  16.948  0.8165 -0.5867  0.0925
10248TIP3    H252236   5.590   3.199  17.064 -0.7443  1.5268  0.6896
10249TIP3   OH252237   2.641   3.643   1.863  0.1918 -0.4682 -0.6215
10249TIP3    H152238   2.636   3.551   1.836 -1.2608 -1.1068  1.5555
10249TIP3    H252239   2.717   3.647   1.921 -2.1893 -1.4912  2.9109
10250TIP3   OH252240   5.903   4.879   2.147 -0.0240  0.1691 -0.2851
10250TIP3    H152241   5.897   4.966   2.187  1.9370  0.9229 -1.4956
10250TIP3    H252242   5.844   4.825   2.199 -0.3181  1.9197  1.3181
10251TIP3   OH252243   5.449   6.564   3.735 -0.2455 -0.8786 -0.7170
10251TIP3    H152244   5.520   6.547   3.797  0.7331  0.4264 -1.4210
10251TIP3    H252245   5.459   6.656   3.712 -2.4067 -0.5518 -0.5769
10252TIP3   OH252246   3.530   1.923   0.665  0.4596 -0.0240  0.2175
10252TIP3    H152247   3.481   2.006   0.659 -1.3206 -1.0923 -2.1647
10252TIP3    H252248   3.465   1.860   0.695  0.8882 -1.1265 -1.0884
10253TIP3   OH252249   0.440   2.943   3.032 -0.2842  0.6438 -0.9134
10253TIP3    H152250   0.457   2.976   2.944 -0.4361  1.0107 -0.8092
10253TIP3    H252251   0.393   3.014   3.075 -1.9157 -0.2635 -1.1308
10254TIP3   OH252252   4.170   0.034  12.251  0.3173 -0.3504 -0.7588
10254TIP3    H152253   4.109   0.103  12.226  0.1043 -1.0394 -2.2699
10254TIP3    H252254   4.256   0.077  12.253 -0.1588  0.5934  1.2517
10255TIP3   OH252255   6.443   2.174  12.444 -0.6506 -0.7686  0.0940
10255TIP3    H152256   6.439   2.164  12.539 -0.7575  2.8612  0.6097
10255TIP3    H252257   6.532   2.205  12.427 -0.5736 -1.5506 -1.0435
10256TIP3   OH252258   2.234   1.226   1.201 -0.3885  0.0973 -0.0323
10256TIP3    H152259   2.237   1.251   1.293 -0.6882  0.5151 -0.1351
10256TIP3    H252260   2.319   1.253   1.165 -0.1002 -0.4567  0.2147
10257TIP3   OH252261   1.655   6.539   0.974  0.7687 -0.4715  0.2313
10257TIP3    H152262   1.636   6.617   0.923 -0.0251  0.0749  1.3178
10257TIP3    H252263   1.624   6.466   0.920  0.7520  0.0165 -0.4241
10258TIP3   OH252264   5.109   2.024  16.929  0.3083 -0.1579  0.0421
10258TIP3    H152265   5.120   2.082  16.854 -0.6115 -0.4434 -0.3234
10258TIP3    H252266   5.123   1.936  16.893  1.4177 -0.2100  0.5377
10259TIP3   OH252267   0.265   5.736   3.442 -0.1804  0.8451  0.0372
10259TIP3    H152268   0.237   5.798   3.510  2.8211  0.3699  1.8694
10259TIP3    H252269   0.188   5.681   3.427 -1.6230  2.3657  1.4020
10260TIP3   OH252270   0.468   5.106   6.250 -0.0365 -0.0460 -0.0549
10260TIP3    H152271   0.559   5.133   6.247 -0.4364  1.4793  0.5668
10260TIP3    H252272   0.421   5.182   6.284 -1.4546 -1.0167  0.2724
10261TIP3   OH252273   4.698   0.772  17.151 -0.3322  0.0271  0.1369
10261TIP3    H152274   4.617   0.728  17.178 -0.7614  0.8072  0.1420
10261TIP3    H252275   4.669   0.846  17.097  0.4007  0.0331 -0.2675
10262TIP3   OH252276   3.374   3.946  13.938 -0.3377  0.6847 -0.1786
10262TIP3    H152277   3.327   3.991  14.007  0.2366  0.1812  0.5515
10262TIP3    H252278   3.342   3.986  13.857 -2.4873 -0.0364  0.2334
10263TIP3   OH252279   0.902   4.422  16.403  0.4845  0.4075  0.3852
10263TIP3    H152280   0.812   4.425  16.435  0.0119  1.5291 -0.9670
10263TIP3    H252281   0.919   4.509  16.368  1.4646 -0.3047 -1.0389
10264TIP3   OH252282   1.645   0.674   5.106 -0.2790  0.4792 -1.1137
10264TIP3    H152283   1.674   0.592   5.066 -0.2524  0.3873 -0.9047
10264TIP3    H252284   1.697   0.683   5.185 -0.0339  0.8780 -1.3173
10265TIP3   OH252285   3.783   5.132   3.696 -0.2531  0.3836 -0.3501
10265TIP3    H152286   3.799   5.211   3.643 -1.7227 -0.4357 -2.1103
10265TIP3    H252287   3.730   5.163   3.770 -0.0699  1.1824 -0.5441
10266TIP3   OH252288   3.697   5.885  12.352  0.1196 -0.2843 -0.3716
10266TIP3    H152289   3.684   5.822  12.282  1.1483 -0.5257 -0.3629
10266TIP3    H252290   3.713   5.968  12.307  0.1549 -0.3130 -0.4126
10267TIP3   OH252291   5.288   0.285   2.602 -0.4893  0.5326  0.5325
10267TIP3    H152292   5.297   0.308   2.695  0.9494 -0.5161  0.7024
10267TIP3    H252293   5.195   0.268   2.591 -0.8131  1.4816  1.5800
10268TIP3   OH252294   6.557   5.423  11.474 -0.5781  0.1111 -0.1814
10268TIP3    H152295   6.631   5.456  11.423 -1.2314 -0.0438 -1.2692
10268TIP3    H252296   6.482   5.429  11.414 -1.5066  0.5141  0.9781
10269TIP3   OH252297   3.356   3.755   5.005  1.0450 -0.1966  0.3533
10269TIP3    H152298   3.280   3.698   4.993  1.2660 -0.4452  0.1447
10269TIP3    H252299   3.401   3.754   4.921  0.7876  0.6715  0.1932
10270TIP3   OH252300   5.779   2.745   5.203  0.2162  0.3949  0.3241
10270TIP3    H152301   5.835   2.816   5.235  0.5467 -0.0225  0.6876
10270TIP3    H252302   5.813   2.666   5.246  0.6422 -0.1827 -1.0328
10271TIP3   OH252303   3.296   6.627  15.173  0.4107  0.4355 -0.6481
10271TIP3    H152304   3.342   6.542  15.176 -0.2756  0.0742  2.0414
10271TIP3    H252305   3.351   6.685  15.225 -0.2095  1.0455 -0.6678
10272TIP3   OH252306   4.540   5.229  11.300 -0.5263 -0.9295 -0.1182
10272TIP3    H152307   4.533   5.214  11.206 -1.4172 -1.2714 -0.0079
10272TIP3    H252308   4.592   5.309  11.307 -2.1530  0.2621 -0.9837
10273TIP3   OH252309   1.209   1.535  15.095 -0.3796  1.0851 -0.0917
10273TIP3    H152310   1.120   1.568  15.083 -0.8913 -0.4059 -0.6538
10273TIP3    H252311   1.252   1.602  15.147 -2.0645  1.4743  0.8875
10274TIP3   OH252312   6.285   1.469  14.426 -0.7134 -0.0035  0.0615
10274TIP3    H152313   6.372   1.474  14.464 -1.0233 -1.1087  0.9720
10274TIP3    H252314   6.298   1.485  14.332  0.4614 -0.1545  0.1909
10275TIP3   OH252315   0.293   0.956  16.543  0.6465  0.5117 -0.2267
10275TIP3    H152316   0.323   1.008  16.469  0.7723  0.4685 -0.2059
10275TIP3    H252317   0.373   0.922  16.583  0.5413 -0.0981 -0.5319
10276TIP3   OH252318   0.896   4.327  11.670 -0.2976  0.2265  0.4219
10276TIP3    H152319   0.862   4.298  11.585 -0.1828  0.8674  0.1515
10276TIP3    H252320   0.941   4.250  11.705 -1.0647 -0.2930  0.2826
10277TIP3   OH252321   5.210   5.488  11.444 -0.0503  0.3073 -0.3311
10277TIP3    H152322   5.289   5.541  11.432  0.0785  0.4177  0.8046
10277TIP3    H252323   5.184   5.506  11.535  0.2892 -1.9486  0.2729
10278TIP3   OH252324   5.372   1.163  13.530 -0.0404  0.2621 -0.4962
10278TIP3    H152325   5.280   1.187  13.517  0.1240 -0.0181 -2.5559
10278TIP3    H252326   5.368   1.072  13.560 -0.4413  0.2718 -0.5094
10279TIP3   OH252327   4.471   2.381  14.083  0.3788 -0.3592  0.4477
10279TIP3    H152328   4.544   2.406  14.140  2.5253  0.0099 -2.2333
10279TIP3    H252329   4.438   2.464  14.049 -1.3208 -0.5333  1.5688
10280TIP3   OH252330   2.461   2.811   1.360 -0.0904  0.3336  0.0420
10280TIP3    H152331   2.410   2.740   1.400 -0.0753 -0.5629 -1.4881
10280TIP3    H252332   2.467   2.877   1.430  0.9898 -1.6499  1.9692
10281TIP3   OH252333   0.739   4.843   0.853  0.1045 -0.4360  0.4596
10281TIP3    H152334   0.810   4.819   0.912  1.6758 -1.9228 -1.9005
10281TIP3    H252335   0.729   4.767   0.795 -3.0834 -0.0647  0.3536
10282TIP3   OH252336   2.307   1.703  14.647 -0.0121 -0.1432 -0.0808
10282TIP3    H152337   2.267   1.660  14.571  0.0535 -1.4079  0.5802
10282TIP3    H252338   2.366   1.768  14.609  0.4054 -1.1030 -1.1383
10283TIP3   OH252339   1.163   2.159  17.227 -0.2205 -0.1564  0.0849
10283TIP3    H152340   1.213   2.163  17.145 -0.1921  0.9077  0.1417
10283TIP3    H252341   1.083   2.110  17.204 -0.8216  1.2331 -0.9325
10284TIP3   OH252342   4.832   4.576   2.918  0.0514  0.0862 -0.5773
10284TIP3    H152343   4.743   4.611   2.914  0.1544  0.4365  0.0907
10284TIP3    H252344   4.829   4.498   2.862 -1.1401 -0.9201  0.8011
10285TIP3   OH252345   6.322   1.495  14.743 -0.0290  0.4004 -0.3862
10285TIP3    H152346   6.291   1.421  14.795  1.0609 -1.1778 -1.8650
10285TIP3    H252347   6.242   1.536  14.710 -0.7066 -1.8304 -1.7660
10286TIP3   OH252348   5.741   5.776  13.371  0.0879 -0.1642  0.2128
10286TIP3    H152349   5.694   5.692  13.370  1.5547 -1.0211  0.7521
10286TIP3    H252350   5.714   5.819  13.290 -2.2040 -0.2618  0.8437
10287TIP3   OH252351   3.306   2.266   3.722 -0.4721  0.0333  0.3935
10287TIP3    H152352   3.251   2.249   3.799 -2.7522  0.2622 -1.0983
10287TIP3    H252353   3.348   2.350   3.741 -1.9603  0.6983  0.9052
10288TIP3   OH252354   2.287   2.959  11.894 -0.3055 -0.7348 -0.1953
10288TIP3    H152355   2.278   3.054  11.892 -0.3542 -0.7443 -0.6592
10288TIP3    H252356   2.325   2.940  11.979 -1.8824 -0.4424  0.6073
10289TIP3   OH252357   5.137   0.076  14.761  0.0040  0.4608  0.2452
10289TIP3    H152358   5.118  -0.004  14.712 -0.9610  0.6525  0.2903
10289TIP3    H252359   5.066   0.083  14.824  0.0701  1.3546  0.2337
10290TIP3   OH252360   3.303   3.936  12.208  0.9023 -0.2723 -0.3509
10290TIP3    H152361   3.298   3.925  12.113  0.6491 -0.3696 -0.3287
10290TIP3    H252362   3.388   3.978  12.223  0.9065 -0.1777 -0.6279
10291TIP3   OH252363   4.049   5.245  13.857 -0.0063  0.0989  1.0052
10291TIP3    H152364   3.968   5.294  13.848  0.4828  0.5258 -2.5605
10291TIP3    H252365   4.117   5.312  13.871 -0.0178 -0.1210  2.2341
10292TIP3   OH252366   2.974   2.037   4.871  0.3952  0.3045 -0.3069
10292TIP3    H152367   2.920   2.069   4.944 -0.6676 -0.4593 -0.7244
10292TIP3    H252368   3.064   2.048   4.901 -0.0152  0.1591  1.0626
10293TIP3   OH252369   5.772   3.642  13.943  0.4772  0.5611  0.3312
10293TIP3    H152370   5.856   3.644  13.989  1.2263  1.6276 -1.0158
10293TIP3    H252371   5.783   3.576  13.875 -0.6513 -1.0585  1.6561
10294TIP3   OH252372   4.487   4.247  16.334  0.8836  0.0279  0.4024
10294TIP3    H152373   4.405   4.201  16.352 -0.0627  1.0681 -1.0504
10294TIP3    H252374   4.525   4.201  16.259  0.4676  0.8940 -0.3698
10295TIP3   OH252375   3.735   5.505   2.390 -0.2227  0.5833  0.6021
10295TIP3    H152376   3.759   5.412   2.386  1.0923  0.9361 -0.6616
10295TIP3    H252377   3.775   5.536   2.471 -1.0406 -0.0196  1.2621
10296TIP3   OH252378   1.468   3.494   2.904 -0.5621 -0.0811  0.5249
10296TIP3    H152379   1.557   3.519   2.931  0.1756 -0.5267 -1.3248
10296TIP3    H252380   1.459   3.403   2.931 -0.7493  0.1691  1.3461
10297TIP3   OH252381   4.875   3.348  13.130  0.3574  0.1212  0.0992
10297TIP3    H152382   4.870   3.366  13.223  3.6862 -0.1336  0.4485
10297TIP3    H252383   4.814   3.410  13.090  1.2019  2.4619  2.2115
10298TIP3   OH252384   1.576   3.272  14.206 -0.3809 -0.0292  1.2417
10298TIP3    H152385   1.510   3.237  14.267 -1.9205  1.4163  0.4722
10298TIP3    H252386   1.588   3.363  14.233 -0.6935  0.4862 -0.2504
10299TIP3   OH252387   2.676   2.393  11.962 -0.4359  0.3549 -0.0964
10299TIP3    H152388   2.690   2.315  12.014  0.6222  0.3330 -0.3868
10299TIP3    H252389   2.740   2.387  11.892 -0.0889  1.6547  0.0806
10300TIP3   OH252390   2.510   3.091  15.057  0.1190 -0.0699 -0.6553
10300TIP3    H152391   2.577   3.110  15.123 -0.8987  1.1213  0.0727
10300TIP3    H252392   2.499   2.996  15.062  0.4537 -0.0671  0.5033
10301TIP3   OH252393   1.078   0.456   2.173  0.1818 -0.2016 -0.5765
10301TIP3    H152394   1.125   0.377   2.202  0.0053  0.5915  2.1329
10301TIP3    H252395   1.007   0.466   2.237 -0.5380  1.5033 -1.5869
10302TIP3   OH252396   3.111   0.353   0.050  0.2546  0.0366  1.1557
10302TIP3    H152397   3.168   0.326   0.122  1.1097  1.0747  0.8900
10302TIP3    H252398   3.167   0.352  -0.027 -0.3794 -0.0306  0.6854
10303TIP3   OH252399   3.332   5.525   4.026  0.2003  0.2857 -0.5084
10303TIP3    H152400   3.260   5.462   4.017 -1.1025  1.7006 -0.4418
10303TIP3    H252401   3.411   5.472   4.015 -0.8568 -0.9665 -3.0690
10304TIP3   OH252402   0.734   1.902   2.225 -0.1212  0.4320  0.3492
10304TIP3    H152403   0.749   1.926   2.317  1.3033  1.6049 -0.1592
10304TIP3    H252404   0.650   1.943   2.203  0.1312  1.2042  0.7850
10305TIP3   OH252405   1.979   0.093  11.629  0.4034 -0.0850  0.2632
10305TIP3    H152406   2.050   0.057  11.682 -0.4579 -1.3702  0.5612
10305TIP3    H252407   1.921   0.019  11.613 -0.2409  0.6719 -1.0283
10306TIP3   OH252408   4.144   2.036  15.105 -1.1530  0.0763  0.2875
10306TIP3    H152409   4.212   2.043  15.038  0.9979 -1.8970  2.0838
10306TIP3    H252410   4.069   2.084  15.069  1.1167  2.2905 -1.8644
10307TIP3   OH252411   5.580   2.362  11.231  0.3120 -0.1879  0.1362
10307TIP3    H152412   5.561   2.419  11.157  1.2791  0.8466  0.6643
10307TIP3    H252413   5.503   2.306  11.238 -0.5114  0.8103 -0.6092
10308TIP3   OH252414   5.791   0.458   6.699  0.3939  0.6656  0.2906
10308TIP3    H152415   5.856   0.392   6.673  0.3710  0.6861  0.1818
10308TIP3    H252416   5.831   0.542   6.677  0.0445  0.6510 -0.4319
10309TIP3   OH252417   1.971   4.937  16.956  0.1058  0.3053  0.2829
10309TIP3    H152418   2.001   4.944  17.047  0.3485 -0.6405  0.2885
10309TIP3    H252419   1.959   4.843  16.942 -1.0566  0.5250 -0.3086
10310TIP3   OH252420   1.381   0.974  13.102  0.0387  0.2021 -0.1962
10310TIP3    H152421   1.471   0.995  13.077  0.3694 -1.2143 -0.2649
10310TIP3    H252422   1.362   1.031  13.176  1.0129  0.4501 -0.1326
10311TIP3   OH252423   2.876   4.730   1.354  0.2236  0.2239 -0.7297
10311TIP3    H152424   2.969   4.751   1.363  0.5007 -1.4911  0.8943
10311TIP3    H252425   2.835   4.769   1.432 -0.3446  0.4842 -1.1470
10312TIP3   OH252426   4.220   3.015  14.967 -0.1232  0.1199 -0.0125
10312TIP3    H152427   4.268   2.993  14.888 -1.9341 -0.2464 -1.0684
10312TIP3    H252428   4.141   2.961  14.963 -1.9093  2.5413  0.2674
10313TIP3   OH252429   4.610   1.926  11.956  0.3494  0.7164 -0.4164
10313TIP3    H152430   4.529   1.966  11.926  0.2410  0.2285 -0.7787
10313TIP3    H252431   4.608   1.837  11.921  0.4522  0.2921  0.6203
10314TIP3   OH252432   5.054   0.738  17.224  0.3168  0.5617 -0.2067
10314TIP3    H152433   5.029   0.709  17.312 -1.1887  1.7890 -0.1911
10314TIP3    H252434   5.015   0.825  17.216  0.5311  0.5172 -2.0465
10315TIP3   OH252435   3.118   5.362  10.784 -0.3788 -0.0670  0.0361
10315TIP3    H152436   3.198   5.317  10.814 -0.5589 -0.4004  0.0166
10315TIP3    H252437   3.150   5.425  10.720 -0.0400  0.3381  0.5942
10316TIP3   OH252438   6.216   1.476  13.216 -0.5084 -0.0159 -0.5961
10316TIP3    H152439   6.245   1.387  13.196  0.4517  0.4121 -1.1526
10316TIP3    H252440   6.120   1.472  13.210 -0.5280 -1.2005  0.2331
10317TIP3   OH252441   4.933   4.986   1.810 -0.6815  0.1631  0.2833
10317TIP3    H152442   4.894   5.068   1.843 -0.4334  0.5980 -0.4799
10317TIP3    H252443   5.023   5.010   1.788 -0.7739 -0.1814 -0.4719
10318TIP3   OH252444   5.007   5.448   5.225  0.3600  0.0117  0.4653
10318TIP3    H152445   5.001   5.510   5.298  0.0811  0.6382 -0.0810
10318TIP3    H252446   4.950   5.376   5.251 -0.4524  0.6397  0.4817
10319TIP3   OH252447   6.644   2.340  14.419 -0.0362  0.4405 -0.0565
10319TIP3    H152448   6.563   2.364  14.374 -0.9631  0.3778  1.5157
10319TIP3    H252449   6.660   2.249  14.392 -1.2724 -0.0259  0.6889
10320TIP3   OH252450   1.346   3.732   3.489  0.0488  0.0175 -0.2230
10320TIP3    H152451   1.253   3.732   3.468 -0.1776  3.1143  0.3826
10320TIP3    H252452   1.385   3.792   3.425  0.8205  2.3283  2.2198
10321TIP3   OH252453   6.195   1.174   6.174  0.0202 -0.0008  0.0466
10321TIP3    H152454   6.244   1.225   6.238  1.0198 -1.1189  0.2065
10321TIP3    H252455   6.177   1.091   6.217 -1.3686  0.0903 -0.2997
10322TIP3   OH252456   6.368   1.992   6.116  0.0403 -0.3435 -0.6279
10322TIP3    H152457   6.334   2.039   6.192  1.6244 -0.7957  0.4082
10322TIP3    H252458   6.329   2.036   6.041 -3.0312 -1.0326  0.4337
10323TIP3   OH252459   5.241   1.375  14.668  0.2490  0.3175 -0.0653
10323TIP3    H152460   5.277   1.317  14.600  0.4342 -0.6252  0.8212
10323TIP3    H252461   5.245   1.462  14.629  3.8480  0.3445  0.0614
10324TIP3   OH252462   1.625   0.713  13.909  0.2147 -0.9136  0.1449
10324TIP3    H152463   1.677   0.793  13.900  0.2611 -0.9279  0.2985
10324TIP3    H252464   1.622   0.677  13.820  0.0998 -0.6829  0.0560
10325TIP3   OH252465   1.951   4.180   1.583  0.5432  0.0604 -0.7778
10325TIP3    H152466   1.908   4.099   1.612  0.3310 -0.2176 -1.8124
10325TIP3    H252467   2.040   4.174   1.617  0.6512 -0.8092 -1.1874
10326TIP3   OH252468   0.159   4.006  12.922  0.1347  0.0003  0.2435
10326TIP3    H152469   0.089   4.003  12.856 -0.6598  1.0991  0.9977
10326TIP3    H252470   0.173   4.099  12.937  1.5177 -0.2125  0.3945
10327TIP3   OH252471   0.468   0.085   5.782  0.2920  0.0181 -0.0692
10327TIP3    H152472   0.529   0.022   5.744  0.9403  0.6138 -0.0218
10327TIP3    H252473   0.450   0.051   5.869 -0.5969 -0.9393 -0.6065
10328TIP3   OH252474   5.847   5.247   5.998 -0.4568 -0.1163 -0.2318
10328TIP3    H152475   5.851   5.342   5.991 -0.0881 -0.0959  0.2456
10328TIP3    H252476   5.923   5.223   6.051 -1.2776 -0.5719  0.7534
10329TIP3   OH252477   4.346   4.057  12.374 -0.2611  0.1672 -0.2768
10329TIP3    H152478   4.373   4.106  12.296 -0.9934 -1.4438 -1.6070
10329TIP3    H252479   4.251   4.058  12.371 -0.3106 -1.5808 -0.5605
10330TIP3   OH252480   1.813   5.967  15.628  0.0874  0.2562  0.0171
10330TIP3    H152481   1.723   5.998  15.625 -0.3957 -0.8681  1.2892
10330TIP3    H252482   1.822   5.909  15.553 -0.2635  0.3699 -0.1115
10331TIP3   OH252483   2.396   5.059   4.975 -0.0215  0.2493  0.3285
10331TIP3    H152484   2.466   5.114   4.939  1.9794 -1.1922  1.7922
10331TIP3    H252485   2.418   4.970   4.946 -0.9329 -0.3126  1.2851
10332TIP3   OH252486   4.840   6.720  11.609  0.1150 -0.0335  0.4517
10332TIP3    H152487   4.834   6.694  11.517  3.1871  0.2433  0.0475
10332TIP3    H252488   4.819   6.640  11.658 -1.1535 -0.2976 -0.4866
10333TIP3   OH252489   0.595   2.305   6.236 -0.7217 -0.2505  0.0443
10333TIP3    H152490   0.627   2.388   6.271 -1.1475  0.3208 -0.8834
10333TIP3    H252491   0.506   2.323   6.206 -0.3633 -0.6815 -1.3598
10334TIP3   OH252492   3.027   0.282   1.864 -0.7547  0.4728 -0.2926
10334TIP3    H152493   2.994   0.271   1.776 -0.3891 -0.2990 -0.3457
10334TIP3    H252494   3.101   0.221   1.870 -0.3867  0.9599  0.3418
10335TIP3   OH252495   2.174   0.259  15.401 -0.4382 -0.7900  0.0290
10335TIP3    H152496   2.129   0.274  15.317  1.1213 -3.5993 -1.4591
10335TIP3    H252497   2.144   0.173  15.429  0.2709 -0.5554  1.6145
10336TIP3   OH252498   6.587   2.613  13.927  0.7392 -0.0142 -0.0451
10336TIP3    H152499   6.603   2.660  13.845  1.2887 -1.3434 -0.7259
10336TIP3    H252500   6.606   2.521  13.906 -0.7168 -0.6265  1.1223
10337TIP3   OH252501   5.023   3.982   5.811 -0.0495 -0.2098  0.0844
10337TIP3    H152502   5.058   4.068   5.833 -0.3006 -0.3057  0.8915
10337TIP3    H252503   5.058   3.963   5.724  0.7983  0.2874  0.3070
10338TIP3   OH252504   4.055   5.312  10.565  0.4234 -0.0571 -0.2373
10338TIP3    H152505   3.964   5.285  10.575  0.1716  0.4546 -1.0982
10338TIP3    H252506   4.103   5.229  10.553  0.0144 -0.2963 -0.2433
10339TIP3   OH252507   5.435   0.558   5.776  0.4502  0.4548 -0.2134
10339TIP3    H152508   5.520   0.566   5.818  1.2915  1.1953 -1.9736
10339TIP3    H252509   5.453   0.562   5.682 -1.6753  2.2616 -0.6338
10340TIP3   OH252510   4.532   6.617  17.171  0.1771 -0.2680  0.1713
10340TIP3    H152511   4.466   6.675  17.208 -0.4110 -1.0323  0.3717
10340TIP3    H252512   4.514   6.532  17.213  1.6747 -0.3480  0.6872
10341TIP3   OH252513   5.297   0.884   2.620 -0.0719  0.0813 -0.0935
10341TIP3    H152514   5.239   0.808   2.629 -0.2464 -0.0550 -2.0447
10341TIP3    H252515   5.367   0.855   2.563 -0.5153  1.5737 -1.4675
10342TIP3   OH252516   1.813   5.026   2.143 -0.0118 -0.4039  0.3360
10342TIP3    H152517   1.799   5.108   2.190 -1.0989  1.0186 -2.2689
10342TIP3    H252518   1.747   4.967   2.179  1.5667 -0.6412  3.0966
10343TIP3   OH252519   3.324   6.427   5.975 -0.2874 -0.8379 -0.9664
10343TIP3    H152520   3.240   6.463   5.948  0.0182  1.6571  1.0107
10343TIP3    H252521   3.302   6.349   6.027 -1.2677 -1.0587 -1.6984
10344TIP3   OH252522   1.253   6.669   3.885 -0.2599  0.1890  0.3653
10344TIP3    H152523   1.215   6.743   3.836 -0.3197 -0.1211 -0.0630
10344TIP3    H252524   1.179   6.609   3.898  0.4801 -1.5498 -2.5478
10345TIP3   OH252525   5.206   1.520   0.939 -0.0047 -0.0282  0.0701
10345TIP3    H152526   5.243   1.432   0.943  2.5396  0.8999 -1.2372
10345TIP3    H252527   5.216   1.547   0.848  0.9555  2.2640  0.7824
10346TIP3   OH252528   4.776   3.893   5.878 -0.6725  0.0467 -0.3752
10346TIP3    H152529   4.742   3.964   5.933 -0.7842 -1.6686  1.9058
10346TIP3    H252530   4.868   3.916   5.863 -1.1411  1.5294 -1.2273
10347TIP3   OH252531   0.354   0.764   5.113 -0.1053 -0.2386  0.2003
10347TIP3    H152532   0.297   0.688   5.104  0.9414 -0.9865 -0.3168
10347TIP3    H252533   0.418   0.739   5.179 -0.0601  0.3849  0.3950
10348TIP3   OH252534   3.619   1.454  15.197 -0.3345  0.3081 -0.2137
10348TIP3    H152535   3.590   1.512  15.268 -1.5238 -1.0782  0.4718
10348TIP3    H252536   3.583   1.494  15.118  0.8364  1.7603 -0.0769
10349TIP3   OH252537   1.279   5.853   0.550  0.1149  0.2748 -0.1774
10349TIP3    H152538   1.374   5.842   0.548  0.0737 -0.2322  0.5463
10349TIP3    H252539   1.256   5.849   0.643 -0.5493  0.9858 -0.3003
10350TIP3   OH252540   4.261   5.797   0.008 -0.0800 -0.1620  0.1288
10350TIP3    H152541   4.174   5.776  -0.026  0.3705 -1.9470 -0.0230
10350TIP3    H252542   4.320   5.776  -0.064  0.5387  0.4890  0.4359
10351TIP3   OH252543   0.791   3.070   3.333 -0.1836  0.6086 -0.0919
10351TIP3    H152544   0.820   3.150   3.288 -0.4805  0.7268 -0.0775
10351TIP3    H252545   0.860   3.052   3.398  0.1110  0.5927 -0.4047
10352TIP3   OH252546   2.895   3.318   3.734  0.1422  0.3227 -0.1944
10352TIP3    H152547   2.829   3.310   3.666  0.3427  2.7969 -0.7576
10352TIP3    H252548   2.846   3.342   3.813  0.1039 -0.7438  0.1253
10353TIP3   OH252549   5.670   5.638  12.602 -0.2589 -1.0050  0.0324
10353TIP3    H152550   5.676   5.543  12.605  0.5021 -1.2340 -3.6119
10353TIP3    H252551   5.749   5.666  12.556 -0.3962  1.4439  1.1096
10354TIP3   OH252552   4.392   4.885  11.286  0.2496 -0.2451 -0.0340
10354TIP3    H152553   4.415   4.891  11.193  1.3040 -0.9976  0.1574
10354TIP3    H252554   4.296   4.884  11.287  0.1962  1.3143 -0.9915
10355TIP3   OH252555   5.249   3.533  14.099  0.4748 -0.6796 -0.2390
10355TIP3    H152556   5.317   3.556  14.162 -2.0886  0.1343  2.4537
10355TIP3    H252557   5.229   3.441  14.117  1.2638 -1.1136 -1.4765
10356TIP3   OH252558   6.424   0.529  10.672  0.4462  0.1569 -0.4729
10356TIP3    H152559   6.435   0.437  10.647  2.4802  0.1711  0.1884
10356TIP3    H252560   6.513   0.564  10.673  0.2350  1.0210  3.4293
10357TIP3   OH252561   3.398   6.690  16.001  0.3180 -0.3671  0.7180
10357TIP3    H152562   3.489   6.662  15.990  0.3961  0.7903 -2.4260
10357TIP3    H252563   3.350   6.609  16.018  1.4022 -1.6311 -1.7697
10358TIP3   OH252564   4.818   3.751  17.102 -0.1137 -0.0490  0.2191
10358TIP3    H152565   4.781   3.837  17.082  0.5407  0.5059  1.3065
10358TIP3    H252566   4.826   3.749  17.197  3.1956  0.1210  0.0563
10359TIP3   OH252567   4.123   6.701   5.604 -0.1908  0.4240 -0.3087
10359TIP3    H152568   4.138   6.759   5.679 -2.2642  0.2988  0.2558
10359TIP3    H252569   4.036   6.724   5.573  0.3030 -0.1055 -2.1954
10360TIP3   OH252570   1.530   3.858   4.785 -0.7099 -0.9509 -0.1166
10360TIP3    H152571   1.576   3.941   4.796 -0.2441 -1.2735  0.4827
10360TIP3    H252572   1.458   3.877   4.726 -0.3102 -0.2356 -0.3799
10361TIP3   OH252573   2.908   1.174  16.949  0.3379  0.2399  0.0610
10361TIP3    H152574   2.827   1.125  16.962  0.7761 -0.3189  0.7823
10361TIP3    H252575   2.882   1.266  16.958 -0.4277  0.1441 -0.9504
10362TIP3   OH252576   6.261   5.165   1.155  0.2207 -0.3132  0.2419
10362TIP3    H152577   6.303   5.079   1.154  1.0589  0.0881  0.2210
10362TIP3    H252578   6.312   5.217   1.093  0.5174  0.5718  1.1996
10363TIP3   OH252579   3.786   4.797   3.961 -0.2052 -0.0053  0.3320
10363TIP3    H152580   3.709   4.852   3.943  0.0426  0.6414  1.1794
10363TIP3    H252581   3.858   4.842   3.918 -0.3090 -0.6931 -0.5925
10364TIP3   OH252582   5.501   4.786  13.902 -0.1397  0.4740  0.0320
10364TIP3    H152583   5.538   4.847  13.838 -1.8978  1.1352 -0.4071
10364TIP3    H252584   5.407   4.796  13.893 -0.5301 -2.6452 -0.3569
10365TIP3   OH252585   2.738   0.368  13.358 -0.5089  0.0020 -0.0975
10365TIP3    H152586   2.717   0.323  13.276 -0.0082 -1.1816  0.3917
10365TIP3    H252587   2.656   0.367  13.407 -0.0717 -2.1957  0.7074
10366TIP3   OH252588   5.629   3.634   1.325  0.5226 -0.5101 -0.2972
10366TIP3    H152589   5.689   3.562   1.343  1.4891  0.4868  0.6240
10366TIP3    H252590   5.622   3.680   1.408 -1.1504 -0.3098 -0.5214
10367TIP3   OH252591   0.138   3.581  12.545 -0.6143 -1.0461  0.3359
10367TIP3    H152592   0.174   3.668  12.562 -0.1850 -0.5521 -2.6360
10367TIP3    H252593   0.100   3.555  12.629 -1.5295  2.3528  1.1487
10368TIP3   OH252594   4.780   6.255   5.233  0.6388  0.2669 -0.4590
10368TIP3    H152595   4.783   6.204   5.314 -0.5271 -2.1218 -1.7974
10368TIP3    H252596   4.872   6.273   5.213  1.0449 -0.6329  0.4894
10369TIP3   OH252597   6.388   2.938   1.447  0.4111  0.4874 -0.2059
10369TIP3    H152598   6.470   2.982   1.469  1.5695 -1.6228 -0.0581
10369TIP3    H252599   6.344   2.926   1.530  0.5447  0.5289 -0.1281
10370TIP3   OH252600   3.015   5.229   6.554  0.3384  0.3935 -0.9994
10370TIP3    H152601   3.042   5.279   6.477  1.9832 -2.9296 -2.7715
10370TIP3    H252602   3.096   5.218   6.605  0.0588 -0.6169 -0.7575
10371TIP3   OH252603   5.922   0.512  13.945 -0.4603 -0.0855  0.2551
10371TIP3    H152604   5.889   0.564  13.872  0.3000  0.7516  0.4896
10371TIP3    H252605   5.864   0.534  14.018 -0.0578  0.5561  0.3903
10372TIP3   OH252606   4.402   4.253  17.195  0.3880  0.1518  0.6100
10372TIP3    H152607   4.425   4.198  17.120 -1.9349  1.4907 -1.2215
10372TIP3    H252608   4.345   4.198  17.248  0.8068 -0.3003  0.5957
10373TIP3   OH252609   3.229   4.041  17.113  0.0531 -0.4826 -0.2491
10373TIP3    H152610   3.202   3.954  17.144 -0.2195 -0.5936 -0.7873
10373TIP3    H252611   3.312   4.057  17.158  0.0485 -0.9718 -0.0533
10374TIP3   OH252612   1.669   6.109   3.851 -0.3204  0.0834 -0.5640
10374TIP3    H152613   1.583   6.068   3.850 -0.3484  0.1318 -0.3005
10374TIP3    H252614   1.718   6.061   3.918 -0.8495  1.4632  0.8820
10375TIP3   OH252615   2.385   0.979  15.380  0.8843  0.2638 -0.1478
10375TIP3    H152616   2.373   1.073  15.392  0.0391 -0.0080  1.4842
10375TIP3    H252617   2.375   0.965  15.286  0.8504  1.7762 -0.3942
10376TIP3   OH252618   2.308   0.132  13.932  0.0596 -0.0217  0.0038
10376TIP3    H152619   2.230   0.083  13.957  0.3894 -0.8134 -0.4698
10376TIP3    H252620   2.285   0.223  13.946 -1.1226 -0.2160 -0.6069
10377TIP3   OH252621   5.884   2.334  13.943  0.2914 -0.3567  0.0432
10377TIP3    H152622   5.958   2.369  13.993 -0.0387  0.0337  0.2679
10377TIP3    H252623   5.847   2.411  13.899 -1.7992  0.0448  2.2727
10378TIP3   OH252624   6.268   1.287  14.905 -0.2159  0.4299  0.0671
10378TIP3    H152625   6.209   1.314  14.975  0.2097  0.4671  0.4146
10378TIP3    H252626   6.308   1.206  14.938  0.1053  0.5352 -0.0644
10379TIP3   OH252627   0.956   4.959   3.832  0.2136 -0.0086 -0.1993
10379TIP3    H152628   0.977   4.869   3.805  0.6413  0.1047 -0.2463
10379TIP3    H252629   0.877   4.980   3.783  0.1354 -0.3454 -0.2228
10380TIP3   OH252630   2.454   1.600   3.658 -0.5871 -0.3573 -0.3322
10380TIP3    H152631   2.405   1.520   3.673 -1.9614  0.3938 -0.6945
10380TIP3    H252632   2.523   1.575   3.596  0.5040 -1.7666  1.3377
10381TIP3   OH252633   6.664   2.753  13.644 -0.2509 -0.1095  0.4085
10381TIP3    H152634   6.575   2.723  13.624  0.5501 -2.3831 -0.0248
10381TIP3    H252635   6.673   2.834  13.593 -1.4792 -0.7929 -0.9887
10382TIP3   OH252636   2.029   6.666   3.161  0.0150 -0.0067  0.0525
10382TIP3    H152637   2.029   6.691   3.069  1.0644  0.1145  0.0677
10382TIP3    H252638   2.091   6.726   3.202 -1.4129  0.7997  1.1071
10383TIP3   OH252639   4.653   5.601   5.893  0.7196  0.2182  0.0735
10383TIP3    H152640   4.571   5.613   5.940  0.2866  0.8740 -0.8147
10383TIP3    H252641   4.627   5.576   5.805  1.4797  0.1667 -0.1443
10384TIP3   OH252642   0.477   2.661  13.687  0.0870  0.0241 -0.2599
10384TIP3    H152643   0.486   2.727  13.618  2.1002 -0.7887 -0.8337
10384TIP3    H252644   0.567   2.638  13.710 -0.5630 -1.8274  0.5948
10385TIP3   OH252645   5.913   2.862  15.749  0.4966  0.6418 -0.1608
10385TIP3    H152646   5.881   2.952  15.737  2.7551  1.5127 -0.1016
10385TIP3    H252647   5.903   2.845  15.842 -1.4724  0.1582 -0.4109
10386TIP3   OH252648   3.043   0.151  16.218  0.9195 -0.4035 -0.2998
10386TIP3    H152649   3.037   0.199  16.135 -0.2530 -0.8897 -0.5211
10386TIP3    H252650   3.134   0.120  16.221  1.6810  1.6860 -0.2080
10387TIP3   OH252651   5.594   0.392  17.057 -0.5645  0.2383  0.2699
10387TIP3    H152652   5.587   0.416  16.965  0.7459 -0.9885 -0.1854
10387TIP3    H252653   5.551   0.464  17.104  1.6211  2.5963 -1.0860
10388TIP3   OH252654   3.776   5.222   3.949 -0.2552  0.8417  0.1353
10388TIP3    H152655   3.811   5.173   4.024 -3.2863 -1.4256  0.2684
10388TIP3    H252656   3.801   5.313   3.966  1.3316  0.0620  2.5292
10389TIP3   OH252657   2.855   2.168  15.780  0.5896 -0.0322 -0.4740
10389TIP3    H152658   2.909   2.226  15.726  0.0892  3.0208  2.0378
10389TIP3    H252659   2.900   2.164  15.864 -1.8933  0.9308  1.0378
10390TIP3   OH252660   3.749   1.529  13.898  0.1694 -0.2964 -0.2793
10390TIP3    H152661   3.702   1.533  13.982  2.2205  0.6704  0.8897
10390TIP3    H252662   3.796   1.446  13.902  0.9681  0.1586 -0.0555
10391TIP3   OH252663   4.979   6.475   0.497 -0.2540 -0.7049  0.5022
10391TIP3    H152664   4.961   6.434   0.412  1.2347 -1.5281  0.5461
10391TIP3    H252665   4.952   6.410   0.562  1.1420 -1.2312  0.5887
10392TIP3   OH252666   3.432   0.191  10.737  0.3677 -0.3389 -0.4607
10392TIP3    H152667   3.387   0.179  10.821  1.5233 -1.7530  0.0050
10392TIP3    H252668   3.384   0.134  10.676 -1.4643  1.8678 -1.2352
10393TIP3   OH252669   5.100   4.766  12.752  0.2384 -0.0145  0.6100
10393TIP3    H152670   5.192   4.781  12.774 -0.4443  0.5546  3.4678
10393TIP3    H252671   5.102   4.724  12.666  2.9856  3.2812 -1.1979
10394TIP3   OH252672   1.177   2.840  15.917 -0.0596  0.3302  0.5564
10394TIP3    H152673   1.260   2.807  15.883 -1.0891  0.2036 -2.0786
10394TIP3    H252674   1.193   2.857  16.010  2.6166 -0.5489  0.3137
10395TIP3   OH252675   4.846   3.506  15.257  0.1681  0.1112  0.2842
10395TIP3    H152676   4.893   3.423  15.250 -0.8743 -0.4849  0.3378
10395TIP3    H252677   4.895   3.556  15.322 -0.8702 -1.5995  2.4934
10396TIP3   OH252678   0.852   2.913   6.819  0.7319  0.0315 -0.4086
10396TIP3    H152679   0.888   2.924   6.731 -0.2769  3.3261 -0.5487
10396TIP3    H252680   0.914   2.960   6.875  1.4854 -2.2173  0.7736
10397TIP3   OH252681   5.502   5.143   1.734 -0.8007  0.5834 -0.1411
10397TIP3    H152682   5.456   5.111   1.657  0.4486 -0.0926 -0.6377
10397TIP3    H252683   5.586   5.098   1.732 -0.9948 -0.0018  2.0091
10398TIP3   OH252684   4.911   2.395   5.668  0.2269  0.1806 -0.1191
10398TIP3    H152685   4.938   2.310   5.635 -0.0747 -0.6248  1.5805
10398TIP3    H252686   4.992   2.447   5.668  0.8208 -0.7184  0.5705
10399TIP3   OH252687   2.035   4.855  12.405 -0.3219 -0.2021  0.0566
10399TIP3    H152688   2.078   4.774  12.434 -0.0587 -0.0567  0.0766
10399TIP3    H252689   2.048   4.856  12.310  0.2199  0.1275  0.1309
10400TIP3   OH252690   5.124   5.876   6.284  0.1070  0.3964  0.2144
10400TIP3    H152691   5.162   5.937   6.347 -0.2154  0.2524  0.5614
10400TIP3    H252692   5.198   5.843   6.233  0.4090  0.3213  0.6942
10401TIP3   OH252693   2.921   6.794   3.404  0.3026 -0.7194 -0.0627
10401TIP3    H152694   2.947   6.745   3.481  0.5732  0.5422  0.6809
10401TIP3    H252695   2.928   6.886   3.431 -0.1129 -0.2696 -1.4194
10402TIP3   OH252696   4.257   4.863  14.917  0.0365  0.3818  0.3562
10402TIP3    H152697   4.305   4.937  14.953 -0.3005  0.2346  1.1277
10402TIP3    H252698   4.323   4.812  14.870  1.1064 -0.9022  3.0705
10403TIP3   OH252699   0.692   5.559  12.154 -0.1496  0.0219 -0.2900
10403TIP3    H152700   0.705   5.633  12.094 -3.0306  0.7345 -0.1935
10403TIP3    H252701   0.622   5.588  12.212 -0.6519 -2.4236  0.4319
10404TIP3   OH252702   5.485   0.968  13.747  0.1251  0.0473  0.2292
10404TIP3    H152703   5.573   0.932  13.747 -0.0852 -0.4936 -0.7536
10404TIP3    H252704   5.430   0.896  13.780 -0.2935 -0.5728 -1.7213
10405TIP3   OH252705   5.469   3.720  13.640 -0.1000  0.5386  0.6605
10405TIP3    H152706   5.449   3.708  13.733  1.3587 -0.6459  0.8457
10405TIP3    H252707   5.556   3.760  13.639 -0.0651  0.4507 -0.1988
10406TIP3   OH252708   1.278   5.428  14.806  0.1078  0.1405  0.0943
10406TIP3    H152709   1.295   5.522  14.816  0.6726  0.0281  0.2292
10406TIP3    H252710   1.234   5.421  14.722  0.8488  0.4463 -0.3351
10407TIP3   OH252711   2.497   4.981  15.783  0.1719 -0.1620 -0.0045
10407TIP3    H152712   2.534   4.899  15.749 -2.1383 -1.2891 -0.0218
10407TIP3    H252713   2.561   5.012  15.847  2.2943 -0.5984 -1.7962
10408TIP3   OH252714   0.616   3.759   4.476 -0.7230  0.8157  0.4651
10408TIP3    H152715   0.641   3.735   4.386 -0.5139 -1.3055  1.0142
10408TIP3    H252716   0.661   3.841   4.493  0.9953  0.1637 -0.6757
10409TIP3   OH252717   0.232   0.458   2.031  0.1913  0.2736  0.4032
10409TIP3    H152718   0.217   0.384   1.972 -0.2472 -0.1804  1.0657
10409TIP3    H252719   0.153   0.511   2.023  1.2233  1.6493 -1.4081
10410TIP3   OH252720   1.239   5.539   0.651 -0.4007  0.0596 -0.3347
10410TIP3    H152721   1.295   5.611   0.680 -1.4381  0.7085  0.1075
10410TIP3    H252722   1.291   5.493   0.585 -0.2414  2.0828 -1.7164
10411TIP3   OH252723   2.567   5.228  14.275 -0.1290  0.4225 -0.2448
10411TIP3    H152724   2.625   5.303  14.260 -0.5535  1.1923  1.6718
10411TIP3    H252725   2.620   5.152  14.250  1.6011  1.1302  1.0544
10412TIP3   OH252726   3.561   1.188  10.912 -0.1387 -0.6019 -0.4335
10412TIP3    H152727   3.515   1.176  10.829 -1.3021 -0.9237  0.2456
10412TIP3    H252728   3.493   1.212  10.975  0.8888  0.8228  0.1918
10413TIP3   OH252729   0.863   6.597  16.014 -0.1275  0.3307 -0.0616
10413TIP3    H152730   0.780   6.637  15.990 -0.7931 -0.9079  0.1039
10413TIP3    H252731   0.844   6.546  16.093  1.0050  0.7647  0.5132
10414TIP3   OH252732   2.647   5.444   2.239  0.0348 -0.2075 -0.4949
10414TIP3    H152733   2.709   5.372   2.246 -0.6304 -0.6286  2.3531
10414TIP3    H252734   2.695   5.520   2.272 -0.8005 -0.4757  1.4396
10415TIP3   OH252735   3.999   4.666  16.403  0.2368 -0.6761 -0.5218
10415TIP3    H152736   3.935   4.598  16.424 -1.0342  0.9735  1.3548
10415TIP3    H252737   3.983   4.688  16.311 -1.6464 -0.6023 -0.2049
10416TIP3   OH252738   5.002   3.458   4.562 -0.4609 -0.7719 -0.0504
10416TIP3    H152739   4.920   3.492   4.527 -0.0726  0.0996 -0.1453
10416TIP3    H252740   4.983   3.436   4.654 -0.1657  1.9338  0.7387
10417TIP3   OH252741   0.745   0.235   0.713 -0.2881  0.3814 -0.2840
10417TIP3    H152742   0.703   0.245   0.627 -1.9977  1.9904  0.6538
10417TIP3    H252743   0.732   0.143   0.735 -0.1738  0.0370 -1.5743
10418TIP3   OH252744   4.430   1.211   4.721 -0.6214  0.0128 -0.0475
10418TIP3    H152745   4.379   1.263   4.659  0.5641  0.5407 -0.5966
10418TIP3    H252746   4.364   1.160   4.769 -1.6396  0.4778 -0.9174
10419TIP3   OH252747   5.329   6.739  16.382 -0.0331 -0.5212  0.0292
10419TIP3    H152748   5.235   6.740  16.399  0.0146 -0.5381  0.2911
10419TIP3    H252749   5.370   6.731  16.468  0.2056 -0.6526 -0.0934
10420TIP3   OH252750   0.697   6.271  12.287 -0.2887 -0.1930  0.2296
10420TIP3    H152751   0.681   6.327  12.363 -0.4234 -1.2705  1.0194
10420TIP3    H252752   0.782   6.230  12.304  0.1806  0.3556 -0.7145
10421TIP3   OH252753   2.963   2.606  11.572  0.0421  0.6459  0.5936
10421TIP3    H152754   3.029   2.671  11.597  1.4902 -0.6069  0.1937
10421TIP3    H252755   3.002   2.560  11.497 -0.7544 -0.9397  1.1109
10422TIP3   OH252756   5.735   6.341  16.272 -0.1191 -0.2925  0.4114
10422TIP3    H152757   5.794   6.375  16.204  1.1683  1.2868  2.2012
10422TIP3    H252758   5.654   6.392  16.261  0.4774  0.7509  0.7106
10423TIP3   OH252759   1.135   1.919   2.452  0.3493  0.2521 -0.0759
10423TIP3    H152760   1.043   1.916   2.425  0.5252  1.6797 -0.9197
10423TIP3    H252761   1.168   2.001   2.415  1.4362  0.7909  1.9459
10424TIP3   OH252762   2.379   3.268  17.150  0.7850 -0.1713  0.8589
10424TIP3    H152763   2.413   3.242  17.235  1.6075 -0.7301  0.3776
10424TIP3    H252764   2.327   3.193  17.120  0.5266  0.0086  0.8480
10425TIP3   OH252765   3.652   6.276  12.432  0.1250  0.1266 -1.0216
10425TIP3    H152766   3.602   6.356  12.450  1.3672  0.8780 -0.7715
10425TIP3    H252767   3.586   6.213  12.402 -0.8401  1.3563 -1.6011
10426TIP3   OH252768   1.978   1.295   2.843 -0.6478 -0.3438 -0.5564
10426TIP3    H152769   1.981   1.291   2.939  0.8110  0.3801 -0.5536
10426TIP3    H252770   2.005   1.384   2.822  0.4807 -0.9297 -1.6884
10427TIP3   OH252771   2.611   4.537   3.458  0.3241  0.2095 -0.1864
10427TIP3    H152772   2.558   4.552   3.536 -0.5457  1.4013 -0.9737
10427TIP3    H252773   2.696   4.574   3.479 -0.0383  0.9279  0.0419
10428TIP3   OH252774   6.434   3.650  11.656  0.4166  0.4062 -0.3850
10428TIP3    H152775   6.356   3.688  11.615 -0.3454  1.3235  1.7317
10428TIP3    H252776   6.460   3.715  11.722  0.1829 -1.8753  2.1299
10429TIP3   OH252777   5.806   3.681  15.810  0.4022 -1.1254 -0.3034
10429TIP3    H152778   5.879   3.717  15.861 -0.7381  1.6546 -0.4905
10429TIP3    H252779   5.759   3.626  15.873  1.4418 -1.2286  0.4171
10430TIP3   OH252780   6.236   4.380   0.198 -0.1471 -0.6640  0.4292
10430TIP3    H152781   6.326   4.392   0.167 -0.0462 -0.9090  0.6261
10430TIP3    H252782   6.186   4.365   0.118 -0.2362  0.7457  0.1971
10431TIP3   OH252783   4.200   4.927   4.511 -0.2099 -0.7164  0.0880
10431TIP3    H152784   4.120   4.970   4.541 -1.3246 -2.7629  0.2387
10431TIP3    H252785   4.175   4.886   4.428  0.7249 -1.2905  0.0739
10432TIP3   OH252786   4.778   2.939   4.090 -0.1125  0.3186  0.3945
10432TIP3    H152787   4.818   2.993   4.021  0.1692  0.3973  0.6173
10432TIP3    H252788   4.808   2.850   4.071 -0.5913  0.2373  0.0164
10433TIP3   OH252789   1.178   6.733  16.886  0.3735  0.4465 -0.1057
10433TIP3    H152790   1.158   6.667  16.952  1.0608  0.5529  0.2076
10433TIP3    H252791   1.259   6.773  16.915  0.3258  0.9576 -0.6632
10434TIP3   OH252792   3.333   0.343   0.214 -0.1137  1.0125 -0.0529
10434TIP3    H152793   3.392   0.368   0.143  0.0236 -0.9447 -0.6859
10434TIP3    H252794   3.391   0.314   0.285 -0.2096 -1.2213 -0.7910
10435TIP3   OH252795   0.967   2.418  16.546 -0.5839  0.7856  0.7940
10435TIP3    H152796   0.952   2.324  16.542  2.5324  0.1625  0.6779
10435TIP3    H252797   0.946   2.442  16.636  0.4330 -0.4803  1.4142
10436TIP3   OH252798   0.280   5.911   4.243  0.1631  0.4490 -0.1609
10436TIP3    H152799   0.247   5.948   4.325  0.7879 -2.6248  1.6386
10436TIP3    H252800   0.354   5.967   4.219  0.1504  1.2592  1.5453
10437TIP3   OH252801   1.754   3.686  15.644  0.0854  0.1948  0.2356
10437TIP3    H152802   1.792   3.616  15.590  0.8310 -0.5256  1.6164
10437TIP3    H252803   1.693   3.731  15.587  0.7583 -0.6062 -1.1579
10438TIP3   OH252804   1.324   6.304  16.225  0.0150  0.0799  0.2772
10438TIP3    H152805   1.301   6.288  16.317  2.5329 -1.5829  0.7092
10438TIP3    H252806   1.294   6.225  16.180 -0.5583  0.5810 -0.2344
10439TIP3   OH252807   0.588   6.403   0.430  0.0065  0.1693 -0.0881
10439TIP3    H152808   0.629   6.461   0.365  1.1391 -1.4524 -0.8858
10439TIP3    H252809   0.613   6.440   0.514  1.3473  0.4450 -0.5761
10440TIP3   OH252810   1.623   0.114   4.863  0.0730  0.1567  0.6060
10440TIP3    H152811   1.590   0.035   4.820  1.1631  0.4443 -0.8700
10440TIP3    H252812   1.719   0.105   4.857  0.2086  1.5858  0.3950
10441TIP3   OH252813   5.945   4.875  14.231  0.0632  0.5550  0.3740
10441TIP3    H152814   5.938   4.930  14.153  1.9059  1.0273  0.4778
10441TIP3    H252815   6.014   4.916  14.283  1.0515 -1.4423  0.7788
10442TIP3   OH252816   4.711   4.346  17.014  0.7941 -0.1388 -0.0323
10442TIP3    H152817   4.632   4.338  16.960  0.4834 -2.1994  0.6395
10442TIP3    H252818   4.773   4.393  16.959 -0.1838 -0.3710 -1.3981
10443TIP3   OH252819   6.571   5.887   5.672 -0.2585 -0.1939  0.2229
10443TIP3    H152820   6.515   5.848   5.604  1.9758 -2.4088 -0.5326
10443TIP3    H252821   6.634   5.940   5.624 -0.9717  1.3967  0.9677
10444TIP3   OH252822   0.114   3.774   0.752  0.3236  0.3422 -0.0791
10444TIP3    H152823   0.145   3.690   0.718 -1.2859  0.1915 -1.3041
10444TIP3    H252824   0.116   3.764   0.847  0.9193 -0.7963 -0.1988
10445TIP3   OH252825   5.018   1.595   0.497  0.2246  0.6100  0.0292
10445TIP3    H152826   5.104   1.588   0.539  0.5907 -0.0784 -0.8027
10445TIP3    H252827   4.967   1.651   0.555  1.2714  1.1116  0.4770
10446TIP3   OH252828   3.153   1.979  13.969  0.2964 -0.6074 -0.0463
10446TIP3    H152829   3.060   1.960  13.967  0.3028 -0.7470  0.6389
10446TIP3    H252830   3.194   1.898  14.000  0.5799 -0.3474  0.2758
10447TIP3   OH252831   2.323   6.681  13.596 -0.7814  0.6420 -0.4669
10447TIP3    H152832   2.360   6.626  13.665  1.0913  0.2287 -1.7219
10447TIP3    H252833   2.245   6.634  13.566 -0.9786  0.2730  0.5689
10448TIP3   OH252834   1.949   4.283   2.693  0.1269  0.0593  0.0207
10448TIP3    H152835   1.917   4.234   2.617  0.0722 -1.3251  0.8879
10448TIP3    H252836   2.018   4.339   2.658 -1.6150  1.4037 -1.4852
10449TIP3   OH252837   4.766   2.930  13.610 -0.3522  0.1651 -0.0995
10449TIP3    H152838   4.773   2.900  13.700 -2.4355 -3.0823 -0.8560
10449TIP3    H252839   4.734   3.020  13.617  3.0997  1.4367  2.3126
10450TIP3   OH252840   0.346   2.092   3.550 -0.2878  0.5009 -0.0721
10450TIP3    H152841   0.360   2.112   3.458 -0.9356  0.2769 -0.2286
10450TIP3    H252842   0.258   2.125   3.568  0.2127  1.4538  0.7325
10451TIP3   OH252843   1.528   0.413   0.323 -0.4815 -0.4275  0.0415
10451TIP3    H152844   1.495   0.438   0.410 -0.4093  0.8649 -0.2888
10451TIP3    H252845   1.608   0.364   0.342 -0.7147 -0.5695  0.7167
10452TIP3   OH252846   6.561   4.469  12.936 -0.4276  0.3386  0.1120
10452TIP3    H152847   6.596   4.494  12.850 -0.4635  0.8117  0.2322
10452TIP3    H252848   6.612   4.519  12.999  0.4656 -0.9587  0.4692
10453TIP3   OH252849   4.724   2.363  15.767 -0.5813 -0.1909 -0.0786
10453TIP3    H152850   4.799   2.350  15.709  0.3425 -0.6760  1.1828
10453TIP3    H252851   4.669   2.286  15.752 -1.1706  0.4620 -1.4545
10454TIP3   OH252852   0.410   0.690  12.184  0.5030  0.0666  0.2698
10454TIP3    H152853   0.384   0.769  12.231  0.7414  0.4567 -0.2399
10454TIP3    H252854   0.333   0.633  12.188 -0.2259  0.9435 -0.6665
10455TIP3   OH252855   3.082   2.552   0.030 -0.2893  0.7225 -0.7867
10455TIP3    H152856   3.076   2.625  -0.031  2.0236  0.6511 -1.1864
10455TIP3    H252857   3.075   2.592   0.117 -0.0468  1.2942 -1.0280
10456TIP3   OH252858   5.664   3.936  14.935 -0.1478  0.6381  0.0585
10456TIP3    H152859   5.572   3.961  14.934  0.4509  3.2199  1.4699
10456TIP3    H252860   5.671   3.875  15.009 -0.8411 -0.4112 -0.6982
10457TIP3   OH252861   4.315   3.704   3.203 -0.4479 -0.0831  0.5152
10457TIP3    H152862   4.229   3.696   3.245 -0.3418  0.4657  0.8365
10457TIP3    H252863   4.363   3.627   3.233 -0.6558 -0.1286  0.7405
10458TIP3   OH252864   5.406   2.896   3.998 -0.1428 -0.9005  0.0452
10458TIP3    H152865   5.447   2.848   3.926 -1.7510 -0.1252 -1.4669
10458TIP3    H252866   5.474   2.902   4.065  1.9457 -0.3905 -1.9767
10459TIP3   OH252867   1.073   5.664  16.484 -0.2028  0.9673  0.4891
10459TIP3    H152868   1.082   5.742  16.428 -2.1151  1.9186  1.4187
10459TIP3    H252869   1.090   5.696  16.572  2.0780 -0.3832  0.6261
10460TIP3   OH252870   5.573   1.418   2.272  0.0925  0.1450  0.5001
10460TIP3    H152871   5.505   1.485   2.280  0.3379  0.3011  1.4016
10460TIP3    H252872   5.630   1.450   2.202  0.5298  1.1905  1.2918
10461TIP3   OH252873   2.681   2.296  15.095  0.0574 -0.0734 -0.2554
10461TIP3    H152874   2.765   2.321  15.055  0.1188  0.6403  0.3036
10461TIP3    H252875   2.675   2.350  15.174 -2.1447  1.8672 -1.6212
10462TIP3   OH252876   3.279   3.123  16.487  0.2367 -0.4043  0.3526
10462TIP3    H152877   3.327   3.040  16.495  0.5470 -0.2735 -0.1200
10462TIP3    H252878   3.210   3.105  16.423 -0.5352 -0.6714  1.2375
10463TIP3   OH252879   4.251   5.648  11.131 -0.4609 -0.2019  0.2850
10463TIP3    H152880   4.257   5.553  11.131 -4.3045 -0.5862  0.0497
10463TIP3    H252881   4.254   5.673  11.038  1.0791  0.0472  0.3657
10464TIP3   OH252882   1.509   0.503   4.400 -0.3645 -0.0503 -0.3851
10464TIP3    H152883   1.471   0.525   4.315  0.0614 -1.6173 -1.0270
10464TIP3    H252884   1.474   0.569   4.460 -2.0958  0.0640 -1.4304
10465TIP3   OH252885   0.443   2.218   3.225  0.4518 -0.0072 -1.0261
10465TIP3    H152886   0.378   2.149   3.218  0.2791  0.2872 -2.7409
10465TIP3    H252887   0.525   2.177   3.198  0.9942 -0.3212  0.9226
10466TIP3   OH252888   6.178   1.922  12.194  0.0496  0.2641  0.2373
10466TIP3    H152889   6.134   1.903  12.277 -1.0250 -0.5335 -0.4913
10466TIP3    H252890   6.165   2.016  12.182 -1.5068  0.0623  0.0486
10467TIP3   OH252891   2.769   5.351   5.642  0.0428 -0.0721 -0.4514
10467TIP3    H152892   2.862   5.342   5.664  0.3737 -0.6156 -1.9262
10467TIP3    H252893   2.755   5.445   5.634  0.8992 -0.0210 -1.7814
10468TIP3   OH252894   5.913   4.844   0.759  0.0715  0.6237  0.6701
10468TIP3    H152895   6.003   4.870   0.781  0.3828  0.6761 -0.5863
10468TIP3    H252896   5.902   4.872   0.668 -1.8333  2.2187  1.3227
10469TIP3   OH252897   4.841   4.312  14.622 -0.1254  0.5484  0.6554
10469TIP3    H152898   4.859   4.249  14.552  0.6094 -0.5253  1.7628
10469TIP3    H252899   4.927   4.349  14.644 -0.8219  4.3027 -2.0032
10470TIP3   OH252900   5.139   2.837   4.300 -0.0065 -0.3943  0.1055
10470TIP3    H152901   5.051   2.845   4.338 -0.1158 -0.9503 -0.0166
10470TIP3    H252902   5.191   2.902   4.346 -0.7054  0.6272 -0.4920
10471TIP3   OH252903   2.764   4.612   4.274 -0.1177 -0.1315 -0.0606
10471TIP3    H152904   2.749   4.704   4.294  0.2715  0.0677 -0.6472
10471TIP3    H252905   2.785   4.572   4.358  1.5214  0.6816 -0.0391
10472TIP3   OH252906   2.466   5.229  16.769  0.5656 -0.2820  0.4493
10472TIP3    H152907   2.479   5.314  16.726  0.8415 -0.0350  1.0037
10472TIP3    H252908   2.554   5.201  16.795  0.3006  0.1450  1.8900
10473TIP3   OH252909   0.148   4.957   1.846 -0.4506  0.4557  0.1090
10473TIP3    H152910   0.239   4.925   1.843 -0.4091  0.6429 -1.8400
10473TIP3    H252911   0.104   4.912   1.775 -2.0120  0.1467  1.2116
10474TIP3   OH252912   0.623   5.496   4.417 -0.0029  0.7945 -0.0946
10474TIP3    H152913   0.626   5.465   4.507  2.3381  0.5008 -0.2036
10474TIP3    H252914   0.684   5.438   4.370 -0.8824  1.1733 -1.7986
10475TIP3   OH252915   2.468   3.509  12.920 -0.9285  0.1295 -0.1421
10475TIP3    H152916   2.469   3.414  12.907 -0.7521  0.1292 -0.1287
10475TIP3    H252917   2.409   3.522  12.994  0.1310 -0.0861  0.7641
10476TIP3   OH252918   4.964   3.928   1.108  0.3713 -0.5272 -0.2022
10476TIP3    H152919   5.016   4.006   1.091  0.6219 -0.8353 -0.8841
10476TIP3    H252920   4.969   3.878   1.027 -2.3856  0.2304 -0.9433
10477TIP3   OH252921   5.706   4.737   4.665  0.1490 -0.4329  0.6948
10477TIP3    H152922   5.643   4.779   4.607 -0.6803 -0.7500  1.3364
10477TIP3    H252923   5.721   4.800   4.735  0.5729 -0.3505  0.5356
10478TIP3   OH252924   0.084   2.567   2.102  0.5072 -0.4430  0.0124
10478TIP3    H152925   0.171   2.543   2.070  0.5899  2.0715 -2.0435
10478TIP3    H252926   0.101   2.628   2.174  0.5643  1.0011 -1.1648
10479TIP3   OH252927   6.139   3.445  13.802 -0.0543 -0.1553  0.2649
10479TIP3    H152928   6.165   3.501  13.875  0.9291 -0.9672  0.5645
10479TIP3    H252929   6.044   3.452  13.799  0.0175  1.4016  0.3833
10480TIP3   OH252930   1.779   4.651   2.062 -0.1866  0.6383 -0.4753
10480TIP3    H152931   1.807   4.726   2.009 -1.7368  1.1420 -0.6326
10480TIP3    H252932   1.830   4.578   2.028  0.8249  1.4735 -0.8130
10481TIP3   OH252933   4.996   3.379   1.861 -0.5642 -0.5778 -0.4003
10481TIP3    H152934   4.946   3.427   1.928  0.1852 -0.8716  0.3898
10481TIP3    H252935   5.083   3.420   1.862 -0.7168 -0.1708 -1.6558
10482TIP3   OH252936   5.431   4.443   1.427 -0.1521  0.3891  0.5611
10482TIP3    H152937   5.422   4.470   1.336  1.0941  1.3161  0.6742
10482TIP3    H252938   5.469   4.356   1.423  1.7820  1.1939  0.1502
10483TIP3   OH252939   2.358   1.529   4.541 -0.7058  0.0827  0.6174
10483TIP3    H152940   2.425   1.576   4.491  0.2186 -2.0622 -0.2401
10483TIP3    H252941   2.277   1.575   4.519 -0.3413 -0.6138 -2.8090
10484TIP3   OH252942   2.547   3.778   1.635 -0.1726  0.0707 -0.1896
10484TIP3    H152943   2.582   3.754   1.721  2.4962  0.4204 -1.0628
10484TIP3    H252944   2.547   3.696   1.586 -2.5029 -0.2981  0.3247
10485TIP3   OH252945   0.470   4.318  12.940 -0.1172  0.2666 -1.1891
10485TIP3    H152946   0.521   4.249  12.983 -2.0676  0.1336  1.1408
10485TIP3    H252947   0.530   4.392  12.934  0.9177 -0.4622 -0.3087
10486TIP3   OH252948   0.818   0.548  11.762  0.2710 -0.1778  0.5962
10486TIP3    H152949   0.772   0.594  11.692  0.0452 -0.0934  0.7991
10486TIP3    H252950   0.764   0.471  11.779 -1.1927  1.2023  2.5844
10487TIP3   OH252951   1.511   1.104   0.846  0.5708  0.2155 -0.1044
10487TIP3    H152952   1.530   1.023   0.798  1.1806  0.2669  0.0500
10487TIP3    H252953   1.574   1.167   0.812  0.5289  0.4490  0.2533
10488TIP3   OH252954   0.403   5.574  10.884 -0.0687 -0.3064  0.3815
10488TIP3    H152955   0.421   5.657  10.838 -0.9544  0.6931  1.7482
10488TIP3    H252956   0.438   5.507  10.826  1.0171  1.0441 -0.6080
10489TIP3   OH252957   4.236   5.839  15.409 -0.2644  0.1340  0.0260
10489TIP3    H152958   4.201   5.778  15.344 -0.1545 -0.0912  0.1790
10489TIP3    H252959   4.271   5.783  15.479 -2.5601  0.3758  1.4529
10490TIP3   OH252960   1.724   5.054  14.473 -0.9154 -0.0394  0.4808
10490TIP3    H152961   1.803   5.082  14.427 -0.9536 -2.2074 -1.0490
10490TIP3    H252962   1.755   4.994  14.541 -1.0673  1.2423  1.7245
10491TIP3   OH252963   2.868   0.896   1.325 -0.0805  0.4560 -0.0574
10491TIP3    H152964   2.950   0.939   1.348  0.2607  0.4661 -1.2149
10491TIP3    H252965   2.879   0.872   1.233 -1.0600 -0.2769  0.0046
10492TIP3   OH252966   0.914   2.884   1.584 -0.6896 -0.2417 -0.0402
10492TIP3    H152967   0.912   2.969   1.628  2.5204 -1.5126  3.0943
10492TIP3    H252968   0.904   2.820   1.654 -0.5429 -2.4690 -1.9204
10493TIP3   OH252969   4.572   6.538   5.154 -0.4309  0.1663 -0.8758
10493TIP3    H152970   4.548   6.479   5.083  0.8157 -1.2283 -0.1913
10493TIP3    H252971   4.549   6.490   5.233  3.4324 -0.8863 -0.1901
10494TIP3   OH252972   3.943   0.804   2.052  0.3481  0.1333 -0.2430
10494TIP3    H152973   3.945   0.709   2.039 -0.1702  0.0647  0.1346
10494TIP3    H252974   3.899   0.838   1.974 -0.9126 -0.0939  0.3355
10495TIP3   OH252975   2.302   0.902  15.631  0.2326  0.5792  0.0123
10495TIP3    H152976   2.249   0.976  15.659  1.9300  1.3978  1.2710
10495TIP3    H252977   2.346   0.933  15.552 -0.6514  0.1223 -0.6763
10496TIP3   OH252978   3.161   4.093   3.295  0.7669  0.5575 -0.1177
10496TIP3    H152979   3.118   4.162   3.244  2.6528  0.6869 -1.6264
10496TIP3    H252980   3.254   4.110   3.285  1.2486 -1.1359  1.0473
10497TIP3   OH252981   4.727   3.882  14.129 -0.3936 -0.2697 -0.5795
10497TIP3    H152982   4.731   3.870  14.224  0.6549 -0.6010 -0.6483
10497TIP3    H252983   4.774   3.963  14.112 -1.0034  0.0489 -0.7814
10498TIP3   OH252984   5.232   4.998  11.113  1.0674 -0.0491  0.5021
10498TIP3    H152985   5.140   4.971  11.117  0.8984  0.1826 -1.1127
10498TIP3    H252986   5.239   5.071  11.174  0.4973 -0.9028  1.6181
10499TIP3   OH252987   6.678   5.944  15.153  0.2136 -0.7158 -0.3188
10499TIP3    H152988   6.643   5.858  15.131  0.1892 -0.9782  0.6619
10499TIP3    H252989   6.681   5.944  15.249  0.4462  0.2831 -0.3151
10500TIP3   OH252990   6.325   3.697  16.720  0.2875 -0.4300  0.3935
10500TIP3    H152991   6.336   3.649  16.802  1.0130  0.3346  0.7582
10500TIP3    H252992   6.259   3.763  16.740  0.6700 -0.0620  0.4452
10501TIP3   OH252993   3.869   1.347  15.804 -0.3810  0.3903  0.0274
10501TIP3    H152994   3.860   1.442  15.800 -1.8490  0.3611  1.3591
10501TIP3    H252995   3.798   1.314  15.749  0.1555  0.0494 -0.4721
10502TIP3   OH252996   2.638   2.834   0.473  0.4139 -0.9333  0.6586
10502TIP3    H152997   2.553   2.874   0.451  0.8411 -0.4114 -0.0872
10502TIP3    H252998   2.637   2.828   0.568  0.0966  0.3754  0.7631
10503TIP3   OH252999   5.282   5.361   5.139  0.5388 -0.3506  0.0629
10503TIP3    H153000   5.281   5.403   5.053 -1.0880  0.3933  0.3871
10503TIP3    H253001   5.196   5.383   5.177  0.9342 -1.2570  1.5839
10504TIP3   OH253002   5.715   3.217   3.757  0.2613 -0.0390 -0.6207
10504TIP3    H153003   5.682   3.268   3.683  1.8625 -0.3779 -1.6084
10504TIP3    H253004   5.725   3.128   3.723  2.6212  0.1472 -0.5345
10505TIP3   OH253005   1.612   4.007   5.782 -0.0090 -0.0715 -0.3497
10505TIP3    H153006   1.614   4.103   5.781  1.9108 -0.0490  0.7841
10505TIP3    H253007   1.529   3.985   5.741 -2.1066  2.1566  2.2772
10506TIP3   OH253008   5.044   3.987  15.303 -0.0161 -0.1447  0.1845
10506TIP3    H153009   4.997   4.054  15.353  1.3373  0.8210  0.2188
10506TIP3    H253010   5.023   3.904  15.347  0.2661  0.5526  1.6955
10507TIP3   OH253011   6.333   4.221   4.937  0.0631 -0.2353  0.0850
10507TIP3    H153012   6.388   4.150   4.970  0.1078  0.7844  2.4070
10507TIP3    H253013   6.254   4.177   4.905  0.8632 -1.4501 -0.3028
10508TIP3   OH253014   3.131   2.124   4.641 -0.0492  0.4488  0.5675
10508TIP3    H153015   3.092   2.063   4.705  2.1006 -1.2109  0.4026
10508TIP3    H253016   3.085   2.104   4.559  1.5577 -2.0913  0.1721
10509TIP3   OH253017   5.721   4.240   1.984 -0.5636 -0.1333 -0.2958
10509TIP3    H153018   5.689   4.167   1.931 -0.4256 -0.9785  0.7500
10509TIP3    H253019   5.642   4.290   2.006 -0.6443  0.1031 -1.1108
10510TIP3   OH253020   4.557   4.066   3.838 -0.2724  0.0911 -0.0313
10510TIP3    H153021   4.607   4.147   3.843  0.7713 -0.5583  0.3006
10510TIP3    H253022   4.616   4.004   3.794 -0.4108 -0.9572  1.2070
10511TIP3   OH253023   2.061   4.772  12.855  0.1855 -0.0636  0.2284
10511TIP3    H153024   2.150   4.807  12.852  0.0311  0.4768  1.4070
10511TIP3    H253025   2.008   4.842  12.893 -0.6669 -0.5248 -0.0785
10512TIP3   OH253026   1.095   1.198   0.309  0.2215 -0.0671 -0.5963
10512TIP3    H153027   1.086   1.259   0.236  0.8139 -0.2378 -0.8121
10512TIP3    H253028   1.124   1.252   0.383  1.0304 -0.1282 -0.8615
10513TIP3   OH253029   0.058   1.102  15.418 -0.2331 -0.1576  0.0472
10513TIP3    H153030   0.110   1.150  15.354 -0.7340  0.5926  0.1946
10513TIP3    H253031   0.121   1.071  15.482  0.3099 -1.0988 -0.9019
10514TIP3   OH253032   6.388   0.424   2.070  0.1214 -0.6857  0.1496
10514TIP3    H153033   6.354   0.504   2.110 -0.2631 -1.1969  0.8677
10514TIP3    H253034   6.335   0.354   2.107  2.5989 -1.6648  2.1895
10515TIP3   OH253035   5.699   2.661   2.739 -0.7018 -0.6522  0.3812
10515TIP3    H153036   5.730   2.667   2.829  1.6460 -1.0747 -0.3400
10515TIP3    H253037   5.615   2.615   2.746 -0.7480 -0.3543  2.3590
10516TIP3   OH253038   6.355   2.006   0.674  0.9675  0.1800  0.7918
10516TIP3    H153039   6.348   2.002   0.578 -0.6694 -3.0158  0.9306
10516TIP3    H253040   6.277   1.961   0.706  1.1691  1.6623  3.7010
10517TIP3   OH253041   2.353   1.879  11.398  0.3415  0.2952  0.2800
10517TIP3    H153042   2.326   1.836  11.317 -0.3038 -2.2235  1.7353
10517TIP3    H253043   2.424   1.824  11.431  2.7750  3.0088 -0.0408
10518TIP3   OH253044   5.739   1.284  16.197 -0.2623 -0.0461  0.5707
10518TIP3    H153045   5.670   1.218  16.195  0.6227 -1.0379  1.3362
10518TIP3    H253046   5.794   1.259  16.272  1.2712  0.3434 -0.3735
10519TIP3   OH253047   1.139   0.058  17.255 -0.5851  0.1447  0.2054
10519TIP3    H153048   1.218   0.055  17.201 -0.2927  0.6666  0.5863
10519TIP3    H253049   1.085  -0.015  17.224  0.1795 -0.4006  0.1542
10520TIP3   OH253050   0.550   2.652  11.660 -0.9816 -0.0457  0.0450
10520TIP3    H153051   0.586   2.727  11.708 -2.1504  0.4759  0.1292
10520TIP3    H253052   0.535   2.686  11.571 -0.9356 -0.3610 -0.0841
10521TIP3   OH253053   5.522   2.503   5.955 -0.6536 -0.3952 -0.7516
10521TIP3    H153054   5.461   2.539   5.890  0.0531 -2.0067 -2.3984
10521TIP3    H253055   5.468   2.446   6.009 -1.5485  2.0600  1.1397
10522TIP3   OH253056   0.853   3.788  16.059  0.1466 -0.5067  0.0397
10522TIP3    H153057   0.771   3.822  16.025  0.0576 -2.8990 -2.4023
10522TIP3    H253058   0.920   3.825  16.002  0.4132 -1.3486 -0.2038
10523TIP3   OH253059   3.809   4.202  12.363  0.0911 -0.1173  0.4726
10523TIP3    H153060   3.723   4.163  12.349 -0.1732  0.8158 -0.6522
10523TIP3    H253061   3.798   4.294  12.337  1.6908 -0.2337 -0.6982
10524TIP3   OH253062   2.139   4.963  13.216  0.2973  0.7289 -0.6263
10524TIP3    H153063   2.101   5.028  13.157  3.2023  1.7151 -1.5693
10524TIP3    H253064   2.194   5.013  13.275 -0.0740 -0.5744  0.8931
10525TIP3   OH253065   0.032   0.343   1.811  0.5012  0.7127  0.1005
10525TIP3    H153066   0.097   0.334   1.741 -1.5931  0.1350 -1.9116
10525TIP3    H253067  -0.053   0.337   1.766 -0.9883  1.8963  2.5173
10526TIP3   OH253068   4.141   0.331   4.678 -0.5075  0.3467 -0.0952
10526TIP3    H153069   4.192   0.254   4.653 -1.5741 -0.1859 -0.6885
10526TIP3    H253070   4.174   0.401   4.623  0.6146  0.3789  0.5939
10527TIP3   OH253071   6.753   4.050   3.160  0.2770 -0.1814 -0.0675
10527TIP3    H153072   6.841   4.070   3.189  0.5068 -0.8725 -0.2704
10527TIP3    H253073   6.700   4.123   3.191  1.0630  0.6757 -0.6840
10528TIP3   OH253074   3.146   4.312  12.336 -0.0817  0.9424 -0.3040
10528TIP3    H153075   3.211   4.273  12.395 -0.8468 -0.9161 -0.6119
10528TIP3    H253076   3.197   4.340  12.260  0.4990  0.4153 -0.1234
10529TIP3   OH253077   1.407   5.993   3.581 -0.0836  0.2648 -0.2808
10529TIP3    H153078   1.329   5.950   3.548 -1.5564  2.1441  0.5710
10529TIP3    H253079   1.422   6.066   3.521  1.0712 -0.1108 -0.4729
10530TIP3   OH253080   2.175   0.411   1.181 -0.3624 -0.1835 -0.1741
10530TIP3    H153081   2.211   0.422   1.093 -1.4541 -2.9112 -1.0636
10530TIP3    H253082   2.104   0.475   1.186  0.9006  1.3060 -0.5024
10531TIP3   OH253083   1.809   4.958  11.149  0.4938 -0.4121  0.4586
10531TIP3    H153084   1.777   5.043  11.119 -1.7839 -1.1873  0.4937
10531TIP3    H253085   1.864   4.927  11.078 -1.5129 -0.4238 -1.1637
10532TIP3   OH253086   1.098   2.541  15.566  0.4968 -0.2826  0.2890
10532TIP3    H153087   1.074   2.505  15.481 -0.1135  0.0235  0.3252
10532TIP3    H253088   1.190   2.516  15.578  0.7104  0.0163 -0.6400
10533TIP3   OH253089   5.802   1.637   3.718  0.1561 -0.0519  0.4054
10533TIP3    H153090   5.821   1.627   3.811 -0.8638 -0.9840  0.5334
10533TIP3    H253091   5.842   1.561   3.676  0.0790  0.0346  0.1718
10534TIP3   OH253092   1.440   2.868   6.291  0.1576 -0.0050 -0.3154
10534TIP3    H153093   1.399   2.820   6.363  0.0233  0.5651 -0.0066
10534TIP3    H253094   1.371   2.877   6.225  0.0399  0.1827 -0.1682
10535TIP3   OH253095   2.730   1.988  17.103 -0.4226  0.5499  0.4494
10535TIP3    H153096   2.712   2.044  17.178  1.4827  1.5273  0.2513
10535TIP3    H253097   2.740   2.048  17.029 -3.0750 -0.4400 -0.8575
10536TIP3   OH253098   6.190   3.227  12.417 -0.2790  0.0279 -0.2892
10536TIP3    H153099   6.106   3.225  12.373 -0.2210 -1.6762 -0.3902
10536TIP3    H253100   6.223   3.137  12.411  2.0424  0.8558 -1.2091
10537TIP3   OH253101   4.738   0.882   1.405 -0.1295  0.0871 -0.1015
10537TIP3    H153102   4.731   0.791   1.375  0.7926  0.0235 -0.1511
10537TIP3    H253103   4.781   0.928   1.332 -0.9511  0.6481 -0.2381
10538TIP3   OH253104   2.281   3.487  17.005 -0.5610 -0.6357  0.1007
10538TIP3    H153105   2.337   3.558  17.037 -0.0154 -0.6702 -0.7326
10538TIP3    H253106   2.312   3.410  17.052 -2.0140 -0.1411  1.9854
10539TIP3   OH253107   2.366   4.765   5.188 -0.0078  0.4059 -0.3112
10539TIP3    H153108   2.318   4.846   5.206  0.6386  0.7969 -0.3371
10539TIP3    H253109   2.329   4.734   5.105 -1.5538 -0.3225  0.5979
10540TIP3   OH253110   4.080   4.477   3.397  0.5736  0.2683  0.3324
10540TIP3    H153111   4.064   4.536   3.472 -2.2915 -2.3574  1.9914
10540TIP3    H253112   4.124   4.401   3.436  3.2237  0.6673 -1.5868
10541TIP3   OH253113   1.054   0.007  15.627  0.0507  0.9010  0.2000
10541TIP3    H153114   1.145  -0.023  15.636  0.2672  1.4646 -0.0647
10541TIP3    H253115   1.026  -0.026  15.542  0.7783  2.6658 -0.7654
10542TIP3   OH253116   3.116   3.138  15.618 -0.7289 -0.0005 -0.0982
10542TIP3    H153117   3.056   3.210  15.600 -1.0954 -0.7825 -2.3397
10542TIP3    H253118   3.203   3.174  15.603 -0.6480  0.8388  2.0935
10543TIP3   OH253119   5.438   3.081  16.974 -0.2212 -0.6546 -0.0470
10543TIP3    H153120   5.444   3.058  16.882 -1.0330 -1.0906 -0.0079
10543TIP3    H253121   5.421   2.997  17.018 -0.9996 -0.2987  0.3533
10544TIP3   OH253122   5.701   3.111  15.049 -0.2523  0.2083  0.3516
10544TIP3    H153123   5.663   3.025  15.070 -1.3224  1.0314  1.9856
10544TIP3    H253124   5.636   3.174  15.080  0.0155  1.6351 -1.7678
10545TIP3   OH253125   3.716   4.016  15.863 -0.0081  0.1596 -0.3447
10545TIP3    H153126   3.731   3.927  15.892  1.2731 -0.3811 -2.4380
10545TIP3    H253127   3.788   4.067  15.899 -1.0406  0.5280  1.3178
10546TIP3   OH253128   2.326   0.490   5.539 -0.2457 -0.0372  0.7453
10546TIP3    H153129   2.307   0.420   5.477  0.0871  0.1635  0.4128
10546TIP3    H253130   2.307   0.571   5.491 -0.4852  0.1040  1.0763
10547TIP3   OH253131   2.235   4.382  15.657  0.7050 -0.2882  0.0894
10547TIP3    H153132   2.166   4.317  15.668  1.6750 -1.4098 -0.1818
10547TIP3    H253133   2.202   4.460  15.700  0.0229 -1.3424  1.5683
10548TIP3   OH253134   2.337   2.344   3.470  0.0585 -0.1336  0.3723
10548TIP3    H153135   2.398   2.289   3.422  2.3399  2.3798  0.1374
10548TIP3    H253136   2.262   2.288   3.487  0.6139 -2.1895 -3.0088
10549TIP3   OH253137   4.819   4.675   3.398 -0.5815  0.0254  0.8851
10549TIP3    H153138   4.827   4.700   3.490  0.6153 -0.6549  0.9898
10549TIP3    H253139   4.844   4.753   3.349 -1.9805  0.6314  1.1123
10550TIP3   OH253140   3.826   1.923   3.037 -0.0322  0.7052 -0.0522
10550TIP3    H153141   3.810   1.856   2.970  1.9074  1.7119 -1.6437
10550TIP3    H253142   3.890   1.882   3.096  0.7253  0.9057 -0.7072
10551TIP3   OH253143   3.670   0.757  17.178 -0.3391 -0.5406  0.5333
10551TIP3    H153144   3.616   0.682  17.154  0.7128 -0.8699 -0.8891
10551TIP3    H253145   3.612   0.832  17.168 -1.2330 -1.0856  1.4034
10552TIP3   OH253146   2.230   1.324  10.928 -0.4513  1.2036 -0.5294
10552TIP3    H153147   2.205   1.416  10.917 -0.8187  1.1037 -0.5257
10552TIP3    H253148   2.323   1.322  10.904  0.1652  1.9718  1.5409
10553TIP3   OH253149   5.142   1.855  14.204  0.0079  0.0144 -1.0416
10553TIP3    H153150   5.128   1.919  14.134 -1.2297 -0.9068 -1.6638
10553TIP3    H253151   5.062   1.859  14.257  0.6255  0.1713 -0.1007
10554TIP3   OH253152   4.094   6.814   1.315  0.1314 -0.2236 -0.2835
10554TIP3    H153153   4.010   6.860   1.319  0.5146  0.4743 -0.0088
10554TIP3    H253154   4.125   6.813   1.405  2.0997  2.7864 -0.7586
10555TIP3   OH253155   0.200   2.524  11.262 -0.6321  0.6491 -0.1206
10555TIP3    H153156   0.240   2.564  11.185  1.1755  1.4034  1.1490
10555TIP3    H253157   0.135   2.588  11.290  1.4590  2.3097  1.2357
10556TIP3   OH253158   5.042   1.003   0.735 -0.7516 -0.0437  0.4403
10556TIP3    H153159   5.019   0.921   0.779  1.5160 -1.9416 -1.5726
10556TIP3    H253160   5.100   1.048   0.796 -0.9013 -0.6261  1.0226
10557TIP3   OH253161   2.243   6.650   2.670 -0.0756 -0.0600  0.0605
10557TIP3    H153162   2.259   6.674   2.579  0.5123  0.7841  0.3720
10557TIP3    H253163   2.306   6.580   2.688 -1.9126 -2.0343 -0.9042
10558TIP3   OH253164   0.757   3.251   5.479 -0.7029 -0.3250  0.6755
10558TIP3    H153165   0.726   3.230   5.391 -1.1108  0.9442  0.5075
10558TIP3    H253166   0.678   3.268   5.529 -0.4202  0.1470  0.9701
10559TIP3   OH253167   1.310   3.228   5.476  0.1308 -0.1408 -0.2226
10559TIP3    H153168   1.307   3.176   5.556  1.8264  1.1415  0.7643
10559TIP3    H253169   1.224   3.217   5.436 -0.8897 -0.5786  1.9458
10560TIP3   OH253170   6.667   3.296  12.292  0.1337  0.1558  0.9464
10560TIP3    H153171   6.630   3.232  12.353  1.0496 -0.2312  1.1077
10560TIP3    H253172   6.633   3.269  12.207 -0.2614  0.0361  1.1360
10561TIP3   OH253173   4.922   5.345   3.665  0.0544  0.2672 -0.0849
10561TIP3    H153174   4.975   5.378   3.737  0.4340  1.0024 -0.6983
10561TIP3    H253175   4.976   5.277   3.624  0.8248  1.4680 -1.1184
10562TIP3   OH253176   2.994   5.312   1.080  0.2229  0.6752 -0.2101
10562TIP3    H153177   3.068   5.323   1.020  1.8192  0.5739  1.6241
10562TIP3    H253178   2.984   5.397   1.121  0.9724  0.0698  1.3063
10563TIP3   OH253179   5.803   1.523   2.718  0.3473 -0.3679 -0.3999
10563TIP3    H153180   5.766   1.551   2.635  0.6276 -0.5529 -0.5896
10563TIP3    H253181   5.774   1.590   2.781  2.9018  1.7073 -1.2497
10564TIP3   OH253182   4.295   0.386   3.630  0.2575 -0.0208  0.1019
10564TIP3    H153183   4.369   0.437   3.663  0.7693 -1.4526  1.2872
10564TIP3    H253184   4.218   0.428   3.670  0.4740  0.9388 -0.4396
10565TIP3   OH253185   0.417   4.624   2.115 -0.0915  0.4254  0.3625
10565TIP3    H153186   0.476   4.659   2.182 -0.0531 -0.6596  0.9124
10565TIP3    H253187   0.332   4.664   2.134  0.1402  0.8894  0.4401
10566TIP3   OH253188   1.034   1.047   1.993  0.4869  0.6251  0.2198
10566TIP3    H153189   1.006   1.078   1.907  2.3087 -1.7006 -1.3511
10566TIP3    H253190   0.953   1.028   2.040 -0.5549  1.2875 -1.2447
10567TIP3   OH253191   4.380   3.315  13.900  0.1328 -0.2455  0.0262
10567TIP3    H153192   4.468   3.291  13.870  0.6791 -0.0711  1.3667
10567TIP3    H253193   4.321   3.259  13.851  0.9764 -0.1735 -1.1034
10568TIP3   OH253194   5.516   4.746  14.825 -0.2591  0.0688  0.0670
10568TIP3    H153195   5.506   4.782  14.737 -1.0759 -2.1868 -0.8476
10568TIP3    H253196   5.426   4.735  14.857 -0.0301 -0.6468  0.4970
10569TIP3   OH253197   3.630   2.299  14.291 -0.7711  0.4380  0.0165
10569TIP3    H153198   3.606   2.223  14.343  2.3515 -0.1920  0.7437
10569TIP3    H253199   3.623   2.270  14.200  0.7956 -0.9588  0.2901
10570TIP3   OH253200   1.048   5.481   6.021  0.0844 -0.0959  0.5185
10570TIP3    H153201   0.955   5.477   6.042  0.0115  0.3218  0.2962
10570TIP3    H253202   1.084   5.545   6.083  0.3329 -0.6539  0.9658
10571TIP3   OH253203   5.764   5.683   1.692  0.2373  0.2225  0.0212
10571TIP3    H153204   5.668   5.677   1.688  0.2285  0.6960 -0.6542
10571TIP3    H253205   5.791   5.697   1.601  0.9154  0.5395  0.2650
10572TIP3   OH253206   1.224   1.364  13.256 -0.2442  0.0128 -0.2427
10572TIP3    H153207   1.313   1.399  13.265 -0.0578  0.4290 -2.8846
10572TIP3    H253208   1.170   1.441  13.240 -0.9009 -0.3694  0.0849
10573TIP3   OH253209   5.854   4.441   1.497  0.1024 -0.0813  0.1507
10573TIP3    H153210   5.894   4.356   1.479 -0.7299 -0.1170 -1.8927
10573TIP3    H253211   5.849   4.483   1.411 -0.6245  1.5283  0.9444
10574TIP3   OH253212   0.747   5.687  12.815 -0.2117 -0.7386  0.3094
10574TIP3    H153213   0.734   5.594  12.831  0.5292 -0.6128  1.8957
10574TIP3    H253214   0.780   5.721  12.899 -0.7979  1.0056 -0.1200
10575TIP3   OH253215   5.581   4.822  13.249 -0.2920 -0.2008 -0.2907
10575TIP3    H153216   5.547   4.812  13.160 -1.2685  1.5032 -0.1425
10575TIP3    H253217   5.574   4.734  13.287 -1.7780 -0.5252 -1.2270
10576TIP3   OH253218   5.077   5.147   0.510  0.0880  0.3668 -0.1629
10576TIP3    H153219   5.080   5.051   0.511  1.1215  0.3318  2.8918
10576TIP3    H253220   5.033   5.170   0.592 -1.2322  2.5546 -1.4026
10577TIP3   OH253221   4.088   4.791   4.295 -0.4558 -0.1344  0.4053
10577TIP3    H153222   3.994   4.809   4.284 -0.4801 -0.5466 -0.1536
10577TIP3    H253223   4.091   4.703   4.331 -0.3038  0.3541  1.6244
10578TIP3   OH253224   1.310   2.422  13.490 -0.4290 -0.3475 -0.0588
10578TIP3    H153225   1.271   2.472  13.418 -0.4597  1.6091  1.2208
10578TIP3    H253226   1.378   2.369  13.450 -0.2644  0.8992 -1.4919
10579TIP3   OH253227   4.799   6.147   4.838  0.1462  0.0891 -0.2006
10579TIP3    H153228   4.783   6.110   4.925 -0.6971 -1.5593 -1.0088
10579TIP3    H253229   4.809   6.241   4.853  2.4798 -0.3860  1.9914
10580TIP3   OH253230   6.014   4.330  16.218 -0.2887 -0.0591 -0.7951
10580TIP3    H153231   6.108   4.333  16.198  0.2173 -0.9348  1.1513
10580TIP3    H253232   6.007   4.371  16.304 -1.5285 -1.0056 -0.4145
10581TIP3   OH253233   1.377   1.853   2.261 -0.0709 -0.0244  0.2671
10581TIP3    H153234   1.382   1.947   2.277  0.6768  0.1467 -0.8500
10581TIP3    H253235   1.414   1.842   2.173 -1.5971 -1.1784 -0.2665
10582TIP3   OH253236   3.905   5.243  13.234 -0.3338 -0.3035 -0.1915
10582TIP3    H153237   3.903   5.202  13.321  3.9273 -0.0942  0.1963
10582TIP3    H253238   3.921   5.171  13.173 -0.6933 -0.1159 -0.5171
10583TIP3   OH253239   2.619   5.825  13.147 -0.4299 -0.5061 -0.4151
10583TIP3    H153240   2.635   5.920  13.148 -0.7880 -0.4328 -1.1713
10583TIP3    H253241   2.624   5.799  13.239  3.1141 -0.3313 -0.4146
10584TIP3   OH253242   6.547   5.303  15.222 -0.0276  0.1179 -0.1579
10584TIP3    H153243   6.533   5.247  15.146  0.0505  0.5399 -0.4901
10584TIP3    H253244   6.493   5.265  15.291 -1.9047  0.9994 -1.0639
10585TIP3   OH253245   1.068   1.994  15.793  0.3190  0.6444 -0.0683
10585TIP3    H153246   1.062   2.089  15.792  0.2878  0.6392 -0.6799
10585TIP3    H253247   1.119   1.972  15.715 -0.5091  0.1082 -0.4744
10586TIP3   OH253248   6.706   6.536  13.373 -0.4582 -0.9205 -0.1509
10586TIP3    H153249   6.726   6.454  13.417 -0.6575 -0.1706  1.3924
10586TIP3    H253250   6.788   6.585  13.374 -0.6198 -0.6484 -0.0662
10587TIP3   OH253251   1.878   3.204   5.356 -0.2139 -0.3480 -0.4391
10587TIP3    H153252   1.913   3.117   5.370 -0.9381 -0.6020 -0.1513
10587TIP3    H253253   1.787   3.199   5.386  0.1761  0.9305  1.1720
10588TIP3   OH253254   4.489   4.316   4.170 -0.0800  0.2351  0.2711
10588TIP3    H153255   4.445   4.393   4.203 -0.2829 -0.6932  2.3218
10588TIP3    H253256   4.582   4.338   4.171 -0.1643  0.5707  0.4821
10589TIP3   OH253257   0.467   3.009  16.050  0.5302  0.2250 -0.3197
10589TIP3    H153258   0.434   3.039  15.965  2.0441  2.5788 -0.1575
10589TIP3    H253259   0.402   3.041  16.113 -0.9343 -2.0670 -0.5259
10590TIP3   OH253260   4.761   6.756  13.388  0.2732  0.4088 -0.1336
10590TIP3    H153261   4.746   6.777  13.296 -0.1736 -0.2795 -0.2246
10590TIP3    H253262   4.816   6.678  13.385  0.8271  0.7792  0.1938
10591TIP3   OH253263   0.949   6.515  10.943 -0.2885  0.5752 -0.5988
10591TIP3    H153264   0.932   6.507  10.849 -1.6822 -0.6379 -0.2881
10591TIP3    H253265   0.886   6.580  10.974 -0.7230  0.0366 -0.3202
10592TIP3   OH253266   6.387   5.328  11.136 -0.4782 -0.0067  0.0375
10592TIP3    H153267   6.356   5.327  11.046 -2.2904 -0.0968  0.6346
10592TIP3    H253268   6.437   5.246  11.145  0.1244  0.2267 -0.9894
10593TIP3   OH253269   6.109   6.792  14.758  0.5859 -0.2933 -0.2858
10593TIP3    H153270   6.144   6.855  14.695  0.0005  0.8697  0.5030
10593TIP3    H253271   6.069   6.847  14.826 -3.5204 -1.4451 -1.4854
10594TIP3   OH253272   2.874   0.998  13.890  0.3125  0.3744 -0.0837
10594TIP3    H153273   2.793   0.950  13.907  0.9423 -0.8898 -0.5446
10594TIP3    H253274   2.943   0.942  13.926  1.3486 -0.5648 -3.2117
10595TIP3   OH253275   4.945   4.298   1.685 -0.0754 -0.6328  0.1889
10595TIP3    H153276   4.987   4.312   1.770 -1.3176 -2.2474  1.1143
10595TIP3    H253277   4.852   4.287   1.705 -1.0260  2.3435 -1.7533
10596TIP3   OH253278   4.727   5.536  15.529 -0.3954  0.1422  0.3882
10596TIP3    H153279   4.658   5.470  15.528 -1.6365  1.4065 -0.2756
10596TIP3    H253280   4.797   5.499  15.474 -0.9522 -0.7334  0.2588
10597TIP3   OH253281   2.540   0.007  13.894  0.7988 -0.3096 -0.0067
10597TIP3    H153282   2.511  -0.083  13.900  0.6450 -0.5156 -2.5097
10597TIP3    H253283   2.461   0.059  13.908 -0.2767 -0.7807 -3.3837
10598TIP3   OH253284   1.821   1.280  17.186  0.0391 -0.0717 -0.0943
10598TIP3    H153285   1.890   1.343  17.163 -0.4894  0.9152  0.9236
10598TIP3    H253286   1.748   1.303  17.128 -0.5194  0.9793  0.9707
10599TIP3   OH253287   1.974   4.865   4.118 -0.5172  0.8569  0.3357
10599TIP3    H153288   2.027   4.889   4.043 -0.3333  1.0642  0.5294
10599TIP3    H253289   1.909   4.935   4.125 -0.3476  0.9916  0.5499
10600TIP3   OH253290   6.765   1.855  15.416  0.3164 -0.3491 -0.4813
10600TIP3    H153291   6.673   1.830  15.409  0.2668  0.1165 -1.7227
10600TIP3    H253292   6.764   1.936  15.468  0.1180 -0.7961  0.2240
10601TIP3   OH253293   0.327   5.543   2.894 -0.1436 -0.0760 -0.2191
10601TIP3    H153294   0.289   5.463   2.856 -0.7995  0.0901  0.0720
10601TIP3    H253295   0.254   5.605   2.898  0.2538  0.3896 -0.0198
10602TIP3   OH253296   3.317   2.909   2.624 -0.4281  0.0889 -0.2018
10602TIP3    H153297   3.403   2.937   2.592 -0.5826  1.9320  0.8773
10602TIP3    H253298   3.335   2.861   2.704 -0.3795  0.4478  0.0068
10603TIP3   OH253299   4.495   5.773  13.052  0.1904  0.2501 -0.5686
10603TIP3    H153300   4.495   5.678  13.035  0.1327  0.2892 -0.7896
10603TIP3    H253301   4.579   5.804  13.019  0.6936  0.1010  0.5306
10604TIP3   OH253302   5.369   4.762  12.803 -0.3561 -0.1656  0.5525
10604TIP3    H153303   5.415   4.749  12.886  0.8410  3.2306  0.5887
10604TIP3    H253304   5.436   4.746  12.737 -0.0835  1.2529  0.4600
10605TIP3   OH253305   2.122   2.560   0.145  0.3338  0.1015  0.1739
10605TIP3    H153306   2.164   2.478   0.168 -0.3550 -0.7596 -1.4828
10605TIP3    H253307   2.037   2.557   0.190 -0.1287 -0.5961 -0.7196
10606TIP3   OH253308   5.901   3.421  14.784 -0.1855 -0.2152  0.2812
10606TIP3    H153309   5.976   3.430  14.725  0.1113 -0.4670  0.6156
10606TIP3    H253310   5.901   3.501  14.837 -1.7539  1.0688 -1.5118
10607TIP3   OH253311   5.988   0.987  16.236  0.0900 -0.0619 -0.2485
10607TIP3    H153312   6.069   0.956  16.196 -0.7231 -0.4419 -1.6713
10607TIP3    H253313   5.924   0.919  16.216 -1.1106  1.2652 -1.1842
10608TIP3   OH253314   3.494   6.672  11.845  0.5037 -0.3297  0.2982
10608TIP3    H153315   3.575   6.656  11.894 -1.5667 -0.7235  3.8900
10608TIP3    H253316   3.501   6.613  11.769  2.2425 -2.7333  2.1680
10609TIP3   OH253317   3.871   3.888   2.731 -0.0846 -0.0238  0.2646
10609TIP3    H153318   3.852   3.978   2.702 -0.5069  0.1806  1.1294
10609TIP3    H253319   3.938   3.898   2.799  0.0485 -0.3883  0.1906
10610TIP3   OH253320   2.358   0.921   2.622  0.0959 -0.0988 -0.4843
10610TIP3    H153321   2.361   0.992   2.558  0.2766 -0.7257 -1.1865
10610TIP3    H253322   2.450   0.898   2.636  0.1571  0.9245  1.0362
10611TIP3   OH253323   0.626   2.138   5.762 -0.5859  0.0658 -0.2595
10611TIP3    H153324   0.592   2.049   5.751 -0.6258  0.1532 -0.8876
10611TIP3    H253325   0.558   2.183   5.812 -0.7052 -0.1725 -0.2046
10612TIP3   OH253326   5.294   1.228  15.978  0.3684 -0.1808 -0.1982
10612TIP3    H153327   5.298   1.322  15.997 -1.1918  0.1151 -1.1566
10612TIP3    H253328   5.315   1.222  15.885  1.1174 -0.8662  0.0066
10613TIP3   OH253329   3.427   4.219   3.004  0.1117  0.4416  0.1673
10613TIP3    H153330   3.474   4.209   2.921 -0.7489 -1.1649 -0.1821
10613TIP3    H253331   3.490   4.261   3.063  0.8268  1.3546 -1.2042
10614TIP3   OH253332   1.531   0.910   2.035  0.3314  0.4229 -0.0020
10614TIP3    H153333   1.548   0.899   2.129  1.9047  2.8766  0.0810
10614TIP3    H253334   1.447   0.956   2.031  0.4480  0.6547  0.2139
10615TIP3   OH253335   5.891   3.783   2.479  0.7321  0.6584  0.1585
10615TIP3    H153336   5.803   3.814   2.501  0.3352 -0.4673  0.2102
10615TIP3    H253337   5.908   3.815   2.391 -0.4936 -0.6691 -0.5934
10616TIP3   OH253338   2.651   2.605   4.716  0.0852 -0.1225 -0.1841
10616TIP3    H153339   2.598   2.556   4.778  1.4683 -1.2727  0.1591
10616TIP3    H253340   2.633   2.565   4.631 -0.5838  0.3814 -0.2888
10617TIP3   OH253341   0.261   4.505   2.409 -0.1405 -0.3410 -0.0245
10617TIP3    H153342   0.192   4.571   2.404 -0.9051 -1.1140  0.0934
10617TIP3    H253343   0.329   4.545   2.463 -0.8593  0.1193  0.5526
10618TIP3   OH253344   1.205   3.838  15.289  0.0567 -0.3607 -0.2431
10618TIP3    H153345   1.224   3.822  15.197 -0.6682 -0.9655 -0.3013
10618TIP3    H253346   1.243   3.762  15.335  1.4410  0.5049  0.0997
10619TIP3   OH253347   0.894   2.238  11.886 -0.5220 -0.2907  0.0153
10619TIP3    H153348   0.804   2.214  11.870 -1.1017  2.6226 -1.8660
10619TIP3    H253349   0.891   2.289  11.967 -0.4715 -0.5512  0.1838
10620TIP3   OH253350   3.780   4.889  12.336 -0.3650 -0.4851 -0.1573
10620TIP3    H153351   3.724   4.905  12.260 -2.2694  0.6820  1.3899
10620TIP3    H253352   3.868   4.908  12.305 -1.1268  0.3905 -1.9503
10621TIP3   OH253353   5.167   6.496  13.155 -0.7177 -0.0759  0.0044
10621TIP3    H153354   5.137   6.431  13.093  1.1463 -1.9962  0.9937
10621TIP3    H253355   5.156   6.455  13.241  1.8861  0.2440  0.5741
10622TIP3   OH253356   1.623   5.500   2.171  0.6085 -0.4559  0.0104
10622TIP3    H153357   1.631   5.432   2.104  2.0568 -1.0995  0.7987
10622TIP3    H253358   1.646   5.456   2.253 -3.5075 -0.3536  1.4337
10623TIP3   OH253359   0.251   3.691  10.561 -0.1897 -0.3955  0.8076
10623TIP3    H153360   0.198   3.759  10.519  0.3802 -0.3849  0.0665
10623TIP3    H253361   0.339   3.704  10.524  0.6842  0.4875  3.0492
10624TIP3   OH253362   5.234   3.174   1.470  0.4854  0.6005  0.1831
10624TIP3    H153363   5.150   3.130   1.481  1.9689 -2.0718  2.3018
10624TIP3    H253364   5.251   3.215   1.554  2.9334 -2.3621  1.3241
10625TIP3   OH253365   5.481   4.709   0.064  0.4308 -1.0896 -0.2843
10625TIP3    H153366   5.388   4.701   0.087  0.2973  0.2749 -0.2731
10625TIP3    H253367   5.484   4.780  -0.001  1.7631  1.0394  1.9295
10626TIP3   OH253368   4.878   6.802  16.409  0.0539 -0.3179 -0.1587
10626TIP3    H153369   4.838   6.727  16.364 -0.6736 -0.2847  0.4003
10626TIP3    H253370   4.968   6.804  16.377 -1.1887  1.7238 -4.2190
10627TIP3   OH253371   6.795   4.949  14.241  0.5839 -0.1089  0.3013
10627TIP3    H153372   6.789   4.879  14.306  0.0955 -0.5467 -0.2054
10627TIP3    H253373   6.748   5.023  14.281 -1.5276 -1.0277 -0.3791
10628TIP3   OH253374   1.775   0.162   4.532  0.2835  0.0994  0.5997
10628TIP3    H153375   1.793   0.087   4.589 -1.4036  0.2012  1.3233
10628TIP3    H253376   1.699   0.135   4.481  0.3681  0.8955  0.0426
10629TIP3   OH253377   4.740   4.652  16.288  0.0928  0.0780  0.1485
10629TIP3    H153378   4.689   4.691  16.217 -0.9935  1.2157  1.5155
10629TIP3    H253379   4.719   4.559  16.284  0.8293 -0.0637 -1.6226
10630TIP3   OH253380   2.074   3.329  13.351  0.0991 -0.3565 -0.0836
10630TIP3    H153381   2.015   3.325  13.276 -2.2330  2.0699  1.4399
10630TIP3    H253382   2.088   3.238  13.375 -1.3694 -1.0870 -1.7513
10631TIP3   OH253383   4.275   5.415   0.866 -0.2910 -0.0732  0.2239
10631TIP3    H153384   4.310   5.448   0.783  0.6121 -3.9933 -1.1566
10631TIP3    H253385   4.347   5.424   0.928 -0.0139  0.3308 -0.1479
10632TIP3   OH253386   2.106   3.471   4.948  0.2632  0.0851 -0.5487
10632TIP3    H153387   2.064   3.407   5.005  0.3901 -1.5367 -2.1578
10632TIP3    H253388   2.036   3.503   4.892  0.6429 -0.7206 -1.5371
10633TIP3   OH253389   5.822   2.406   1.560  0.4032  0.2631  0.5631
10633TIP3    H153390   5.874   2.467   1.507 -1.5096  0.7459 -0.8770
10633TIP3    H253391   5.876   2.328   1.566  1.4820  0.8743 -0.5222
10634TIP3   OH253392   0.295   3.707   0.225  0.1137  0.0652 -0.0829
10634TIP3    H153393   0.387   3.710   0.254  0.0124 -1.0894  0.4025
10634TIP3    H253394   0.294   3.758   0.144  1.2531 -0.2043 -0.2823
10635TIP3   OH253395   3.067   1.202   5.268  0.6280 -0.0987 -0.4087
10635TIP3    H153396   2.973   1.218   5.263  0.8824  2.2969  0.9727
10635TIP3    H253397   3.098   1.220   5.179 -0.1323 -0.3311 -0.7322
10636TIP3   OH253398   0.296   0.494  13.577  0.0615  0.0748  0.6313
10636TIP3    H153399   0.330   0.581  13.600 -0.1289  0.0816  0.8957
10636TIP3    H253400   0.248   0.508  13.496  1.2545 -0.0646 -0.1280
10637TIP3   OH253401   0.956   4.351  12.576  0.3642  0.3498 -0.9561
10637TIP3    H153402   0.913   4.373  12.658 -0.2211 -1.4824 -0.7252
10637TIP3    H253403   1.030   4.411  12.571  0.4197  0.4981  0.9271
10638TIP3   OH253404   4.679   6.186  13.743 -0.6032  0.5670 -0.0532
10638TIP3    H153405   4.612   6.246  13.774 -1.4168 -2.2636  4.6617
10638TIP3    H253406   4.756   6.205  13.797 -0.0011 -0.7852 -0.3921
10639TIP3   OH253407   0.996   0.052   3.439  0.0159  0.2468  0.4849
10639TIP3    H153408   0.925   0.047   3.375 -0.4614 -1.2798  1.0706
10639TIP3    H253409   1.065   0.100   3.395  0.5197 -2.5069 -2.0421
10640TIP3   OH253410   2.717   3.883   4.480  0.0286  0.3080  0.0542
10640TIP3    H153411   2.751   3.950   4.539 -0.4424  1.0867 -0.5383
10640TIP3    H253412   2.790   3.864   4.421  0.0336  0.6032 -0.0346
10641TIP3   OH253413   4.960   0.731   0.788  0.0601 -0.2209 -0.0544
10641TIP3    H153414   4.899   0.657   0.795 -0.3556 -0.0391 -1.4517
10641TIP3    H253415   4.983   0.734   0.695  1.5476  0.2497  0.3062
10642TIP3   OH253416   0.142   1.065  15.111  0.3565  0.7241 -0.8914
10642TIP3    H153417   0.189   1.080  15.193 -0.8979  0.0799 -0.0088
10642TIP3    H253418   0.184   0.989  15.072 -1.2567 -1.2631  1.0047
10643TIP3   OH253419   6.762   0.873  12.648 -1.0547 -0.4827  0.7561
10643TIP3    H153420   6.668   0.892  12.654 -1.0518  0.2841 -1.1997
10643TIP3    H253421   6.768   0.797  12.591 -0.5145 -1.1355  1.6501
10644TIP3   OH253422   6.768   1.246   5.381  0.3716 -0.1556 -0.3290
10644TIP3    H153423   6.858   1.240   5.412  0.0873 -0.6167  0.4251
10644TIP3    H253424   6.732   1.158   5.395 -0.4586  0.2591  0.1887
10645TIP3   OH253425   0.546   0.062   3.542  0.2388 -0.3831 -0.1070
10645TIP3    H153426   0.577  -0.002   3.478 -1.1332 -0.8469 -0.3491
10645TIP3    H253427   0.620   0.074   3.601  1.2797 -0.4993 -1.3413
10646TIP3   OH253428   4.961   6.082  12.183 -0.0546 -0.3379 -0.2274
10646TIP3    H153429   4.939   6.144  12.113 -1.1812 -2.0700 -1.5078
10646TIP3    H253430   5.057   6.074  12.178 -0.1568 -0.9089 -2.0582
10647TIP3   OH253431   2.232   4.823   3.330 -0.0101  0.1633 -0.0689
10647TIP3    H153432   2.287   4.860   3.261  0.7472  0.7899  0.8287
10647TIP3    H253433   2.145   4.818   3.292  0.5886 -0.5284 -1.4254
10648TIP3   OH253434   4.780   6.469   3.605 -0.0067  0.3381  0.5581
10648TIP3    H153435   4.854   6.412   3.586  1.8341  2.5671  0.5543
10648TIP3    H253436   4.732   6.474   3.522  1.8933  1.5979 -0.5498
10649TIP3   OH253437   2.706   1.577  16.312  0.2754 -0.0450 -0.4688
10649TIP3    H153438   2.723   1.484  16.329 -0.7242 -0.5863 -2.2123
10649TIP3    H253439   2.791   1.619  16.324  0.3306 -0.7956  2.4617
10650TIP3   OH253440   6.518   2.774  15.947  0.0611 -0.1363  0.6836
10650TIP3    H153441   6.450   2.797  15.884 -1.0746 -0.6218  1.6768
10650TIP3    H253442   6.535   2.681  15.931  0.9296  0.1213  0.0560
10651TIP3   OH253443   0.644   5.435   0.456 -0.0884 -0.3669 -0.0410
10651TIP3    H153444   0.682   5.348   0.444 -0.4931 -0.4337 -0.9168
10651TIP3    H253445   0.704   5.479   0.517 -0.3242 -1.5229  1.0622
10652TIP3   OH253446   0.613   0.462   0.500 -0.2898  0.2077  0.6175
10652TIP3    H153447   0.584   0.509   0.422 -1.3947 -0.8788  0.3346
10652TIP3    H253448   0.619   0.370   0.471 -0.6381 -0.1948  1.7799
10653TIP3   OH253449   1.369   1.308  10.651  0.5848 -0.1115 -0.2697
10653TIP3    H153450   1.323   1.371  10.706  0.4073 -1.3764  1.1017
10653TIP3    H253451   1.389   1.356  10.571  1.6115  2.1035  1.2010
10654TIP3   OH253452   2.828   1.744  11.786  0.0409 -0.0074  0.2855
10654TIP3    H153453   2.780   1.662  11.774  2.1877 -1.1966 -0.7554
10654TIP3    H253454   2.854   1.770  11.697 -0.0694  1.4942  0.6614
10655TIP3   OH253455   2.974   4.369   3.514 -0.3732  0.4071  0.2861
10655TIP3    H153456   2.901   4.382   3.453 -0.6241  1.5886  0.8165
10655TIP3    H253457   2.934   4.370   3.600  0.1709  0.2178  0.5422
10656TIP3   OH253458   3.450   0.250   2.588  0.3698 -0.1600  0.6630
10656TIP3    H153459   3.382   0.186   2.568  1.1233 -0.0663 -2.8933
10656TIP3    H253460   3.452   0.254   2.684 -1.2048 -3.7639  1.0077
10657TIP3   OH253461   4.812   0.506  11.304 -0.1870 -0.2235  0.9061
10657TIP3    H153462   4.815   0.577  11.240  1.0844 -0.8452  0.2347
10657TIP3    H253463   4.774   0.432  11.256  0.3144 -0.5525  1.0091
10658TIP3   OH253464   4.962   5.630   4.286  0.3392  0.4283 -0.2685
10658TIP3    H153465   5.048   5.629   4.328 -0.3670  1.8520  1.3059
10658TIP3    H253466   4.903   5.666   4.352 -1.8734 -2.2145 -0.6360
10659TIP3   OH253467   5.433   3.548   1.691  0.0616  0.2428  0.2702
10659TIP3    H153468   5.344   3.580   1.679 -0.5705 -1.0861  1.1772
10659TIP3    H253469   5.439   3.471   1.635 -0.0129 -0.7702  1.5957
10660TIP3   OH253470   3.055   3.788  13.617  0.4599  0.0066  0.1430
10660TIP3    H153471   3.123   3.855  13.621  0.4146  0.0337  0.5113
10660TIP3    H253472   2.992   3.822  13.553 -0.6690  1.3740  1.8610
10661TIP3   OH253473   6.167   3.931  13.213  0.2576  0.2032 -0.2838
10661TIP3    H153474   6.189   3.982  13.290 -0.3171  2.9491 -1.8158
10661TIP3    H253475   6.073   3.916  13.220 -0.3576  2.8009 -1.6092
10662TIP3   OH253476   4.308   0.644  10.013  0.0139  0.4475  0.1485
10662TIP3    H153477   4.267   0.612  10.093 -0.0378  2.3650  0.9424
10662TIP3    H253478   4.329   0.735  10.032  1.2643  0.5511 -1.5569
10663TIP3   OH253479   1.668   3.486  13.470 -0.8824 -0.6043  0.5858
10663TIP3    H153480   1.604   3.543  13.513 -0.0106  1.1971 -0.3784
10663TIP3    H253481   1.747   3.540  13.465 -0.0729 -1.8563 -0.5347
10664TIP3   OH253482   3.485   5.197   1.233 -0.4292 -0.3141  0.6538
10664TIP3    H153483   3.460   5.199   1.326  0.2167  0.1933  0.8217
10664TIP3    H253484   3.524   5.110   1.221  0.6027  0.0619  1.1671
10665TIP3   OH253485   0.293   4.511  12.659 -0.0574 -0.2604 -0.1876
10665TIP3    H153486   0.369   4.508  12.717  1.8504  2.1965 -2.2981
10665TIP3    H253487   0.231   4.568  12.705  0.6622  0.1860  0.2538
10666TIP3   OH253488   4.484   4.023  16.614 -0.6223 -0.5313  0.4287
10666TIP3    H153489   4.485   4.113  16.645 -0.3452  0.1152 -1.3353
10666TIP3    H253490   4.524   3.973  16.685  1.2451  1.0463  0.5790
10667TIP3   OH253491   2.598   5.689  13.423 -0.1993 -0.4563 -0.3670
10667TIP3    H153492   2.597   5.769  13.476  0.6543 -0.5552 -0.1728
10667TIP3    H253493   2.522   5.639  13.453 -0.4492  0.0548 -0.1301
10668TIP3   OH253494   4.397   4.479   5.024  0.7257 -0.0426  0.1097
10668TIP3    H153495   4.390   4.532   4.945  2.0163  1.3163  0.8615
10668TIP3    H253496   4.311   4.437   5.032  0.7076 -0.6243 -2.2527
10669TIP3   OH253497   1.013   0.701   2.476  0.0613  0.1519  0.0038
10669TIP3    H153498   0.943   0.657   2.429  0.7590 -0.0851 -0.8260
10669TIP3    H253499   1.062   0.631   2.518  0.5263  0.2145 -0.4250
10670TIP3   OH253500   3.708   3.789  16.508  0.0759 -0.1576  0.0065
10670TIP3    H153501   3.690   3.850  16.580 -0.2735 -0.8066  0.4838
10670TIP3    H253502   3.720   3.704  16.551 -2.0520 -0.9594 -0.8045
10671TIP3   OH253503   2.086   3.933  14.447  0.1701  0.0094  0.2283
10671TIP3    H153504   2.051   3.931  14.536  1.5450 -0.8903  0.7913
10671TIP3    H253505   2.106   3.841  14.427  3.9348  0.5757  0.7394
10672TIP3   OH253506   5.164   2.473   5.627  0.0458 -0.1806 -0.5880
10672TIP3    H153507   5.200   2.397   5.673 -1.0496 -0.4680 -0.1741
10672TIP3    H253508   5.179   2.454   5.534  0.8408 -0.3385 -0.4381
10673TIP3   OH253509   1.511   5.199   3.185  0.1389 -0.1489  0.0110
10673TIP3    H153510   1.490   5.177   3.095 -0.4371 -0.2821  0.1757
10673TIP3    H253511   1.427   5.215   3.227  0.4846  2.0069 -0.0059
10674TIP3   OH253512   3.422   4.504   3.250  0.2220 -0.3313 -0.3868
10674TIP3    H153513   3.413   4.596   3.227  0.9183 -0.0563  0.4174
10674TIP3    H253514   3.332   4.475   3.266  0.0764  0.4827  0.3644
10675TIP3   OH253515   0.626   2.205   2.867  0.3300  0.2951 -0.0255
10675TIP3    H153516   0.535   2.178   2.866  0.4422 -0.1654  0.9594
10675TIP3    H253517   0.624   2.295   2.901  0.2765  0.1161  0.4531
10676TIP3   OH253518   0.549   1.634  15.762  0.4409 -0.6965  0.2912
10676TIP3    H153519   0.488   1.631  15.835  0.6636 -1.4406  0.4571
10676TIP3    H253520   0.631   1.599  15.798  1.5861  2.0956  0.6248
10677TIP3   OH253521   2.969   4.523  16.503 -0.2141 -0.0147  0.4334
10677TIP3    H153522   3.014   4.479  16.430 -0.0877 -0.7039  0.9170
10677TIP3    H253523   2.906   4.458  16.533 -0.6643  0.4888  0.5663
10678TIP3   OH253524   1.195   4.776   2.574 -0.2038 -0.6261 -0.0724
10678TIP3    H153525   1.232   4.861   2.599 -1.3843  0.2449 -1.1607
10678TIP3    H253526   1.268   4.715   2.584  0.4807  0.3734  1.4260
10679TIP3   OH253527   2.926   0.751  11.910  0.1480 -0.2720 -0.5387
10679TIP3    H153528   2.935   0.777  12.001 -0.4828 -0.9411 -0.2722
10679TIP3    H253529   2.990   0.681  11.898 -0.4830 -0.9028 -0.3077
10680TIP3   OH253530   0.474   4.389  15.846 -0.7054  0.0410  0.1054
10680TIP3    H153531   0.399   4.447  15.834 -0.2565  0.4261 -0.9946
10680TIP3    H253532   0.533   4.411  15.773  0.5358 -0.1511  1.0249
10681TIP3   OH253533   4.502   1.930   2.803 -0.1288  0.7446  0.0427
10681TIP3    H153534   4.409   1.923   2.780  0.4317 -2.5830 -1.8008
10681TIP3    H253535   4.502   1.944   2.897 -2.5510 -1.2474  0.4376
10682TIP3   OH253536   0.333   6.331  15.227 -0.3935  0.0592 -0.3079
10682TIP3    H153537   0.346   6.236  15.226  1.5730  0.1517  2.6213
10682TIP3    H253538   0.265   6.347  15.161 -0.8826 -3.3666 -0.8223
10683TIP3   OH253539   0.848   3.131  11.609  0.1879 -0.2199 -0.1359
10683TIP3    H153540   0.920   3.112  11.548 -1.5187 -1.4812 -1.8731
10683TIP3    H253541   0.807   3.210  11.574  0.7140  0.5439  0.9017
10684TIP3   OH253542   3.858   0.098  11.101  0.0699  0.7612  0.5359
10684TIP3    H153543   3.926   0.095  11.034 -2.6201 -0.1209 -2.3571
10684TIP3    H253544   3.870   0.183  11.144  1.7334  1.4928 -1.2352
10685TIP3   OH253545   1.030   6.512  15.136 -0.5052 -0.3070  0.0312
10685TIP3    H153546   0.983   6.543  15.059 -0.2716 -0.7380 -0.2883
10685TIP3    H253547   1.043   6.418  15.120  0.0647 -0.2794  0.3190
10686TIP3   OH253548   4.728   0.908   5.048  0.3254 -0.3459  0.6761
10686TIP3    H153549   4.740   0.899   4.954 -1.8261  0.8524  0.2177
10686TIP3    H253550   4.635   0.928   5.058  0.7195  0.6236  2.9793
10687TIP3   OH253551   1.038   4.054   1.183  1.0034  0.9143 -0.0542
10687TIP3    H153552   1.050   4.093   1.096  1.5779  1.7084  0.3707
10687TIP3    H253553   1.000   4.124   1.236 -0.1025  0.1896  0.1446
10688TIP3   OH253554   0.197   1.368  12.539  1.0156 -0.3759 -0.0499
10688TIP3    H153555   0.151   1.285  12.529  1.1677 -0.4456 -0.1800
10688TIP3    H253556   0.243   1.380  12.456  0.1306  0.3733 -0.4366
10689TIP3   OH253557   2.015   3.162  16.445 -0.3502 -0.2859  0.0163
10689TIP3    H153558   1.949   3.193  16.382  0.7894 -1.2438 -1.7270
10689TIP3    H253559   2.043   3.077  16.410  0.2570 -0.9134  1.9125
10690TIP3   OH253560   2.205   5.540   4.579 -0.2471  0.3671 -0.1166
10690TIP3    H153561   2.176   5.610   4.637 -0.7734  0.6100 -0.6558
10690TIP3    H253562   2.183   5.571   4.491 -1.8590 -1.0817 -0.2940
10691TIP3   OH253563   0.978   0.118  15.327  0.5441 -0.6251 -0.0881
10691TIP3    H153564   0.976   0.180  15.255  0.5951 -0.5091  0.0092
10691TIP3    H253565   1.071   0.115  15.353  0.6383 -1.1726 -0.4653
10692TIP3   OH253566   0.744   5.176  13.530  0.1982 -0.1486 -0.2082
10692TIP3    H153567   0.765   5.270  13.533  0.5714 -0.2436  0.3342
10692TIP3    H253568   0.739   5.150  13.622  1.3370 -0.9373 -0.3549
10693TIP3   OH253569   5.205   5.948   2.640  0.1799 -0.4132 -0.2316
10693TIP3    H153570   5.269   6.008   2.602 -2.0339  2.7485  0.5849
10693TIP3    H253571   5.245   5.919   2.722  1.6489 -0.7792 -1.0506
10694TIP3   OH253572   2.067   3.632   3.681  0.0822  0.8831  0.2016
10694TIP3    H153573   2.062   3.723   3.652 -0.2446  1.0269  0.6883
10694TIP3    H253574   2.158   3.619   3.704 -0.0151  1.3147  0.8428
10695TIP3   OH253575   5.450   2.145  16.571  0.0553 -0.3439 -0.0843
10695TIP3    H153576   5.502   2.223  16.552 -0.0821 -0.1403  0.3654
10695TIP3    H253577   5.515   2.077  16.591  0.2599 -0.8339 -2.1532
10696TIP3   OH253578   6.255   2.124   4.255  0.1382  0.4670  0.6493
10696TIP3    H153579   6.230   2.039   4.292  0.5273 -1.0880 -2.3644
10696TIP3    H253580   6.319   2.159   4.318 -1.1067 -0.7524  2.6995
10697TIP3   OH253581   2.610   4.106   3.433 -0.1928  0.0702 -0.3085
10697TIP3    H153582   2.515   4.105   3.423  0.0026 -0.5116 -2.8699
10697TIP3    H253583   2.637   4.015   3.424  0.7522  0.4776 -2.1066
10698TIP3   OH253584   3.448   5.405   2.433  0.3066  0.3816 -0.0914
10698TIP3    H153585   3.507   5.472   2.468 -0.7869  0.9975  0.6333
10698TIP3    H253586   3.495   5.323   2.445  1.8022  1.0108 -1.2644
10699TIP3   OH253587   3.860   3.146  14.976 -0.2017 -0.0604 -0.1970
10699TIP3    H153588   3.793   3.213  14.988  0.9239  0.6125  3.3552
10699TIP3    H253589   3.941   3.196  14.963  0.2573 -0.7726 -0.1060
10700TIP3   OH253590   6.536   5.148   0.819 -0.0782  0.2683 -0.5239
10700TIP3    H153591   6.563   5.203   0.745  1.2346 -0.5069 -0.6608
10700TIP3    H253592   6.507   5.211   0.886 -0.8380  1.0005 -1.5098
10701TIP3   OH253593   5.720   0.935   1.048 -0.6999  0.1843 -0.4187
10701TIP3    H153594   5.787   0.994   1.014  0.3921 -0.7526  0.0257
10701TIP3    H253595   5.698   0.879   0.974 -0.5129  0.0800 -0.3970
10702TIP3   OH253596   2.392   1.934  10.734 -0.4829 -0.4020  0.2052
10702TIP3    H153597   2.383   1.850  10.689 -0.5301  0.0238 -0.5973
10702TIP3    H253598   2.303   1.967  10.742 -0.7766 -1.6189  2.9107
10703TIP3   OH253599   4.918   0.805  16.580  0.1680  0.0147  0.0378
10703TIP3    H153600   4.895   0.897  16.597 -2.2122 -0.4773 -0.2381
10703TIP3    H253601   4.909   0.762  16.665 -0.5906 -0.3141 -0.2051
10704TIP3   OH253602   1.676   3.643  11.628 -0.5778  0.1907 -0.3086
10704TIP3    H153603   1.732   3.565  11.632 -2.1363 -1.0434 -1.3035
10704TIP3    H253604   1.688   3.675  11.538 -2.2786 -0.7598 -0.9078
10705TIP3   OH253605   3.208   1.832  12.577 -0.6089  0.4105 -0.1751
10705TIP3    H153606   3.192   1.904  12.516 -0.0550 -0.8417 -1.9117
10705TIP3    H253607   3.299   1.841  12.602 -1.0194  1.3218  1.0554
10706TIP3   OH253608   4.795   6.599   1.952  0.1360 -0.1684 -0.4298
10706TIP3    H153609   4.811   6.514   1.994 -1.1366 -0.4810 -0.5276
10706TIP3    H253610   4.831   6.663   2.013 -0.9550 -0.6603  0.7746
10707TIP3   OH253611   5.106   4.186  15.007  0.0981 -0.0338  0.2286
10707TIP3    H153612   5.047   4.112  14.999  0.9190 -1.1863  3.3044
10707TIP3    H253613   5.192   4.151  14.984  0.0146  0.9948 -1.8596
10708TIP3   OH253614   6.743   1.790   0.253  0.2160 -0.9682 -0.7630
10708TIP3    H153615   6.721   1.867   0.200  0.8132 -0.2903 -0.0488
10708TIP3    H253616   6.660   1.762   0.290 -0.2287 -1.4940 -2.0932
10709TIP3   OH253617   4.322   1.919   5.174  0.0829 -1.0674  0.2261
10709TIP3    H153618   4.361   1.846   5.222  0.1562 -0.9805  0.2984
10709TIP3    H253619   4.232   1.892   5.159 -0.0045 -0.9930  0.6164
10710TIP3   OH253620   2.787   4.348  16.327  0.4870  0.0820 -0.4516
10710TIP3    H153621   2.854   4.280  16.320 -0.2877 -0.5892 -1.6022
10710TIP3    H253622   2.733   4.321  16.401  1.4216  0.5943  0.4419
10711TIP3   OH253623   4.025   3.440  13.948  0.0452  0.6770 -0.4231
10711TIP3    H153624   3.944   3.412  13.907 -0.5629  0.6450  0.7469
10711TIP3    H253625   4.050   3.367  14.005  0.9353  0.6603 -0.8153
10712TIP3   OH253626   2.601   3.616  12.698  0.2247  0.2530  0.2045
10712TIP3    H153627   2.524   3.597  12.752  0.6897  0.5180  0.9749
10712TIP3    H253628   2.676   3.587  12.750  0.5638 -2.1741 -1.5007
10713TIP3   OH253629   6.442   1.314  13.139 -0.1923  0.3634  0.8714
10713TIP3    H153630   6.414   1.223  13.154  0.2343 -0.0570 -0.7226
10713TIP3    H253631   6.489   1.338  13.219 -0.3483 -0.7972  1.3366
10714TIP3   OH253632   1.296   2.850   4.333  0.8868 -0.6000 -0.1987
10714TIP3    H153633   1.227   2.787   4.312 -0.0440  0.5127 -0.5398
10714TIP3    H253634   1.303   2.847   4.428 -0.2904 -0.0466 -0.0816
10715TIP3   OH253635   0.003   6.381   3.125  0.3211 -0.1700 -0.2017
10715TIP3    H153636  -0.084   6.370   3.087  0.3658  0.3225 -0.4512
10715TIP3    H253637  -0.012   6.427   3.207  0.5770  2.7076 -1.6502
10716TIP3   OH253638   6.429   3.249   1.464 -0.4202  0.9815  0.4566
10716TIP3    H153639   6.367   3.221   1.531 -0.0444  0.2965  0.5338
10716TIP3    H253640   6.379   3.307   1.407 -0.9354  0.9962  0.9161
10717TIP3   OH253641   1.577   5.590   3.166 -0.2504  0.2059  0.0439
10717TIP3    H153642   1.519   5.582   3.090 -1.5480  2.0257  0.7625
10717TIP3    H253643   1.662   5.614   3.128 -0.4753 -0.4474 -0.9113
10718TIP3   OH253644   4.164   4.066   2.710 -0.2692 -0.0235 -0.2717
10718TIP3    H153645   4.126   4.069   2.798  0.6316  0.6534  0.1103
10718TIP3    H253646   4.223   3.991   2.712 -0.9098 -0.5439 -0.5882
10719TIP3   OH253647   4.242   1.987   4.755  0.1814  0.2058 -0.7069
10719TIP3    H153648   4.330   1.949   4.750  0.2055 -0.5142  2.7671
10719TIP3    H253649   4.248   2.051   4.825 -2.0469  0.2176 -0.4542
10720TIP3   OH253650   0.901   2.282  13.660  0.0457 -0.4467 -0.7209
10720TIP3    H153651   0.959   2.349  13.697 -0.8626 -0.0495  0.0111
10720TIP3    H253652   0.821   2.329  13.637 -0.5968 -1.2633 -0.2154
10721TIP3   OH253653   2.536   1.617  10.540 -0.3558  0.0594 -0.2335
10721TIP3    H153654   2.613   1.668  10.565 -2.1433  3.0596 -0.4459
10721TIP3    H253655   2.508   1.575  10.621  0.6046  0.1835  0.1743
10722TIP3   OH253656   1.495   1.115   5.168  0.1391 -0.1488  0.2734
10722TIP3    H153657   1.434   1.138   5.238  1.6539  2.2355  0.9307
10722TIP3    H253658   1.467   1.028   5.139 -3.3883  0.6993  0.6782
10723TIP3   OH253659   2.633   0.451  16.758  0.5026  0.0401  0.2418
10723TIP3    H153660   2.692   0.454  16.683 -0.6324 -0.1806 -0.6844
10723TIP3    H253661   2.616   0.358  16.773 -0.2864  0.1281 -0.0524
10724TIP3   OH253662   0.324   2.067   4.170 -0.1201  0.2081 -0.6170
10724TIP3    H153663   0.297   2.040   4.257 -0.0415 -0.6557 -0.8557
10724TIP3    H253664   0.269   2.142   4.150 -1.1162 -0.4499 -0.3853
10725TIP3   OH253665   4.749   5.688  14.141 -0.2689  0.8010  0.4506
10725TIP3    H153666   4.681   5.753  14.162 -0.1858  1.0464 -0.0260
10725TIP3    H253667   4.721   5.650  14.058 -0.0316  0.6113  0.4590
10726TIP3   OH253668   6.761   6.685  11.175 -0.2324  0.0825 -0.2103
10726TIP3    H153669   6.681   6.735  11.157 -1.1330 -1.3663 -0.4086
10726TIP3    H253670   6.730   6.597  11.193  1.3091 -0.4058  0.1735
10727TIP3   OH253671   1.724   1.018  12.170  0.7385 -0.3293 -0.0499
10727TIP3    H153672   1.665   0.963  12.119  1.8161 -0.7773 -0.8494
10727TIP3    H253673   1.729   0.974  12.255 -1.6496  0.8249  0.7888
10728TIP3   OH253674   2.442   5.585  12.176 -0.1739  0.4491 -0.2849
10728TIP3    H153675   2.509   5.548  12.233 -2.5906 -2.1210  1.1652
10728TIP3    H253676   2.432   5.521  12.105 -0.3497  1.3474 -1.0957
10729TIP3   OH253677   0.441   6.441   1.756 -0.6448  0.2556  0.2439
10729TIP3    H153678   0.521   6.450   1.808 -0.0764 -0.0318 -0.5746
10729TIP3    H253679   0.433   6.524   1.710 -0.6676  0.1806  0.1133
10730TIP3   OH253680   5.700   3.169  13.999 -0.0725 -0.1366 -0.0740
10730TIP3    H153681   5.669   3.127  13.919 -0.8408 -0.7174  0.5077
10730TIP3    H253682   5.721   3.096  14.057  0.8314  0.2735  0.1278
10731TIP3   OH253683   3.310   0.964   4.801  0.5189 -0.0169 -0.0905
10731TIP3    H153684   3.298   0.885   4.854  0.7297 -0.1391 -0.2185
10731TIP3    H253685   3.349   0.931   4.719  0.0570  0.1478 -0.3823
10732TIP3   OH253686   1.657   3.658   4.617  0.5264  0.4929  0.3204
10732TIP3    H153687   1.716   3.722   4.578  0.1434  0.2605 -0.6755
10732TIP3    H253688   1.605   3.708   4.681  0.0624  1.2358 -0.6145
10733TIP3   OH253689   1.776   4.752   5.915  0.1702 -0.4483  0.1831
10733TIP3    H153690   1.778   4.659   5.937  1.0208 -0.0401  2.0396
10733TIP3    H253691   1.846   4.791   5.968  0.3884  1.1389 -1.1707
10734TIP3   OH253692   1.064   0.004  13.208 -0.5091 -0.3983  0.2833
10734TIP3    H153693   1.114  -0.077  13.196  0.6734 -0.0247  2.1789
10734TIP3    H253694   1.072   0.050  13.125 -0.4638 -1.8305 -0.5323
10735TIP3   OH253695   6.605   2.927  15.441  0.0193  0.2561 -0.0374
10735TIP3    H153696   6.636   2.875  15.515  1.2028  0.5570 -0.3020
10735TIP3    H253697   6.511   2.910  15.437  0.6155 -3.5347 -1.4458
10736TIP3   OH253698   3.436   3.622   1.172  0.1009  0.3317  0.2130
10736TIP3    H153699   3.414   3.625   1.265  1.3348  0.2412  0.5180
10736TIP3    H253700   3.383   3.550   1.137  2.0501 -1.8573  1.5292
10737TIP3   OH253701   4.626   5.235  11.746 -0.2164 -0.1186 -0.8342
10737TIP3    H153702   4.722   5.233  11.745 -0.1921  0.5944 -0.7063
10737TIP3    H253703   4.600   5.154  11.704  0.4464 -0.3111 -0.8903
10738TIP3   OH253704   1.097   3.402   3.610  0.2626 -0.2742  0.2052
10738TIP3    H153705   1.028   3.337   3.621  0.2010 -0.1664  0.4602
10738TIP3    H253706   1.054   3.486   3.627  0.2666 -0.1356 -0.4320
10739TIP3   OH253707   3.303   6.261  15.440 -0.0538  0.2074 -0.5070
10739TIP3    H153708   3.317   6.177  15.396  0.6677  0.1016 -0.0930
10739TIP3    H253709   3.222   6.249  15.489 -1.4249  0.6421 -2.5151
10740TIP3   OH253710   0.190   4.130   2.894  0.2577  0.0370 -0.3706
10740TIP3    H153711   0.098   4.113   2.874  0.2459 -0.0564 -0.2388
10740TIP3    H253712   0.188   4.199   2.960  0.2755 -0.1008 -0.2253
10741TIP3   OH253713   1.875   4.397  16.702  0.4966  0.0641 -0.4964
10741TIP3    H153714   1.822   4.392  16.781 -0.5208 -1.3857 -1.2212
10741TIP3    H253715   1.811   4.393  16.630  1.5464 -1.4972 -1.4026
10742TIP3   OH253716   4.887   5.082  13.444 -0.2666  0.1981 -0.2975
10742TIP3    H153717   4.919   4.994  13.464 -0.2171  0.2525 -0.1324
10742TIP3    H253718   4.934   5.139  13.505  0.2649  0.4314 -0.9113
10743TIP3   OH253719   5.951   5.300   1.819 -0.6788 -0.0287  0.1769
10743TIP3    H153720   5.945   5.272   1.728 -0.2079  0.7394 -0.0990
10743TIP3    H253721   6.044   5.294   1.840 -0.7740 -0.1091  0.5779
10744TIP3   OH253722   5.766   6.037   3.855 -0.1345  0.0378 -0.1600
10744TIP3    H153723   5.803   6.014   3.940  0.2791 -1.0494 -0.6063
10744TIP3    H253724   5.737   5.954   3.818  0.3993  0.3641 -1.3914
10745TIP3   OH253725   5.610   1.055  15.398 -0.3266  0.3274 -0.1301
10745TIP3    H153726   5.623   1.037  15.491  3.0259 -0.2918 -0.5898
10745TIP3    H253727   5.625   1.149  15.390 -3.1398  0.8827  0.2160
10746TIP3   OH253728   4.916   6.215   1.742  0.1716 -0.2247  0.6180
10746TIP3    H153729   4.973   6.284   1.777 -0.0552  0.1993  0.1586
10746TIP3    H253730   4.962   6.133   1.763  0.2932  0.0429  1.4431
10747TIP3   OH253731   4.556   6.085  11.469 -0.1777 -0.3834 -0.0662
10747TIP3    H153732   4.530   6.037  11.390 -0.5609  0.3206 -0.3882
10747TIP3    H253733   4.577   6.018  11.533  0.5995 -0.9767 -0.9143
10748TIP3   OH253734   4.213   4.520  12.021 -0.0226 -0.0731  0.4966
10748TIP3    H153735   4.281   4.581  11.994  0.4241 -0.6415  0.3131
10748TIP3    H253736   4.202   4.535  12.115  1.0791 -0.6594  0.7398
10749TIP3   OH253737   1.482   6.662   4.818 -0.2218 -0.2519 -0.7623
10749TIP3    H153738   1.576   6.664   4.833 -0.2249  1.0961 -0.7723
10749TIP3    H253739   1.458   6.570   4.823  0.7596 -0.4399  1.3679
10750TIP3   OH253740   3.490   2.458   2.978 -0.1250  0.3367  0.0817
10750TIP3    H153741   3.438   2.378   2.970 -0.3653  0.3749  1.1120
10750TIP3    H253742   3.557   2.450   2.910 -0.4560 -0.5011 -0.1584
10751TIP3   OH253743   4.561   2.750  16.118 -0.1264 -0.3573  0.5115
10751TIP3    H153744   4.588   2.835  16.082 -4.5690 -0.4397 -4.1143
10751TIP3    H253745   4.632   2.690  16.094  1.4301  1.3685  0.5911
10752TIP3   OH253746   5.336   4.921   3.276  0.1911  0.1392 -0.3558
10752TIP3    H153747   5.427   4.895   3.272  0.2690 -0.0907  1.9137
10752TIP3    H253748   5.338   5.015   3.297 -0.1080  0.3154 -1.0686
10753TIP3   OH253749   3.679   2.958  15.017 -0.1368 -0.2018  0.1080
10753TIP3    H153750   3.721   2.875  14.993  1.8351 -0.0620  2.6995
10753TIP3    H253751   3.741   3.025  14.990 -1.3488  0.4372 -1.2101
10754TIP3   OH253752   4.857   6.440   6.604  0.5435 -0.1532 -0.4077
10754TIP3    H153753   4.912   6.517   6.611  0.7259 -0.3897  1.0692
10754TIP3    H253754   4.914   6.367   6.629 -0.5033 -0.3577  1.5429
10755TIP3   OH253755   0.688   6.274  15.374 -0.0215 -0.6397 -0.2929
10755TIP3    H153756   0.756   6.224  15.328  1.1280 -0.0037  0.6568
10755TIP3    H253757   0.712   6.365  15.359  0.5270 -0.4038  1.6976
10756TIP3   OH253758   0.135   2.671   4.264 -0.2304  0.1117 -0.0124
10756TIP3    H153759   0.134   2.621   4.182  0.4037  1.6187 -0.9676
10756TIP3    H253760   0.061   2.636   4.314 -1.5432  0.1683 -1.8300
10757TIP3   OH253761   2.802   4.404  13.074  0.3697 -0.8442 -0.1230
10757TIP3    H153762   2.816   4.414  12.980 -1.3205  0.3167 -0.2947
10757TIP3    H253763   2.770   4.314  13.084  1.1938 -1.1955 -0.5525
10758TIP3   OH253764   6.136   0.950   5.558  0.6222  0.0607  0.0303
10758TIP3    H153765   6.094   0.883   5.611  0.1870 -0.3414 -0.7997
10758TIP3    H253766   6.211   0.906   5.517  0.4273  0.1132 -0.3916
10759TIP3   OH253767   1.672   2.144   5.524  0.2020  0.5487  0.5313
10759TIP3    H153768   1.608   2.182   5.584  1.1560  1.8975  0.7404
10759TIP3    H253769   1.746   2.122   5.579  1.0474  1.7026 -0.1054
10760TIP3   OH253770   0.887   2.023   3.609 -0.2926 -0.0432  0.5188
10760TIP3    H153771   0.816   2.085   3.620 -1.8893 -2.1239  3.0088
10760TIP3    H253772   0.862   1.971   3.532  0.6683  1.7357 -1.0907
10761TIP3   OH253773   0.109   5.271   2.902 -0.9917 -0.5191  0.0628
10761TIP3    H153774   0.037   5.235   2.851 -0.3354 -0.5443 -0.8773
10761TIP3    H253775   0.077   5.272   2.992 -2.3487 -0.0459 -0.3970
10762TIP3   OH253776   3.239   2.928  10.957 -0.3257  0.0451 -0.2328
10762TIP3    H153777   3.231   2.951  10.864 -0.1989 -0.4799 -0.3771
10762TIP3    H253778   3.298   2.852  10.958 -0.3032  0.0632  0.2791
10763TIP3   OH253779   0.954   3.550  11.891 -0.7964 -0.2333 -0.0065
10763TIP3    H153780   0.986   3.460  11.889 -0.5235 -0.1249 -0.6235
10763TIP3    H253781   0.898   3.557  11.814 -2.1786 -0.3627  0.9496
10764TIP3   OH253782   2.081   5.258   6.126 -0.2836 -0.1564 -0.2469
10764TIP3    H153783   1.996   5.216   6.138 -0.3574  0.0402 -0.0770
10764TIP3    H253784   2.140   5.208   6.182 -0.5914  0.6446  0.8269
10765TIP3   OH253785   4.228   4.344   0.803 -0.5536  0.1079 -0.2315
10765TIP3    H153786   4.263   4.393   0.729 -3.8015  2.9246 -0.1481
10765TIP3    H253787   4.192   4.264   0.764  2.3106 -1.0347 -0.7929
10766TIP3   OH253788   0.440   2.684   2.932  0.0530 -0.2103 -0.5237
10766TIP3    H153789   0.460   2.749   2.999 -0.6966 -1.0737  0.5564
10766TIP3    H253790   0.357   2.712   2.894  0.7371  0.5764 -1.5059
10767TIP3   OH253791   4.885   5.845   2.711  0.1392 -0.3391 -0.0058
10767TIP3    H153792   4.832   5.895   2.773  1.1782 -0.9335  1.4106
10767TIP3    H253793   4.821   5.793   2.662 -0.9124  1.8053 -1.0754
10768TIP3   OH253794   4.025   0.387  10.810 -0.1939  0.6745  0.1567
10768TIP3    H153795   4.021   0.475  10.772  1.1975  1.9447  2.6718
10768TIP3    H253796   3.993   0.398  10.900  1.1080 -1.1296  0.9086
10769TIP3   OH253797   6.155   0.268   0.822  0.2750  0.1387 -0.5650
10769TIP3    H153798   6.118   0.268   0.910  3.2346 -0.9822  0.7908
10769TIP3    H253799   6.093   0.216   0.770 -1.9169  1.4518  0.5790
10770TIP3   OH253800   5.240   1.379  15.053  0.9067 -0.4679  0.6267
10770TIP3    H153801   5.291   1.377  14.971  0.1975 -2.4214  0.1780
10770TIP3    H253802   5.300   1.418  15.117  2.2696 -0.8779 -0.3364
10771TIP3   OH253803   2.844   5.279  15.195  0.2465  0.2544  0.8237
10771TIP3    H153804   2.911   5.279  15.263 -0.2299  1.4518  1.3069
10771TIP3    H253805   2.870   5.349  15.135 -0.3875  0.4914  0.8197
10772TIP3   OH253806   5.557   1.732  14.031 -0.2890  0.5335  0.7538
10772TIP3    H153807   5.483   1.723  14.092 -2.1763  0.6999 -1.3816
10772TIP3    H253808   5.579   1.642  14.006 -1.1510  0.5386 -0.1054
10773TIP3   OH253809   3.800   4.127  12.014  0.1831 -0.3683  0.2329
10773TIP3    H153810   3.775   4.048  12.060  0.1449 -0.3835  0.1865
10773TIP3    H253811   3.895   4.119  12.000 -0.3075 -2.1761 -3.0564
10774TIP3   OH253812   1.459   0.465   5.239 -0.6262 -0.5261  0.4353
10774TIP3    H153813   1.488   0.375   5.226  1.2031 -0.1046  1.2039
10774TIP3    H253814   1.515   0.498   5.309 -1.6041  1.0620  0.5251
10775TIP3   OH253815   5.439   2.808   0.285  0.3535  0.0657 -0.2383
10775TIP3    H153816   5.384   2.733   0.305  1.1412 -0.6016 -0.5366
10775TIP3    H253817   5.393   2.854   0.215  0.0178 -0.2903 -0.2541
10776TIP3   OH253818   0.994   4.003   3.326  0.8044 -0.0802  0.1604
10776TIP3    H153819   1.017   4.073   3.265 -0.5187 -0.1983 -0.5255
10776TIP3    H253820   0.902   3.985   3.306  0.9591 -1.5898  0.7460
10777TIP3   OH253821   1.517   0.740  12.966  0.1577  0.4290  0.2028
10777TIP3    H153822   1.436   0.787  12.983 -0.0207  0.5683 -0.9262
10777TIP3    H253823   1.550   0.778  12.884 -0.0931 -1.4923 -0.8662
10778TIP3   OH253824   1.174   6.214  12.411 -0.0028 -0.0175 -0.7841
10778TIP3    H153825   1.153   6.306  12.428  0.4843  0.2241 -1.4431
10778TIP3    H253826   1.269   6.209  12.415 -0.0899 -0.9049  1.1734
10779TIP3   OH253827   3.213   5.203  14.379 -0.3353 -0.0221 -0.2791
10779TIP3    H153828   3.123   5.219  14.351 -0.4393  1.0440  0.5837
10779TIP3    H253829   3.266   5.258  14.320 -0.2648 -0.4070 -0.5805
10780TIP3   OH253830   4.675   2.279  17.155 -0.4878  0.1953  0.9059
10780TIP3    H153831   4.766   2.249  17.151 -1.1444 -1.9383  0.4055
10780TIP3    H253832   4.639   2.255  17.069 -2.1519 -1.2844  1.9609
10781TIP3   OH253833   2.783   4.837  12.935  0.4288  0.5591 -0.2847
10781TIP3    H153834   2.873   4.810  12.953  0.2925  0.4560  0.2808
10781TIP3    H253835   2.746   4.853  13.022  0.1240  1.3151 -0.5504
10782TIP3   OH253836   1.053   3.712  11.536 -0.0572  0.0208  0.3222
10782TIP3    H153837   1.047   3.619  11.514 -0.1441  0.3563 -1.1486
10782TIP3    H253838   0.973   3.751  11.502 -0.8847  0.3834  2.4903
10783TIP3   OH253839   6.015   5.558  14.533  0.0707 -0.0992 -0.5022
10783TIP3    H153840   6.036   5.586  14.444  0.9439  2.5844  0.4535
10783TIP3    H253841   5.934   5.605  14.553 -0.1302 -0.7066  0.1292
10784TIP3   OH253842   1.398   5.138  14.398  0.6636  1.3635  0.0621
10784TIP3    H153843   1.430   5.197  14.330  0.9436 -0.3470 -1.3339
10784TIP3    H253844   1.476   5.098  14.435  0.4686  1.7677  0.9394
10785TIP3   OH253845   6.553   4.811  16.058  0.4559  0.0716 -0.2812
10785TIP3    H153846   6.613   4.753  16.011  0.3077  0.6127 -1.1545
10785TIP3    H253847   6.475   4.757  16.075  1.5429 -0.9547  1.7729
10786TIP3   OH253848   1.510   0.435  12.868  0.1327  0.0815 -0.4392
10786TIP3    H153849   1.578   0.413  12.804  2.3213  0.8232  1.4947
10786TIP3    H253850   1.527   0.526  12.891 -0.4731 -0.2020  1.3182
10787TIP3   OH253851   1.157   4.199  14.970 -0.1845 -0.1275 -0.2546
10787TIP3    H153852   1.151   4.267  15.037 -1.6029  0.9847 -1.4134
10787TIP3    H253853   1.082   4.142  14.988 -0.1522 -0.2335 -0.4617
10788TIP3   OH253854   0.281   2.355   3.034 -0.0765  0.2113  0.3298
10788TIP3    H153855   0.231   2.420   3.084 -1.5326 -1.0226  0.5587
10788TIP3    H253856   0.299   2.286   3.098 -1.6244 -1.2159 -0.6878
10789TIP3   OH253857   1.996   5.611  13.220  0.8844  0.0732 -0.0538
10789TIP3    H153858   2.029   5.561  13.294  0.6732 -0.6026 -0.4144
10789TIP3    H253859   2.003   5.703  13.248  3.0618 -0.0302 -0.1136
10790TIP3   OH253860   1.238   3.093  15.264  0.2944 -0.0214 -0.2466
10790TIP3    H153861   1.219   3.016  15.211  1.0382  0.3277 -1.0342
10790TIP3    H253862   1.304   3.142  15.215  0.8696  0.4133  0.9018
10791TIP3   OH253863   3.010   0.892  15.745  0.0099  0.1041 -0.4443
10791TIP3    H153864   3.085   0.834  15.735 -1.3544 -1.6464 -1.1396
10791TIP3    H253865   2.978   0.907  15.656 -0.6291  0.6060 -0.1433
10792TIP3   OH253866   3.557   2.292  17.136 -0.6048  0.6416 -0.2046
10792TIP3    H153867   3.469   2.256  17.134 -0.4025  0.1574 -0.9847
10792TIP3    H253868   3.603   2.240  17.202 -0.6565  0.2690 -0.4543
10793TIP3   OH253869   1.304   1.924   0.985  0.6969  0.1440 -0.2527
10793TIP3    H153870   1.318   1.923   1.079  0.0883 -1.6744 -0.1521
10793TIP3    H253871   1.358   1.852   0.952 -1.2567 -1.0767 -0.9219
10794TIP3   OH253872   6.522   6.568  14.570 -0.1065 -0.0277 -0.1174
10794TIP3    H153873   6.484   6.488  14.608  1.3167 -1.3708 -1.3964
10794TIP3    H253874   6.446   6.623  14.553 -1.2772 -1.6138 -0.3307
10795TIP3   OH253875   5.114   4.780   5.094  0.3994 -0.0917 -1.0394
10795TIP3    H153876   5.123   4.685   5.095 -1.0140 -0.2769  1.3943
10795TIP3    H253877   5.073   4.799   5.010  1.5276 -1.4998 -1.9550
10796TIP3   OH253878   0.808   1.771  16.334 -0.2386 -0.2070 -0.5365
10796TIP3    H153879   0.768   1.839  16.387  1.3670  1.2086 -1.0339
10796TIP3    H253880   0.812   1.694  16.391 -0.0450  0.7862  0.8391
10797TIP3   OH253881   5.198   6.202   0.024 -0.2793 -0.3266  0.9770
10797TIP3    H153882   5.162   6.115   0.037 -0.4870 -0.3792  0.0957
10797TIP3    H253883   5.268   6.190  -0.040  0.7079 -0.0792  1.9694
10798TIP3   OH253884   1.073   4.775  12.989  0.0643 -0.7048  0.0962
10798TIP3    H153885   1.048   4.795  12.899  0.1592  0.6181  0.3571
10798TIP3    H253886   1.000   4.806  13.042  0.6677 -0.1190  0.5884
10799TIP3   OH253887   5.455   1.333  15.294  0.2610  0.2477  0.4739
10799TIP3    H153888   5.419   1.421  15.286  0.9024  0.4429 -0.4466
10799TIP3    H253889   5.499   1.332  15.379 -1.1569  0.2615  1.2584
10800TIP3   OH253890   6.718   0.743   4.406 -0.1839 -0.7655  0.8604
10800TIP3    H153891   6.746   0.822   4.360  0.6922 -1.2375  0.5834
10800TIP3    H253892   6.623   0.754   4.415 -0.2783 -0.3534 -0.4488
10801TIP3   OH253893   6.564   0.429  14.871 -0.1495  0.4314 -0.5973
10801TIP3    H153894   6.601   0.437  14.959  0.0627 -0.8617 -0.5448
10801TIP3    H253895   6.529   0.340  14.868 -2.0698  1.1512 -1.1152
10802TIP3   OH253896   6.272   4.014  12.960 -0.2797 -0.4204  0.6670
10802TIP3    H153897   6.201   4.019  12.896  0.7852  2.3482 -0.4272
10802TIP3    H253898   6.232   3.976  13.038 -2.2540 -1.4565 -0.7793
10803TIP3   OH253899   2.888   3.387  11.182  0.4464  0.2210  0.0519
10803TIP3    H153900   2.826   3.431  11.124  0.5626  0.2365 -0.0597
10803TIP3    H253901   2.835   3.322  11.228 -0.2023  1.8927  1.7946
10804TIP3   OH253902   4.634   4.504  13.141  0.7743 -0.2992  0.6645
10804TIP3    H153903   4.687   4.584  13.147  0.0482  0.4635 -1.8135
10804TIP3    H253904   4.548   4.531  13.173  0.7603 -0.3278  0.6503
10805TIP3   OH253905   5.751   5.797   1.410 -0.4728 -0.3066  0.2185
10805TIP3    H153906   5.699   5.752   1.344 -0.2455 -0.4433  0.1319
10805TIP3    H253907   5.766   5.885   1.375 -2.8967  0.6605  1.4002
10806TIP3   OH253908   5.131   1.752  15.886 -0.2705 -0.1483 -0.5087
10806TIP3    H153909   5.054   1.705  15.854 -1.3531  0.9498  0.4024
10806TIP3    H253910   5.096   1.823  15.939  1.3794  0.4452 -0.1477
10807TIP3   OH253911   6.561   4.793  11.394 -0.3775 -0.2588 -0.0168
10807TIP3    H153912   6.617   4.715  11.401 -1.7697 -1.2724  0.0790
10807TIP3    H253913   6.506   4.776  11.317 -2.2945 -0.4446  1.3416
10808TIP3   OH253914   2.796   6.805  16.916  0.6719 -0.1774  0.4881
10808TIP3    H153915   2.838   6.719  16.926  1.5614  0.1525 -0.2357
10808TIP3    H253916   2.825   6.835  16.830  0.1436  0.7286  0.6199
10809TIP3   OH253917   5.278   5.691  10.747 -0.3145 -0.1538  0.7012
10809TIP3    H153918   5.348   5.756  10.741  0.8328 -1.4541 -1.4534
10809TIP3    H253919   5.224   5.708  10.669 -1.0306 -0.6830  1.0710
10810TIP3   OH253920   3.304   5.357   0.503 -0.2466 -0.0012 -0.7437
10810TIP3    H153921   3.379   5.330   0.449 -0.9192 -0.6571 -1.3654
10810TIP3    H253922   3.256   5.277   0.520 -0.9411  0.4446 -0.5548
10811TIP3   OH253923   3.262   5.933   0.681 -0.4596 -0.1077 -0.3616
10811TIP3    H153924   3.341   5.883   0.699  0.5065  0.7558 -1.9353
10811TIP3    H253925   3.271   5.961   0.590 -2.8544 -0.4373 -0.7747
10812TIP3   OH253926   5.646   3.071  14.499  0.1145 -0.0035  0.1989
10812TIP3    H153927   5.659   3.125  14.577 -2.1729 -1.2930  1.5684
10812TIP3    H253928   5.556   3.088  14.472 -0.4141 -2.4106  0.1819
10813TIP3   OH253929   1.773   0.130  11.818 -0.0348 -0.1400  0.2181
10813TIP3    H153930   1.855   0.116  11.771 -0.4038 -0.0689 -0.4607
10813TIP3    H253931   1.794   0.110  11.909  0.8741  0.4353  0.1403
10814TIP3   OH253932   0.540   1.397   4.886  0.1031 -0.4350  0.0056
10814TIP3    H153933   0.477   1.460   4.922 -1.4620 -1.4697 -0.7937
10814TIP3    H253934   0.624   1.424   4.922 -0.7798  1.0523  1.0728
10815TIP3   OH253935   0.381   4.417  13.488  0.2703  0.0596 -0.7979
10815TIP3    H153936   0.406   4.442  13.577  1.5440 -0.0434 -1.1010
10815TIP3    H253937   0.400   4.324  13.483 -1.8613 -0.4415 -0.5295
10816TIP3   OH253938   1.999   3.338   6.843 -0.5133  0.1413 -0.0305
10816TIP3    H153939   1.925   3.314   6.898 -0.9754 -0.7883 -1.0153
10816TIP3    H253940   2.075   3.299   6.887 -0.5623  1.2857  1.0946
10817TIP3   OH253941   5.097   2.662   3.140 -0.2466  0.5155 -0.6670
10817TIP3    H153942   5.009   2.658   3.103 -0.7807  1.3248  0.4475
10817TIP3    H253943   5.141   2.732   3.091 -0.9871  1.6585  0.2312
10818TIP3   OH253944   2.664   1.098  15.617 -0.0628 -0.2698 -0.2759
10818TIP3    H153945   2.684   1.160  15.548  0.9830 -0.5834 -0.2811
10818TIP3    H253946   2.653   1.014  15.572 -1.5276 -0.0995 -0.2766
10819TIP3   OH253947   3.227   3.955   5.371 -0.4781  0.2161 -0.5774
10819TIP3    H153948   3.232   3.978   5.278 -1.3822  0.0158 -0.6898
10819TIP3    H253949   3.200   4.036   5.414 -0.6742  0.1495 -0.5740
10820TIP3   OH253950   2.320   6.095  16.641  0.5133 -0.2713 -0.4792
10820TIP3    H153951   2.248   6.122  16.584  0.9793  1.4074 -0.3298
10820TIP3    H253952   2.398   6.100  16.585  0.9497  1.2022  0.2128
10821TIP3   OH253953   3.715   4.400  14.966  0.5296  0.6180 -0.2372
10821TIP3    H153954   3.754   4.479  14.930  1.4293  1.1809  1.7940
10821TIP3    H253955   3.721   4.411  15.061 -0.6038 -1.2725  0.1235
10822TIP3   OH253956   2.076   2.921   4.748 -0.3331  0.5163 -0.0388
10822TIP3    H153957   2.060   2.845   4.692 -0.9520  0.1268  0.6336
10822TIP3    H253958   2.024   2.991   4.709 -2.0988 -0.1815  0.9180
10823TIP3   OH253959   3.599   2.465  13.992  0.0325 -0.6092  0.1614
10823TIP3    H153960   3.551   2.390  14.027 -0.3678 -0.6487 -0.4614
10823TIP3    H253961   3.537   2.509  13.934  0.5984 -0.3868 -0.2868
10824TIP3   OH253962   0.766   1.679   5.282 -0.0025  0.5071  0.2325
10824TIP3    H153963   0.807   1.680   5.195  1.6530  1.3560  0.9798
10824TIP3    H253964   0.696   1.744   5.276  0.3910  0.8910 -0.3372
10825TIP3   OH253965   1.155   0.579  13.063 -0.4061 -0.5757  0.4323
10825TIP3    H153966   1.175   0.556  13.154 -1.4095 -2.0776  0.2993
10825TIP3    H253967   1.074   0.532  13.043 -0.2155 -0.2597 -1.2506
10826TIP3   OH253968   0.029   2.233   4.355  0.4377 -0.1180  0.0628
10826TIP3    H153969   0.084   2.254   4.430  0.0075  1.1827  0.0544
10826TIP3    H253970   0.012   2.139   4.362 -0.7590  0.1883  2.4157
10827TIP3   OH253971   2.395   1.788   3.449 -0.3520 -0.0407  0.2922
10827TIP3    H153972   2.384   1.872   3.493 -2.5847 -0.1231  0.0380
10827TIP3    H253973   2.400   1.723   3.519 -2.9632 -0.0744  0.5648
10828TIP3   OH253974   4.970   2.746  14.069 -0.0406 -0.0423 -0.6303
10828TIP3    H153975   5.021   2.782  13.997 -0.3091  1.1546 -0.2399
10828TIP3    H253976   4.881   2.775  14.053 -0.0179  0.6759  0.4350
10829TIP3   OH253977   3.252   0.941   5.992 -0.0485  0.4781 -0.1548
10829TIP3    H153978   3.295   1.002   5.932 -1.5428  1.4155 -0.3324
10829TIP3    H253979   3.272   0.976   6.079  0.0662  0.5444 -0.2067
10830TIP3   OH253980   1.035   1.298   1.007  0.0770 -0.1525 -0.7478
10830TIP3    H153981   1.077   1.276   1.091  0.3967  1.2541 -0.5117
10830TIP3    H253982   1.071   1.234   0.946  1.4694  0.0902 -0.2328
10831TIP3   OH253983   1.517   4.756  17.057  0.3832 -0.1565  0.0660
10831TIP3    H153984   1.457   4.681  17.057 -0.2057  0.3090  0.0400
10831TIP3    H253985   1.591   4.727  17.110 -0.1363 -0.5215  0.6088
10832TIP3   OH253986   4.241   0.759   5.647  0.0805  0.3469 -0.2638
10832TIP3    H153987   4.328   0.800   5.651  0.0158  0.3993  1.1463
10832TIP3    H253988   4.211   0.758   5.738  0.3617 -3.4090 -0.0403
10833TIP3   OH253989   6.537   4.494  11.768  0.4199  0.5386  0.5163
10833TIP3    H153990   6.618   4.478  11.721 -0.2273  0.7895 -0.7295
10833TIP3    H253991   6.525   4.589  11.765  0.1028  0.5098  0.7351
10834TIP3   OH253992   6.274   3.646  14.059 -0.3189 -0.0610  0.1696
10834TIP3    H153993   6.364   3.669  14.084  0.3633 -1.5808 -0.7485
10834TIP3    H253994   6.259   3.696  13.978 -1.1577  1.9058  1.4513
10835TIP3   OH253995   1.834   5.909  12.365 -0.5856  0.4097 -0.4363
10835TIP3    H153996   1.896   5.892  12.294 -0.3476  0.6827 -0.2964
10835TIP3    H253997   1.755   5.862  12.339  0.1770 -1.2494  0.1566
10836TIP3   OH253998   6.233   3.191  13.858  0.1513 -0.3178 -0.5076
10836TIP3    H153999   6.234   3.287  13.848  0.8215 -0.2438  0.1271
10836TIP3    H254000   6.182   3.176  13.938  1.9848 -0.3021  0.7455
10837TIP3   OH254001   5.685   3.862   1.507  0.1670  0.0479 -0.0313
10837TIP3    H154002   5.777   3.837   1.505 -0.4031 -2.3830  0.2154
10837TIP3    H254003   5.669   3.888   1.597  0.6922  0.8818 -0.1721
10838TIP3   OH254004   2.557   3.823   5.750 -0.0259 -0.2537 -0.1512
10838TIP3    H154005   2.536   3.755   5.686 -0.9572 -0.1523  0.0298
10838TIP3    H254006   2.512   3.901   5.717 -0.0783 -0.0704  0.3496
10839TIP3   OH254007   5.030   3.588   4.217  0.5739  0.0336  0.0649
10839TIP3    H154008   4.974   3.539   4.157  1.0795  1.7576 -1.9742
10839TIP3    H254009   5.117   3.584   4.176  0.9074  1.3763  0.5839
10840TIP3   OH254010   3.970   4.343  14.141 -0.6653  0.9693  0.3421
10840TIP3    H154011   4.056   4.385  14.135 -0.9705  1.5422 -0.1372
10840TIP3    H254012   3.989   4.254  14.171  0.2083  0.7468 -0.7785
10841TIP3   OH254013   5.234   6.040   4.504 -0.4372 -0.3413 -0.4433
10841TIP3    H154014   5.326   6.067   4.513 -0.5203  0.0190 -0.6914
10841TIP3    H254015   5.229   6.002   4.417 -0.7807  0.6617 -0.8725
10842TIP3   OH254016   2.408   4.163   1.513  0.1402  0.5032  0.2098
10842TIP3    H154017   2.393   4.150   1.606 -0.6249  1.1902  0.1897
10842TIP3    H254018   2.455   4.247   1.508  0.0640  0.5317 -0.0346
10843TIP3   OH254019   1.039   5.049   5.819  0.3369 -0.0380  0.4567
10843TIP3    H154020   1.080   5.019   5.900  0.7519 -1.7972 -0.3712
10843TIP3    H254021   1.104   5.106   5.779 -0.1069  1.3387  1.6179
10844TIP3   OH254022   1.053   2.924   2.767  0.1158 -0.4565  0.0850
10844TIP3    H154023   1.136   2.966   2.789  1.1912 -2.9370  1.0791
10844TIP3    H254024   0.987   2.980   2.808  1.2961  1.2822 -0.2894
10845TIP3   OH254025   6.303   1.315  11.917  0.1162  0.1703 -0.0786
10845TIP3    H154026   6.269   1.401  11.895  1.2258 -0.0683 -3.3248
10845TIP3    H254027   6.391   1.313  11.878  0.6424 -1.9586  1.0466
10846TIP3   OH254028   3.915   2.458  16.626 -0.3085 -0.6941  0.2335
10846TIP3    H154029   3.917   2.369  16.662  0.2157 -0.7571  0.0570
10846TIP3    H254030   3.974   2.507  16.683 -1.1713 -0.2731  0.7897
10847TIP3   OH254031   0.205   5.782  15.757 -0.2814 -0.3602  0.0355
10847TIP3    H154032   0.298   5.790  15.740 -0.3017  0.6748  0.3468
10847TIP3    H254033   0.164   5.846  15.699 -0.8056 -0.8557 -0.1526
10848TIP3   OH254034   4.526   3.832  12.690 -0.2445 -0.0922 -0.1746
10848TIP3    H154035   4.605   3.780  12.705 -0.6561 -0.6157  0.2087
10848TIP3    H254036   4.498   3.809  12.601 -0.4275 -0.5328 -0.0039
10849TIP3   OH254037   4.963   6.688   2.466 -0.2245  0.8472 -0.0692
10849TIP3    H154038   5.051   6.680   2.504 -0.3142  2.7535  0.6744
10849TIP3    H254039   4.905   6.646   2.529 -0.0321  1.2548  0.3868
10850TIP3   OH254040   2.431   4.701   4.139  0.5017  0.3793 -0.2318
10850TIP3    H154041   2.439   4.689   4.234  0.4233 -1.7925 -0.4435
10850TIP3    H254042   2.478   4.626   4.102  1.9204  2.0409 -1.9687
10851TIP3   OH254043   5.634   0.368  13.118  0.2750  0.0940 -0.1942
10851TIP3    H154044   5.599   0.382  13.206  1.2687 -0.0300  0.2336
10851TIP3    H254045   5.576   0.418  13.060 -1.0591 -0.7116  0.3923
10852TIP3   OH254046   5.469   1.665   0.943 -0.1039 -0.6085 -0.4916
10852TIP3    H154047   5.527   1.734   0.911 -0.9696  0.0668 -0.6743
10852TIP3    H254048   5.397   1.713   0.985 -0.5351 -1.4140 -0.2995
10853TIP3   OH254049   3.463   2.580   2.087  0.1391 -0.3505 -0.0300
10853TIP3    H154050   3.538   2.542   2.132  0.4565 -0.1667 -0.3987
10853TIP3    H254051   3.498   2.610   2.003 -0.7695 -2.2543 -1.1611
10854TIP3   OH254052   1.126   0.425   4.851 -0.1930 -0.0135  0.1530
10854TIP3    H154053   1.105   0.337   4.819 -0.9154 -0.0716  0.7674
10854TIP3    H254054   1.220   0.423   4.867 -0.2280 -0.7124  0.2994
10855TIP3   OH254055   2.210   3.323   2.062 -0.2876 -0.0292 -0.0268
10855TIP3    H154056   2.149   3.397   2.066  2.9711  2.9068  0.8114
10855TIP3    H254057   2.274   3.349   1.995  1.6820 -1.4642  1.2043
10856TIP3   OH254058   0.038   0.495   0.563  0.0156 -0.3421 -0.7701
10856TIP3    H154059  -0.018   0.558   0.609 -0.0281  0.2142 -1.5719
10856TIP3    H254060   0.010   0.499   0.472  1.2403 -0.1642 -1.1644
10857TIP3   OH254061   6.643   5.370  13.569 -0.5273 -0.8043 -0.1530
10857TIP3    H154062   6.704   5.324  13.511  0.1821  0.0009 -0.0636
10857TIP3    H254063   6.620   5.305  13.636  2.1964 -0.4312  1.2857
10858TIP3   OH254064   6.007   6.493   2.000  0.2123  0.0858  0.0763
10858TIP3    H154065   5.973   6.484   1.911 -0.4810  0.8778  0.2514
10858TIP3    H254066   6.053   6.577   2.000  2.2865 -0.9641 -0.1650
10859TIP3   OH254067   4.231   2.701  13.723 -0.2280  0.3148 -0.0538
10859TIP3    H154068   4.179   2.666  13.652  0.2278 -0.0480 -0.2164
10859TIP3    H254069   4.226   2.796  13.712  1.2815  0.2638 -1.6545
10860TIP3   OH254070   1.703   0.270   5.999  0.3110 -0.0759 -0.2348
10860TIP3    H154071   1.753   0.309   5.927 -0.1965  0.6142 -0.2225
10860TIP3    H254072   1.732   0.317   6.077  1.3061 -1.2406  0.1178
10861TIP3   OH254073   5.413   0.156   1.733 -0.3999  0.1093 -0.1640
10861TIP3    H154074   5.329   0.161   1.687  0.4234  1.3399 -1.6007
10861TIP3    H254075   5.404   0.218   1.806 -0.7687  0.1620 -0.2539
10862TIP3   OH254076   2.923   6.573  13.021  0.1561 -0.8446  0.1605
10862TIP3    H154077   2.870   6.626  13.081 -0.0727 -1.1669  0.2442
10862TIP3    H254078   2.891   6.597  12.934  0.9342  0.1125  0.1203
10863TIP3   OH254079   6.666   2.406   3.893  0.7035 -0.4070  0.0029
10863TIP3    H154080   6.655   2.357   3.974 -1.8360  0.8182  0.5004
10863TIP3    H254081   6.749   2.451   3.903  0.9609 -1.1397  1.4423
10864TIP3   OH254082   3.315   2.439   0.004  0.1331 -0.3763  0.4863
10864TIP3    H154083   3.301   2.386   0.083 -0.9208 -1.2108 -0.2302
10864TIP3    H254084   3.235   2.490  -0.004 -0.3988 -1.3748 -0.8295
10865TIP3   OH254085   0.766   4.268   5.563  0.5457 -0.3841 -0.0566
10865TIP3    H154086   0.826   4.278   5.489 -0.8430  1.0303 -1.0334
10865TIP3    H254087   0.824   4.253   5.638  2.1987  1.3034 -0.8972
10866TIP3   OH254088   5.661   3.852   6.810 -0.4562  0.0177 -0.8060
10866TIP3    H154089   5.677   3.797   6.733  1.4749 -2.5567  1.2329
10866TIP3    H254090   5.738   3.910   6.814  0.0194 -0.6262 -0.2724
10867TIP3   OH254091   0.882   3.156   0.103  0.0543  0.0573 -0.1842
10867TIP3    H154092   0.933   3.077   0.086 -1.1495 -0.9159  0.5602
10867TIP3    H254093   0.793   3.134   0.075 -0.1029  1.5189 -0.9277
10868TIP3   OH254094   0.182   1.803   6.266 -0.6747 -0.1484  0.3391
10868TIP3    H154095   0.271   1.781   6.238 -0.9168  0.2533 -0.7978
10868TIP3    H254096   0.157   1.730   6.324 -0.5629 -1.6334 -1.3893
10869TIP3   OH254097   2.029   5.186  15.934 -0.0372  0.0892 -0.5168
10869TIP3    H154098   1.997   5.185  15.843 -2.2633  1.6434  0.1527
10869TIP3    H254099   1.955   5.153  15.985  0.2827  1.4939  0.9105
10870TIP3   OH254100   3.550   6.670   2.345 -0.4813  0.9457 -0.3438
10870TIP3    H154101   3.618   6.718   2.297 -2.3685  2.4116 -1.7435
10870TIP3    H254102   3.470   6.686   2.295 -1.2482 -4.4541 -1.4774
10871TIP3   OH254103   3.733   5.791   0.099  0.1833 -0.1002  0.3175
10871TIP3    H154104   3.828   5.787   0.093  0.1252 -0.8423 -0.2323
10871TIP3    H254105   3.702   5.748   0.019 -0.6138 -0.1572  0.6471
10872TIP3   OH254106   0.909   4.368  13.671 -0.6621  0.6862 -0.2036
10872TIP3    H154107   0.858   4.359  13.590 -0.5010  0.4831 -0.2816
10872TIP3    H254108   0.916   4.463  13.684  0.5357  0.7631 -1.2159
10873TIP3   OH254109   1.040   0.936   0.376  0.1797 -0.0118  0.5663
10873TIP3    H154110   1.063   0.921   0.468  1.9893 -2.2707 -0.1612
10873TIP3    H254111   1.075   1.023   0.356 -1.9664  1.3982  2.4583
10874TIP3   OH254112   5.735   5.162  12.819  0.6117 -0.2966 -0.1087
10874TIP3    H154113   5.783   5.192  12.896  1.7225  1.1725 -1.3185
10874TIP3    H254114   5.803   5.132  12.758 -0.1347 -0.0243 -1.0991
10875TIP3   OH254115   2.905   2.879   3.222  0.3000  0.5453  0.0049
10875TIP3    H154116   2.867   2.850   3.139  0.5674  0.0918  0.0411
10875TIP3    H254117   2.864   2.823   3.288  2.3359 -1.2191 -0.1173
10876TIP3   OH254118   0.954   0.396  13.102  0.2572 -0.1417 -0.0446
10876TIP3    H154119   0.980   0.331  13.167 -1.0027 -1.1011 -0.4580
10876TIP3    H254120   0.873   0.435  13.136  0.6843  0.8045 -0.0787
10877TIP3   OH254121   4.487   4.730  14.038  0.1429  0.0664 -0.3299
10877TIP3    H154122   4.436   4.649  14.053  2.5310 -1.6895 -1.0970
10877TIP3    H254123   4.472   4.751  13.946  1.8892 -1.3438 -0.9884
10878TIP3   OH254124   3.484   6.385   4.519 -0.4963 -0.1016 -0.3227
10878TIP3    H154125   3.500   6.306   4.569  0.5749  0.0687 -0.3764
10878TIP3    H254126   3.404   6.421   4.556 -0.4066 -0.6411  0.4164
10879TIP3   OH254127   6.304   3.766   5.444 -0.3053 -0.1056 -0.2796
10879TIP3    H154128   6.376   3.708   5.467 -0.1484 -0.6019 -1.9103
10879TIP3    H254129   6.344   3.852   5.432 -0.4342  0.2396  1.4513
10880TIP3   OH254130   1.514   0.145  16.832 -0.1004  0.4179 -0.1863
10880TIP3    H154131   1.512   0.129  16.738 -1.2014 -3.0170  0.3058
10880TIP3    H254132   1.601   0.182  16.848  0.6951 -0.3644 -2.3563
10881TIP3   OH254133   4.865   0.488   2.685 -0.3882  0.7363  0.0713
10881TIP3    H154134   4.776   0.504   2.652 -0.4345  1.0278  0.3347
10881TIP3    H254135   4.853   0.437   2.765 -0.1931 -1.9268 -1.4700
10882TIP3   OH254136   6.216   3.600   1.939 -0.2751 -0.6816  0.8523
10882TIP3    H154137   6.216   3.574   1.847 -1.8719  2.4600 -0.2039
10882TIP3    H254138   6.133   3.567   1.974 -1.4995  1.2850 -0.0088
10883TIP3   OH254139   1.371   0.868   3.320  0.2614 -0.0908 -0.1503
10883TIP3    H154140   1.461   0.901   3.313 -0.0142  0.5197 -0.7555
10883TIP3    H254141   1.361   0.810   3.245  0.5323 -1.1029  0.5638
10884TIP3   OH254142   2.578   0.442   4.617  0.6495  0.6296 -0.7618
10884TIP3    H154143   2.488   0.424   4.645  0.7512 -1.7667 -1.6867
10884TIP3    H254144   2.632   0.390   4.677  1.6445  3.4133  0.9380
10885TIP3   OH254145   3.362   0.477  16.221 -0.3399 -0.9243  0.1189
10885TIP3    H154146   3.404   0.481  16.306  0.8981  0.8858 -0.5201
10885TIP3    H254147   3.268   0.469  16.241 -0.0753 -0.5217  1.6389
10886TIP3   OH254148   4.421   3.800   5.079 -0.3053 -0.4037  0.1883
10886TIP3    H154149   4.391   3.711   5.063  0.1790 -0.5143 -0.1238
10886TIP3    H254150   4.422   3.842   4.993 -0.1959 -0.2026  0.2853
10887TIP3   OH254151   4.848   6.765   0.216  0.4133 -0.0686  0.2956
10887TIP3    H154152   4.887   6.760   0.303  2.0000 -0.5946 -0.4101
10887TIP3    H254153   4.878   6.848   0.180  1.4200 -0.7331 -0.4670
10888TIP3   OH254154   0.379   2.626  14.699  0.0241 -0.1343  0.2539
10888TIP3    H154155   0.311   2.559  14.706  0.3539 -0.8308 -2.1321
10888TIP3    H254156   0.331   2.708  14.687 -0.3808 -0.2445  1.0898
10889TIP3   OH254157   4.294   5.825   5.200  0.6074 -0.6954  0.6547
10889TIP3    H154158   4.228   5.864   5.257  0.1633 -1.4578  0.6847
10889TIP3    H254159   4.255   5.827   5.113  0.7004 -0.7963  0.6101
10890TIP3   OH254160   6.803   2.687  17.267  0.3517 -0.4945  0.0605
10890TIP3    H154161   6.821   2.755  17.333 -1.1050 -0.1063  0.0923
10890TIP3    H254162   6.887   2.673  17.223  1.2745 -0.4956  1.7465
10891TIP3   OH254163   5.024   1.117  15.981 -0.3231 -0.1067 -0.0002
10891TIP3    H154164   5.104   1.170  15.979  0.3503 -0.9660  1.9555
10891TIP3    H254165   4.981   1.135  15.897  1.7117  0.6801 -0.9296
10892TIP3   OH254166   6.083   5.546   0.030 -0.3473  1.0710  0.5113
10892TIP3    H154167   6.042   5.582  -0.048  0.5921  0.4968 -0.2689
10892TIP3    H254168   6.071   5.452   0.022  0.0872  0.9829  0.8804
10893TIP3   OH254169   2.790   1.672   2.859  0.5094  0.4153 -0.0133
10893TIP3    H154170   2.755   1.651   2.772  1.3773  0.2399 -0.3347
10893TIP3    H254171   2.732   1.740   2.892 -0.3416 -0.1223 -0.3691
10894TIP3   OH254172   3.974   1.616   4.751 -0.1047 -0.6830  0.7109
10894TIP3    H154173   3.929   1.533   4.736  2.1519 -1.9586  0.6610
10894TIP3    H254174   4.002   1.645   4.664  1.3997 -1.2544  0.9781
10895TIP3   OH254175   0.329   0.685   4.178 -0.3753  0.0836  0.0991
10895TIP3    H154176   0.345   0.676   4.085  0.3339  2.6707 -0.0927
10895TIP3    H254177   0.236   0.663   4.189  0.1852 -3.2154 -0.6478
10896TIP3   OH254178   2.365   3.680  15.315 -0.3856 -0.2234 -0.4256
10896TIP3    H154179   2.451   3.719  15.302 -0.5248 -0.1110 -1.0682
10896TIP3    H254180   2.314   3.747  15.360 -0.0304 -0.4288  0.2869
10897TIP3   OH254181   3.310   2.331  16.870  0.3835 -0.2342  0.9707
10897TIP3    H154182   3.312   2.273  16.946  0.3365 -1.3455  0.1490
10897TIP3    H254183   3.228   2.380  16.880  0.1017 -0.7679  1.3565
10898TIP3   OH254184   5.978   1.192   2.989 -0.3059 -0.0688  0.2333
10898TIP3    H154185   5.984   1.179   3.083  0.2589  1.3057  0.4095
10898TIP3    H254186   5.949   1.107   2.955  0.2227 -0.8129  1.5563
10899TIP3   OH254187   3.435   1.360   1.104 -0.0838  0.0644  0.0411
10899TIP3    H154188   3.443   1.291   1.038 -0.0276  0.0227  0.0907
10899TIP3    H254189   3.482   1.435   1.066 -0.4391  0.1869 -0.1609
10900TIP3   OH254190   1.923   5.727  16.371  0.1257  0.3085 -0.7355
10900TIP3    H154191   1.917   5.821  16.351  0.1089  0.4153 -0.2467
10900TIP3    H254192   1.838   5.705  16.409 -0.2798 -0.1696 -1.8833
10901TIP3   OH254193   3.050   0.279   0.873  0.1350 -0.0222 -0.0987
10901TIP3    H154194   3.059   0.184   0.878 -0.2625 -0.0295  0.5282
10901TIP3    H254195   2.971   0.293   0.821  1.0876 -0.0049 -1.5990
10902TIP3   OH254196   0.568   1.584   3.071 -0.3111 -0.4636  0.6247
10902TIP3    H154197   0.633   1.521   3.101  0.1960  0.1713  0.8820
10902TIP3    H254198   0.490   1.564   3.123 -0.1987 -0.9579  0.6103
10903TIP3   OH254199   2.161   6.116   2.786 -0.5514 -0.0666 -0.5157
10903TIP3    H154200   2.066   6.114   2.797 -0.6373 -0.9577 -1.2893
10903TIP3    H254201   2.190   6.030   2.817 -0.2115 -0.5073 -1.9957
10904TIP3   OH254202   3.945   2.413  10.600  0.0139 -0.3895  0.3674
10904TIP3    H154203   3.948   2.508  10.594  3.1168 -0.2896  1.3739
10904TIP3    H254204   3.904   2.384  10.519  0.0469  1.7687 -0.4731
10905TIP3   OH254205   2.711   4.862  11.999  0.4023 -0.4825 -0.1965
10905TIP3    H154206   2.772   4.814  12.054  2.2306  1.8250 -0.0611
10905TIP3    H254207   2.626   4.847  12.039  0.9770 -2.7859  0.3388
10906TIP3   OH254208   2.345   3.918   3.250 -0.3645 -0.1657 -0.2932
10906TIP3    H154209   2.401   3.844   3.272  0.7895  0.4099 -1.1754
10906TIP3    H254210   2.259   3.880   3.235 -0.2072 -1.0906  0.9940
10907TIP3   OH254211   4.000   5.907  12.606 -0.1743  0.7490  0.0622
10907TIP3    H154212   3.971   5.998  12.599  0.9205  1.0394 -1.2580
10907TIP3    H254213   4.071   5.900  12.542 -0.1471 -1.0054  0.2402
10908TIP3   OH254214   6.654   5.337  14.883 -0.0128 -0.4112  0.3453
10908TIP3    H154215   6.565   5.367  14.865 -0.0043  0.6652  1.8946
10908TIP3    H254216   6.666   5.260  14.828 -2.1920 -1.0512  0.6979
10909TIP3   OH254217   2.859   2.268   3.715  0.6984  0.1674  0.0075
10909TIP3    H154218   2.796   2.316   3.662 -0.3861  0.3547  1.4005
10909TIP3    H254219   2.869   2.184   3.670 -0.3512  0.2313 -0.3810
10910TIP3   OH254220   1.539   3.340  11.388  0.0145 -0.0903  0.0653
10910TIP3    H154221   1.540   3.259  11.439 -0.0596 -0.4390 -0.4778
10910TIP3    H254222   1.610   3.330  11.325  0.0571  0.3008  0.0474
10911TIP3   OH254223   0.904   4.298   2.461  0.4446  0.2500  0.4841
10911TIP3    H154224   0.836   4.248   2.505  2.4514 -1.0022  2.3731
10911TIP3    H254225   0.941   4.237   2.397 -1.2581  1.4949 -1.8804
10912TIP3   OH254226   3.620   4.066   2.158  0.1051 -0.2452 -0.0425
10912TIP3    H154227   3.623   3.975   2.187  0.9840 -0.1333  0.2523
10912TIP3    H254228   3.575   4.113   2.228 -1.3780 -0.6125 -0.6968
10913TIP3   OH254229   3.477   4.748   1.823  0.0045 -0.0082 -0.0525
10913TIP3    H154230   3.461   4.698   1.743 -0.6216  0.9915 -0.5786
10913TIP3    H254231   3.564   4.786   1.811  1.2711 -2.3466  1.1278
10914TIP3   OH254232   2.718   1.050  14.729  0.1061  0.0010 -0.2020
10914TIP3    H154233   2.722   1.067  14.635 -0.6377  0.3908 -0.1710
10914TIP3    H254234   2.678   1.129  14.766  0.8857  0.0687  0.5049
10915TIP3   OH254235   0.604   6.503   4.369 -0.3312 -0.5903 -0.5707
10915TIP3    H154236   0.666   6.571   4.345 -0.9462  0.3681  0.4715
10915TIP3    H254237   0.527   6.522   4.316 -0.6194 -0.2632 -0.0432
10916TIP3   OH254238   1.283   2.483  16.425 -0.0571  0.1376 -0.5523
10916TIP3    H154239   1.240   2.462  16.508  1.5645  0.3951  0.3844
10916TIP3    H254240   1.211   2.494  16.363 -1.5443  2.7913  1.4334
10917TIP3   OH254241   4.455   0.372  16.099  0.3815  0.1941  0.6202
10917TIP3    H154242   4.366   0.344  16.079  0.3580  1.1227 -0.7532
10917TIP3    H254243   4.496   0.297  16.142 -0.1998 -1.2824 -1.2704
10918TIP3   OH254244   5.241   4.570  17.285 -0.1376  0.1601  0.1224
10918TIP3    H154245   5.218   4.516  17.360 -1.3893  1.7819  0.9776
10918TIP3    H254246   5.161   4.620  17.266  1.1165  2.1288 -0.2273
10919TIP3   OH254247   2.470   5.701   5.266 -0.2359 -0.2478  0.1696
10919TIP3    H154248   2.457   5.651   5.347 -1.4809 -1.0764 -0.5165
10919TIP3    H254249   2.504   5.637   5.203  0.0636  0.2305 -0.1676
10920TIP3   OH254250   0.055   5.113   1.335 -0.2290  1.3345 -0.5550
10920TIP3    H154251   0.139   5.070   1.351 -0.9352 -0.1014 -0.5752
10920TIP3    H254252   0.024   5.139   1.421 -0.1931  1.0118 -0.4420
10921TIP3   OH254253   2.872   3.984  13.458  0.9503  0.3388 -0.1633
10921TIP3    H154254   2.858   4.040  13.534  0.1350  0.3696 -0.3221
10921TIP3    H254255   2.794   3.997  13.404  0.3399 -1.5525  0.1832
10922TIP3   OH254256   4.211   5.427  15.689 -0.4736  0.2757 -0.1539
10922TIP3    H154257   4.169   5.479  15.621  1.9154  0.9379 -1.2176
10922TIP3    H254258   4.187   5.336  15.668  2.1700  0.1733 -3.5377
10923TIP3   OH254259   2.480   1.596  16.164 -0.0070 -1.0642  0.5236
10923TIP3    H154260   2.563   1.594  16.212 -0.2172  0.2375  0.9910
10923TIP3    H254261   2.506   1.579  16.073  0.7488 -0.9455  0.7041
10924TIP3   OH254262   5.117   0.031   2.686 -0.1507 -0.4302  0.3086
10924TIP3    H154263   5.156  -0.031   2.748 -1.4595 -0.2524  1.3524
10924TIP3    H254264   5.055   0.082   2.739 -2.0407 -0.9273 -1.3255
10925TIP3   OH254265   0.006   2.350  11.115  0.9737  0.4487  0.2116
10925TIP3    H154266   0.029   2.423  11.172 -1.9158  1.4243  0.3207
10925TIP3    H254267  -0.018   2.279  11.176 -2.0516  1.4712  0.3967
10926TIP3   OH254268   4.182   3.342   5.971  0.4070 -0.6109 -0.0794
10926TIP3    H154269   4.123   3.417   5.963  0.6166 -0.4960 -0.5759
10926TIP3    H254270   4.179   3.319   6.064 -1.6065 -1.5590 -0.3140
10927TIP3   OH254271   2.454   5.525   1.643 -0.1333  0.3074  0.6591
10927TIP3    H154272   2.415   5.451   1.597  0.3747  0.9330 -0.8575
10927TIP3    H254273   2.429   5.601   1.591  2.2847  0.8270  0.1566
10928TIP3   OH254274   0.368   2.218   0.016  0.4537 -0.4365 -0.2821
10928TIP3    H154275   0.380   2.311   0.038  0.0589 -0.1925 -1.0842
10928TIP3    H254276   0.274   2.211  -0.005  0.0061 -1.4552  1.8189
10929TIP3   OH254277   1.877   2.480  10.786  0.2971 -0.4474 -0.3445
10929TIP3    H154278   1.923   2.502  10.705 -0.5179  5.1393  0.2811
10929TIP3    H254279   1.946   2.462  10.849  1.0505 -1.9546 -1.5487
10930TIP3   OH254280   1.185   0.572   4.380 -0.3793 -0.2940 -0.4949
10930TIP3    H154281   1.256   0.522   4.422 -0.8952 -1.1082 -0.5567
10930TIP3    H254282   1.114   0.571   4.445  0.7738  3.5122  1.0635
10931TIP3   OH254283   1.244   2.842   6.107 -0.5071 -0.0477 -0.0974
10931TIP3    H154284   1.198   2.802   6.181 -0.4293 -1.3563 -0.7290
10931TIP3    H254285   1.176   2.888   6.058 -0.6477  0.3724  0.4835
10932TIP3   OH254286   0.280   4.659  13.701  0.3527  0.4291  0.4457
10932TIP3    H154287   0.347   4.724  13.684  2.1480 -1.8488 -1.9948
10932TIP3    H254288   0.326   4.588  13.746 -0.3719 -1.0611 -1.0336
10933TIP3   OH254289   5.891   6.313   5.641 -0.1629 -0.3333 -0.0135
10933TIP3    H154290   5.839   6.269   5.707  1.7936  0.3868  2.1351
10933TIP3    H254291   5.968   6.347   5.688  0.1814  2.3081 -2.1675
10934TIP3   OH254292   6.036   0.517   2.355  0.0107 -0.7278 -0.0847
10934TIP3    H154293   6.030   0.609   2.381 -1.3112 -0.9156  0.3445
10934TIP3    H254294   6.056   0.470   2.436 -0.1789 -0.9091 -0.1413
10935TIP3   OH254295   6.348   3.245  12.994  0.2483 -0.0259  0.1781
10935TIP3    H154296   6.413   3.176  12.997  1.6966  1.2483 -0.6667
10935TIP3    H254297   6.361   3.294  13.075  1.3786  1.1049 -0.6592
10936TIP3   OH254298   3.570   2.270   6.105  0.0936  0.1229 -0.2669
10936TIP3    H154299   3.480   2.263   6.136  0.1495 -1.4853 -0.3983
10936TIP3    H254300   3.607   2.183   6.118  1.1424  0.3148 -1.7033
10937TIP3   OH254301   5.533   4.185   1.586 -0.3790 -0.5729  0.4815
10937TIP3    H154302   5.621   4.166   1.554 -0.4673 -0.7021  0.3113
10937TIP3    H254303   5.526   4.136   1.668  0.3570  0.8747  1.4679
10938TIP3   OH254304   5.597   4.048  13.558  0.1427  0.3494  0.5248
10938TIP3    H154305   5.571   4.021  13.470 -0.8100  1.6914  0.3564
10938TIP3    H254306   5.515   4.045  13.608  0.3063  1.3269  0.8793
10939TIP3   OH254307   3.427   0.505   0.775  0.3866 -0.1080  0.0663
10939TIP3    H154308   3.460   0.452   0.848  0.2566 -0.6838 -0.2832
10939TIP3    H254309   3.396   0.586   0.816  0.5291 -0.3281  0.6212
10940TIP3   OH254310   4.209   6.630  10.987  0.4267  0.4601  0.0306
10940TIP3    H154311   4.128   6.620  11.036 -0.5215 -0.8167 -1.6760
10940TIP3    H254312   4.181   6.634  10.895  2.3752 -1.9973 -0.7782
10941TIP3   OH254313   0.236   1.304   5.138 -0.1945 -0.0613  0.5701
10941TIP3    H154314   0.256   1.293   5.231 -0.7403  0.6631  0.7839
10941TIP3    H254315   0.268   1.224   5.097  0.7330 -0.0657  1.2662
10942TIP3   OH254316   3.612   6.292  16.017 -0.4291 -0.3211 -0.8781
10942TIP3    H154317   3.618   6.285  16.112 -1.4033 -0.0004 -0.7889
10942TIP3    H254318   3.695   6.255  15.985  0.1036 -0.0106  0.1032
10943TIP3   OH254319   4.700   0.445  12.957 -0.3049 -0.0481  0.4054
10943TIP3    H154320   4.776   0.391  12.938  1.1794  1.3629  1.9522
10943TIP3    H254321   4.634   0.384  12.991  0.1693 -1.2689 -0.8142
10944TIP3   OH254322   5.984   5.136   0.525  0.3726 -0.1292 -0.1313
10944TIP3    H154323   6.073   5.144   0.490  0.0474  2.6841 -0.5831
10944TIP3    H254324   5.997   5.120   0.619  1.3301 -1.1154 -0.4117
10945TIP3   OH254325   4.096   3.651   0.474 -0.7159 -0.0329 -0.0216
10945TIP3    H154326   4.138   3.664   0.559 -1.2495 -2.0120  0.5963
10945TIP3    H254327   4.090   3.739   0.437  0.7060  0.7265  1.4038
10946TIP3   OH254328   0.175   3.505  12.027 -0.4239  0.5251 -0.0086
10946TIP3    H154329   0.158   3.502  12.122  0.7159 -2.0669  0.1931
10946TIP3    H254330   0.111   3.445  11.990  1.2729 -1.1137 -0.4308
10947TIP3   OH254331   3.647   1.134  15.078 -0.2930  0.4283  0.5206
10947TIP3    H154332   3.604   1.182  15.149 -0.9307 -0.3587  0.6857
10947TIP3    H254333   3.665   1.200  15.011 -2.4867  0.6962  0.1112
10948TIP3   OH254334   0.063   2.995   1.814  0.4674 -0.1777  0.5007
10948TIP3    H154335   0.106   3.074   1.781 -0.2469  0.0377  0.0431
10948TIP3    H254336   0.053   3.010   1.908  0.3325  0.2870  0.4148
10949TIP3   OH254337   0.266   0.217  14.525 -0.0439  0.6076 -0.4548
10949TIP3    H154338   0.309   0.262  14.597 -0.5115  1.8295 -0.9099
10949TIP3    H254339   0.303   0.129  14.526  1.1211  1.0830  0.2857
10950TIP3   OH254340   1.558   4.428  16.310  0.2979  0.4398 -0.1267
10950TIP3    H154341   1.471   4.393  16.330  1.4213 -1.2534  2.1630
10950TIP3    H254342   1.571   4.407  16.218 -0.9040 -1.1298  0.0192
10951TIP3   OH254343   3.507   1.839   3.244  0.2113 -0.3443  0.5519
10951TIP3    H154344   3.457   1.913   3.209  0.6556  0.3042  1.2643
10951TIP3    H254345   3.517   1.780   3.169  0.2793  0.5450 -0.1603
10952TIP3   OH254346   6.143   6.246   2.608  0.0671 -0.1043  0.0666
10952TIP3    H154347   6.121   6.202   2.690 -0.1719  0.9715  0.6087
10952TIP3    H254348   6.213   6.194   2.569 -1.6473 -2.1761 -0.4145
10953TIP3   OH254349   5.472   3.272  14.149  0.4486  0.2710  0.3858
10953TIP3    H154350   5.427   3.331  14.088 -2.4748 -2.0961 -0.0235
10953TIP3    H254351   5.544   3.236  14.098  1.0948  1.9955  0.0215
10954TIP3   OH254352   1.830   2.407  14.322  0.5254 -0.8457  0.6290
10954TIP3    H154353   1.741   2.434  14.345  0.4183 -2.3751  2.1462
10954TIP3    H254354   1.818   2.341  14.253  0.6599  0.7170 -0.9805
10955TIP3   OH254355   3.685   0.634   3.381 -0.2679 -0.0813 -0.0163
10955TIP3    H154356   3.669   0.548   3.420  0.5126  0.1972  0.9583
10955TIP3    H254357   3.707   0.691   3.455 -0.1333  0.8038 -0.7163
10956TIP3   OH254358   2.265   1.044  13.381  0.0830  0.1961 -0.5626
10956TIP3    H154359   2.247   0.954  13.409  1.2538 -0.0268 -0.4724
10956TIP3    H254360   2.335   1.035  13.317 -1.2837  0.8753 -2.2125
10957TIP3   OH254361   6.262   2.488  14.709 -0.2591 -0.2307 -0.0954
10957TIP3    H154362   6.223   2.546  14.644  0.6798 -0.7459 -1.1529
10957TIP3    H254363   6.349   2.468  14.674  0.1388 -0.7985  1.1599
10958TIP3   OH254364   1.966   4.486  16.166  0.5757 -0.0356 -0.0305
10958TIP3    H154365   2.055   4.505  16.137  0.3537 -1.1739 -1.5893
10958TIP3    H254366   1.974   4.469  16.259  1.8086  0.9516  0.0696
10959TIP3   OH254367   2.968   2.637   4.185  0.1806 -0.4159  0.0966
10959TIP3    H154368   2.950   2.649   4.278 -0.7488  1.0191 -0.2248
10959TIP3    H254369   2.909   2.567   4.157  0.2479 -0.6424  0.5220
10960TIP3   OH254370   2.071   0.185   2.484 -0.2553  0.0855 -0.4690
10960TIP3    H154371   2.040   0.271   2.456 -0.4492  0.7003  1.4432
10960TIP3    H254372   2.130   0.157   2.415 -0.5138  1.5718 -1.3440
10961TIP3   OH254373   5.403   2.470   1.250  0.4658  0.0660  0.1963
10961TIP3    H154374   5.459   2.494   1.177  1.0228  1.5987  1.0782
10961TIP3    H254375   5.453   2.403   1.298  0.0549 -1.0140 -0.8377
10962TIP3   OH254376   1.649   1.457   4.471 -0.3986 -0.2096 -0.4342
10962TIP3    H154377   1.577   1.507   4.432  0.5595  0.5600 -1.2558
10962TIP3    H254378   1.633   1.461   4.566 -1.9852 -0.9242 -0.6361
10963TIP3   OH254379   2.333   6.652   4.058 -0.3299 -0.0621  0.1413
10963TIP3    H154380   2.356   6.573   4.106 -0.1660  1.2140  2.3217
10963TIP3    H254381   2.404   6.714   4.078 -0.8028  0.8663 -0.9216
10964TIP3   OH254382   0.462   6.025   2.988 -0.2091  0.9218  0.0516
10964TIP3    H154383   0.433   6.114   2.970  0.9492  0.9768 -1.7811
10964TIP3    H254384   0.428   6.006   3.075 -4.2539  1.5346 -1.2089
10965TIP3   OH254385   3.943   0.341   5.835  0.4329  0.0324  0.1572
10965TIP3    H154386   3.942   0.376   5.924  0.4943 -1.3505  0.7305
10965TIP3    H254387   3.963   0.416   5.779 -2.2195  1.5146  1.0212
10966TIP3   OH254388   4.037   5.524   0.104 -0.2354  0.0527  0.5308
10966TIP3    H154389   3.993   5.458   0.157  0.2418  1.4383  2.8183
10966TIP3    H254390   4.130   5.503   0.110 -0.2221 -0.2254 -0.4527
10967TIP3   OH254391   2.250   0.694   1.482  0.2207 -0.0966  0.3802
10967TIP3    H154392   2.308   0.762   1.449 -0.3325  0.2887  0.1755
10967TIP3    H254393   2.167   0.739   1.499 -0.8746 -1.0817 -1.8298
10968TIP3   OH254394   5.991   3.534  11.727 -0.4520 -0.3120 -0.0765
10968TIP3    H154395   6.045   3.455  11.721 -1.6206 -1.1292 -0.2301
10968TIP3    H254396   5.921   3.520  11.664 -1.6142  0.0833  1.0947
10969TIP3   OH254397   1.596   2.135  15.107 -0.1073  0.1974  0.4560
10969TIP3    H154398   1.597   2.230  15.119 -0.4491  0.3816 -0.7528
10969TIP3    H254399   1.684   2.107  15.129 -0.1255  0.7301  1.2506
10970TIP3   OH254400   1.801   4.488  13.445  0.4542 -0.0543  0.8922
10970TIP3    H154401   1.736   4.437  13.493  1.9513 -0.1509  2.9505
10970TIP3    H254402   1.756   4.569  13.421 -0.9111 -0.8423  0.7009
10971TIP3   OH254403   6.331   1.966   0.386 -0.4936  0.2454 -0.2932
10971TIP3    H154404   6.349   1.873   0.395  0.5264  0.4344 -0.2282
10971TIP3    H254405   6.263   1.971   0.319 -0.7635 -0.5582 -0.0840
10972TIP3   OH254406   1.783   0.155   2.205 -0.3394  0.1869  0.4366
10972TIP3    H154407   1.721   0.216   2.245 -0.2138 -0.1116  1.1091
10972TIP3    H254408   1.866   0.202   2.204 -0.6178  0.6812 -0.6979
10973TIP3   OH254409   0.856   5.276   5.879  0.6897  0.1342 -0.3467
10973TIP3    H154410   0.818   5.297   5.965  1.3161  0.9137 -0.2389
10973TIP3    H254411   0.941   5.237   5.900  0.7833  0.2001 -0.6008
10974TIP3   OH254412   5.353   4.262   4.234 -0.1854  0.7548 -1.0392
10974TIP3    H154413   5.383   4.352   4.222 -2.6141  1.6670 -0.7766
10974TIP3    H254414   5.380   4.217   4.154  1.4723  1.5656 -0.9711
10975TIP3   OH254415   4.281   0.239  15.903  0.7435  0.7117  0.5861
10975TIP3    H154416   4.289   0.144  15.900  1.4128  0.7785  0.1317
10975TIP3    H254417   4.355   0.272  15.852 -0.0974  1.4566 -0.2037
10976TIP3   OH254418   5.989   4.960  14.872  1.2004 -0.0370 -0.9020
10976TIP3    H154419   5.947   5.016  14.806  1.1613 -0.7480 -1.4875
10976TIP3    H254420   6.040   4.897  14.822  1.2357 -0.5456 -0.2457
10977TIP3   OH254421   4.335   5.050  14.511  0.0857 -0.2598  0.1314
10977TIP3    H154422   4.359   5.023  14.422  0.5264  1.1241 -0.1999
10977TIP3    H254423   4.239   5.045  14.512 -0.1883  2.4614 -1.4390
10978TIP3   OH254424   4.726   3.627   3.271  0.2457 -0.1184  0.0664
10978TIP3    H154425   4.666   3.652   3.341  1.8663 -0.8518  1.8024
10978TIP3    H254426   4.812   3.653   3.302  0.9632  0.1710 -2.0003
10979TIP3   OH254427   3.165   0.696   1.258 -0.1382 -0.8669  0.1812
10979TIP3    H154428   3.230   0.632   1.288 -0.3270 -0.4832  1.4671
10979TIP3    H254429   3.216   0.767   1.219  0.4355  0.5249  3.2332
10980TIP3   OH254430   6.009   3.825   2.935 -0.6784  0.3759 -0.2682
10980TIP3    H154431   6.018   3.916   2.908  1.9036  1.1253  2.5471
10980TIP3    H254432   6.075   3.814   3.003 -2.8514 -2.8111  1.5776
10981TIP3   OH254433   0.714   6.239  14.911  0.0542  0.1982  0.0842
10981TIP3    H154434   0.688   6.311  14.968  1.1300  0.2169  0.5617
10981TIP3    H254435   0.672   6.162  14.949  1.0784  0.1412  1.1544
10982TIP3   OH254436   4.571   3.039  13.029  0.3438  0.3801 -0.4883
10982TIP3    H154437   4.492   3.066  13.076  0.4419 -0.2088  0.0313
10982TIP3    H254438   4.562   2.944  13.019  1.4193  0.1565  0.4258
10983TIP3   OH254439   5.766   3.240  12.202  0.4489  0.0157 -0.0058
10983TIP3    H154440   5.811   3.308  12.153  1.1369 -0.9526 -0.7401
10983TIP3    H254441   5.804   3.158  12.171 -0.0908 -0.6948  1.1363
10984TIP3   OH254442   0.727   3.744   5.664 -0.0376  0.4223  0.1818
10984TIP3    H154443   0.722   3.656   5.703 -1.8726  1.1006  1.6429
10984TIP3    H254444   0.810   3.779   5.696  0.0118 -0.2440  0.8251
10985TIP3   OH254445   5.181   4.487   5.912 -0.0069  0.1393 -0.6144
10985TIP3    H154446   5.163   4.498   6.005  0.2482  0.8801 -0.6496
10985TIP3    H254447   5.113   4.538   5.868  0.8125  1.1087 -0.7914
10986TIP3   OH254448   1.042   5.205   5.296 -0.0584  0.3383  0.6319
10986TIP3    H154449   1.000   5.141   5.238  0.6921  0.1110  0.3333
10986TIP3    H254450   1.015   5.290   5.262  0.9823  0.2340 -0.5402
10987TIP3   OH254451   1.780   3.635  11.222  0.1615  0.3827  0.2376
10987TIP3    H154452   1.695   3.666  11.250  0.3015  0.5373  0.4931
10987TIP3    H254453   1.771   3.540  11.217 -0.6061  0.5083 -1.6438
10988TIP3   OH254454   4.982   3.290   1.588  0.6023  0.7871 -0.4487
10988TIP3    H154455   5.035   3.269   1.665  2.0608 -3.6671 -2.3350
10988TIP3    H254456   5.002   3.382   1.570  1.2714  1.6408  3.5359
10989TIP3   OH254457   2.294   3.689   4.134 -0.2682 -0.1855 -0.1236
10989TIP3    H154458   2.348   3.750   4.084 -2.5180  1.2632 -0.9512
10989TIP3    H254459   2.229   3.658   4.070 -1.6201 -0.3068  1.2580
10990TIP3   OH254460   5.170   2.797   2.658 -0.0582  0.0893 -0.0749
10990TIP3    H154461   5.207   2.749   2.732 -2.5097 -0.3606  0.9685
10990TIP3    H254462   5.145   2.729   2.595  0.2164  0.3148 -0.4279
10991TIP3   OH254463   3.019   5.581   0.989 -0.4017 -0.3032 -0.7232
10991TIP3    H154464   3.105   5.547   1.012 -0.8234 -0.8125  0.1622
10991TIP3    H254465   3.030   5.676   0.988 -0.3205 -0.2310  1.5684
10992TIP3   OH254466   6.802   0.227   1.209 -0.1864  0.3432 -0.0638
10992TIP3    H154467   6.754   0.307   1.188 -0.4824  0.1127 -0.2595
10992TIP3    H254468   6.864   0.254   1.277 -0.3602  0.7154 -0.0513
10993TIP3   OH254469   3.460   5.152   1.700  0.0161  0.1114 -0.3876
10993TIP3    H154470   3.387   5.102   1.737  1.9630 -0.9728  2.3142
10993TIP3    H254471   3.439   5.159   1.607 -2.9204 -1.1431  0.0510
10994TIP3   OH254472   0.756   3.646  12.988  0.4684 -0.5122  0.3174
10994TIP3    H154473   0.736   3.689  12.905  0.8825  1.0404  0.9804
10994TIP3    H254474   0.674   3.604  13.015 -0.5285  1.5030  0.5703
10995TIP3   OH254475   4.496   4.157  13.920  0.5675 -0.5067  0.5677
10995TIP3    H154476   4.479   4.096  13.992 -0.8013  1.1889  1.8061
10995TIP3    H254477   4.487   4.244  13.961 -1.4742  0.5495 -1.8488
10996TIP3   OH254478   2.898   2.698  16.865  0.4405  0.7959  0.6376
10996TIP3    H154479   2.859   2.736  16.786 -0.1453 -0.2818  0.3981
10996TIP3    H254480   2.858   2.747  16.937  0.2452  1.1240  0.3119
10997TIP3   OH254481   6.787   0.113  13.739  0.6272 -0.5656  0.5422
10997TIP3    H154482   6.695   0.087  13.746  0.4900 -0.3398 -0.3016
10997TIP3    H254483   6.806   0.158  13.821  0.6008 -2.4623  1.6545
10998TIP3   OH254484   2.695   3.925  11.925  0.6732 -0.3222  0.5058
10998TIP3    H154485   2.751   3.862  11.880  0.1853 -0.4462  0.0607
10998TIP3    H254486   2.722   4.011  11.892 -0.4360 -0.4840 -0.8984
10999TIP3   OH254487   4.412   1.745  12.329  0.4212 -0.7849 -0.1460
10999TIP3    H154488   4.472   1.817  12.311  1.0414 -0.4187  2.7631
10999TIP3    H254489   4.391   1.708  12.243 -0.2415  3.0414 -1.8392
11000TIP3   OH254490   1.945   1.689   3.639  0.4434 -0.1573 -0.1826
11000TIP3    H154491   1.914   1.659   3.724  0.8951 -1.0830 -0.3356
11000TIP3    H254492   1.978   1.610   3.596  4.0321  0.8559  0.3693
11001TIP3   OH254493   0.714   5.258  14.604  0.0056  0.0656 -0.2234
11001TIP3    H154494   0.645   5.290  14.663 -0.0325 -0.0218 -0.2202
11001TIP3    H254495   0.786   5.235  14.662  0.6212  1.6023 -0.3392
11002TIP3   OH254496   0.812   6.016   3.982 -0.0539  0.0101  0.1316
11002TIP3    H154497   0.844   6.021   4.072 -1.3858  2.2475  0.5495
11002TIP3    H254498   0.753   5.940   3.982  2.1717 -1.8471  0.2922
11003TIP3   OH254499   0.020   1.573   0.009 -0.2577 -0.0871  0.1985
11003TIP3    H154500   0.011   1.482   0.036 -0.4591  0.0863  0.7226
11003TIP3    H254501  -0.011   1.624   0.084 -2.7335  0.3744 -1.0380
11004TIP3   OH254502   4.308   1.862  14.905  0.0176  0.0555  0.5193
11004TIP3    H154503   4.396   1.844  14.872  0.1230  1.1637  0.1837
11004TIP3    H254504   4.291   1.953  14.881 -1.4167 -0.2877  0.1307
11005TIP3   OH254505   3.431   0.003   0.114 -0.3597  0.2737  0.1762
11005TIP3    H154506   3.362   0.052   0.158 -0.8216  0.2452 -0.5105
11005TIP3    H254507   3.392  -0.028   0.033  0.5787  0.6324 -0.4415
11006TIP3   OH254508   3.232   4.025  14.161 -0.3557 -0.3986  0.1579
11006TIP3    H154509   3.182   3.945  14.179 -1.1366 -0.0647 -0.4840
11006TIP3    H254510   3.173   4.096  14.186 -0.7287  0.0347 -1.7854
11007TIP3   OH254511   0.564   5.612   3.465 -0.3788  0.2129 -0.7399
11007TIP3    H154512   0.556   5.520   3.440 -0.4624  0.7162 -2.6977
11007TIP3    H254513   0.480   5.651   3.441 -0.5551  0.7239  0.5956
11008TIP3   OH254514   2.564   5.845  11.623 -0.1124 -0.3530  0.0923
11008TIP3    H154515   2.481   5.848  11.576  0.3823  0.4025 -0.7869
11008TIP3    H254516   2.580   5.752  11.639 -1.8856 -0.4221  1.7078
11009TIP3   OH254517   4.881   2.235   1.951 -0.6979 -0.0217 -0.1328
11009TIP3    H154518   4.940   2.191   1.890  0.9682 -0.4732  1.6773
11009TIP3    H254519   4.897   2.328   1.938 -2.4382  0.0618 -2.2657
11010TIP3   OH254520   0.751   6.735  17.069 -0.0308  0.4443  0.1505
11010TIP3    H154521   0.733   6.801  17.002  0.2900  0.9172  0.5317
11010TIP3    H254522   0.823   6.771  17.120  0.3542 -0.3368  0.1735
11011TIP3   OH254523   1.142   5.764   6.108 -0.2377 -0.0912 -0.1557
11011TIP3    H154524   1.203   5.785   6.037  0.6215  2.9198  1.3371
11011TIP3    H254525   1.194   5.769   6.188 -1.5272 -1.8748  0.8673
11012TIP3   OH254526   3.806   0.418   2.398 -0.0381 -0.1145  0.0152
11012TIP3    H154527   3.742   0.466   2.450 -0.5940 -0.9181  0.0837
11012TIP3    H254528   3.887   0.468   2.408 -0.1825 -0.1431  1.5024
11013TIP3   OH254529   0.418   0.477   1.169 -0.0827  0.0656  0.3279
11013TIP3    H154530   0.467   0.542   1.119 -0.6319 -0.5839 -1.1121
11013TIP3    H254531   0.336   0.522   1.193 -0.9156 -0.3444 -1.5415
11014TIP3   OH254532   6.645   1.562   3.896  0.8526 -0.2364 -0.0542
11014TIP3    H154533   6.637   1.543   3.990 -0.3133  0.5908  0.0418
11014TIP3    H254534   6.598   1.645   3.885 -0.9395 -1.4170 -1.7397
11015TIP3   OH254535   6.727   5.486   1.681 -0.0079  0.2756 -0.1852
11015TIP3    H154536   6.752   5.488   1.774 -0.5747  2.2023 -0.0244
11015TIP3    H254537   6.810   5.471   1.635  0.7935  2.0382  0.5431
11016TIP3   OH254538   0.086   1.214  14.066 -0.4191  0.1641  0.2519
11016TIP3    H154539   0.140   1.137  14.080  0.1494  0.7869  1.6995
11016TIP3    H254540  -0.004   1.183  14.074 -0.2285 -0.5465 -0.3365
11017TIP3   OH254541   1.706   3.689  12.783 -0.2281 -0.2791  0.9558
11017TIP3    H154542   1.678   3.642  12.704 -0.1276 -0.7636  1.1994
11017TIP3    H254543   1.797   3.661  12.795 -0.6600 -1.3174  2.0243
11018TIP3   OH254544   1.521   1.741   5.195 -0.5219  0.0167 -0.0248
11018TIP3    H154545   1.496   1.735   5.103 -0.9621  0.6467  0.0486
11018TIP3    H254546   1.549   1.831   5.207  1.7926 -0.6298 -0.0858
11019TIP3   OH254547   2.055   1.008  15.409  0.2209  0.2731  0.0987
11019TIP3    H154548   2.017   1.096  15.415 -0.7246 -0.1897  1.3753
11019TIP3    H254549   2.106   0.998  15.490 -0.3549 -0.6446  0.3628
11020TIP3   OH254550   2.456   2.108   6.254 -0.2122 -0.3836 -0.3655
11020TIP3    H154551   2.476   2.198   6.226  1.2041 -0.3847  0.5240
11020TIP3    H254552   2.508   2.096   6.334  1.1458 -2.6262 -1.4858
11021TIP3   OH254553   1.306   1.271  15.132 -0.2074  0.3761 -0.1503
11021TIP3    H154554   1.268   1.359  15.133  0.4935  0.7014 -0.9615
11021TIP3    H254555   1.307   1.246  15.040  0.0082 -0.3052  0.0316
11022TIP3   OH254556   6.484   0.898  10.633  0.3181  0.0491  0.5779
11022TIP3    H154557   6.460   0.983  10.597  0.5261 -0.0655  0.1724
11022TIP3    H254558   6.572   0.881  10.600 -0.3272 -1.0494 -0.6557
11023TIP3   OH254559   2.198   6.060   3.141  0.2823  0.1668  0.8858
11023TIP3    H154560   2.287   6.047   3.108  0.0728 -0.0813  0.4193
11023TIP3    H254561   2.189   6.156   3.146  0.1379  0.2326 -0.2865
11024TIP3   OH254562   1.934   3.451   5.500 -0.2580  0.1398  0.0810
11024TIP3    H154563   1.972   3.366   5.522 -0.7609 -0.2592 -0.5758
11024TIP3    H254564   1.886   3.436   5.419 -1.3320  0.7765  0.5758
11025TIP3   OH254565   4.030   0.030  13.106  0.1480 -0.1741  0.7711
11025TIP3    H154566   4.085   0.035  13.184  2.3038  0.8135 -0.7042
11025TIP3    H254567   4.092   0.036  13.033 -1.9242  0.9612 -1.0036
11026TIP3   OH254568   1.734   4.665  15.206 -0.6891  0.4639  0.2442
11026TIP3    H154569   1.710   4.750  15.170 -0.2194 -0.2374 -1.8878
11026TIP3    H254570   1.653   4.613  15.201 -1.3677  1.1031  2.8480
11027TIP3   OH254571   1.839   4.902   2.728  0.2488  0.3103 -0.1829
11027TIP3    H154572   1.835   4.883   2.822  0.1492 -2.6634 -0.7169
11027TIP3    H254573   1.756   4.948   2.710 -2.2118 -3.4712  0.4132
11028TIP3   OH254574   1.701   3.885  12.040  0.2824  0.3224  0.0052
11028TIP3    H154575   1.699   3.839  11.956  1.9373 -0.4960  0.3628
11028TIP3    H254576   1.662   3.971  12.022  1.2933  0.4499 -1.7828
11029TIP3   OH254577   6.526   0.745  13.676  0.2348 -0.2201 -0.0337
11029TIP3    H154578   6.540   0.733  13.770 -0.0594  0.6232  0.1206
11029TIP3    H254579   6.546   0.659  13.639  1.6220 -0.2246  0.6406
11030TIP3   OH254580   3.736   3.561  16.693 -0.7733  0.5106  0.0738
11030TIP3    H154581   3.788   3.517  16.760 -3.2048 -0.0649  1.7244
11030TIP3    H254582   3.675   3.493  16.662 -0.5810  1.1341 -1.7911
11031TIP3   OH254583   2.100   3.658  14.707  0.3248 -0.2237  0.0338
11031TIP3    H154584   2.148   3.675  14.788  1.0561 -1.3005 -0.1573
11031TIP3    H254585   2.035   3.729  14.702 -2.3562 -2.1089  3.5255
11032TIP3   OH254586   1.926   2.921   2.266  0.6151  0.6757 -0.5168
11032TIP3    H154587   1.998   2.974   2.299  0.1259 -0.1741  2.1740
11032TIP3    H254588   1.851   2.945   2.321 -0.8312  0.5053 -2.2979
11033TIP3   OH254589   2.008   2.459  14.545  0.4087 -0.4511  0.1122
11033TIP3    H154590   1.926   2.441  14.498 -0.5235  0.6716  1.2264
11033TIP3    H254591   2.056   2.518  14.488 -1.6696  2.6950  1.3279
11034TIP3   OH254592   4.851   0.852  15.752  0.2711  0.3719 -0.0077
11034TIP3    H154593   4.767   0.823  15.717  0.7930 -0.3843 -0.6752
11034TIP3    H254594   4.845   0.947  15.752 -0.6024  0.3258 -0.0008
11035TIP3   OH254595   4.565   5.860  16.820 -0.0243  0.6802 -0.0480
11035TIP3    H154596   4.488   5.804  16.822 -0.4587  1.2662 -0.0326
11035TIP3    H254597   4.531   5.946  16.793  0.9033  0.4952 -1.9069
11036TIP3   OH254598   4.222   1.655   4.857 -0.5400 -0.5718 -0.0627
11036TIP3    H154599   4.139   1.621   4.823 -0.2515 -0.0760 -1.3522
11036TIP3    H254600   4.254   1.711   4.786 -0.5280  1.5869  1.5660
11037TIP3   OH254601   2.612   3.348  15.638 -0.2163 -0.5746  0.6319
11037TIP3    H154602   2.575   3.376  15.555  1.8036 -0.6679 -0.3432
11037TIP3    H254603   2.661   3.424  15.669  0.8801 -1.2664  0.6184
11038TIP3   OH254604   2.852   4.520  15.507 -0.7335 -0.1318 -0.7002
11038TIP3    H154605   2.843   4.583  15.436  2.0162 -0.2315 -1.2436
11038TIP3    H254606   2.864   4.574  15.586  0.9676  0.0900 -1.0684
11039TIP3   OH254607   1.388   2.745  13.300  0.0330 -0.3138  0.0177
11039TIP3    H154608   1.431   2.755  13.385  0.2957 -0.9832 -0.0272
11039TIP3    H254609   1.452   2.700  13.245  0.5842  1.7950 -1.1454
11040TIP3   OH254610   2.434   3.119   0.081  0.4296  0.5580 -0.4080
11040TIP3    H154611   2.482   3.036   0.076 -0.1110  0.2833 -1.2471
11040TIP3    H254612   2.366   3.103   0.146  1.7751  1.1240  1.1975
11041TIP3   OH254613   2.986   1.927  11.533 -0.0175  0.4420 -0.6624
11041TIP3    H154614   2.971   1.872  11.456 -1.2557  1.3472 -1.0990
11041TIP3    H254615   2.943   2.009  11.512 -0.3279  0.7238  0.9918
11042TIP3   OH254616   3.174   0.862   5.404 -0.2762 -0.3434 -0.0727
11042TIP3    H154617   3.225   0.910   5.339 -0.0556  0.8051  0.9044
11042TIP3    H254618   3.228   0.786   5.426 -0.0571 -0.3871 -0.7417
11043TIP3   OH254619   2.789   0.014   2.909  0.4372  0.3436  0.1618
11043TIP3    H154620   2.741   0.026   2.828  0.2356  1.0357  0.3712
11043TIP3    H254621   2.754   0.081   2.968  1.0033  0.2508  0.6205
11044TIP3   OH254622   1.938   0.487   5.819  0.2621 -0.1102  0.1601
11044TIP3    H154623   1.923   0.418   5.755 -0.1349 -0.2032  0.3510
11044TIP3    H254624   2.028   0.516   5.803 -0.1214  0.4776 -1.0099
11045TIP3   OH254625   1.792   6.691  13.343 -0.6502  0.3655 -0.3815
11045TIP3    H154626   1.803   6.786  13.343 -1.1676  0.4511 -2.0755
11045TIP3    H254627   1.865   6.659  13.396  0.3644  1.6177 -0.9585
11046TIP3   OH254628   4.440   0.390  12.791  0.6843 -1.1117 -0.2191
11046TIP3    H154629   4.457   0.423  12.879  0.1259  0.2608 -0.6034
11046TIP3    H254630   4.473   0.459  12.733  0.9262 -1.9385 -1.0903
11047TIP3   OH254631   1.204   0.852   1.486  0.0028 -0.2823  0.1691
11047TIP3    H154632   1.139   0.868   1.555  1.5659  1.6043  1.2947
11047TIP3    H254633   1.160   0.879   1.405 -1.4284 -1.3928  0.5156
11048TIP3   OH254634   2.238   3.393  16.325 -0.1646 -0.1760 -0.4706
11048TIP3    H154635   2.222   3.304  16.293 -0.6022  0.2759 -1.5234
11048TIP3    H254636   2.189   3.397  16.407 -1.0016 -0.5776 -0.9303
11049TIP3   OH254637   4.960   1.450  10.645  0.0966 -0.1241 -0.2724
11049TIP3    H154638   4.888   1.387  10.647 -0.3134  0.3657  1.0970
11049TIP3    H254639   4.926   1.527  10.691  1.6195 -0.0223  0.7346
11050TIP3   OH254640   1.760   3.205   0.303 -0.7819  0.2677 -1.0373
11050TIP3    H154641   1.745   3.204   0.398  0.3684  0.6030 -0.8299
11050TIP3    H254642   1.835   3.147   0.290 -0.1136  1.2174 -1.5654
11051TIP3   OH254643   2.381   1.282  16.606  0.2457 -0.7141 -0.5363
11051TIP3    H154644   2.409   1.313  16.520 -0.5247  3.9558  0.5875
11051TIP3    H254645   2.288   1.302  16.609  0.3486 -0.3091  1.4651
11052TIP3   OH254646   3.443   3.335   3.043 -0.4158  0.8059  0.5885
11052TIP3    H154647   3.436   3.264   3.107  0.1713  1.0532  0.9313
11052TIP3    H254648   3.372   3.395   3.066  0.2073  1.2336  1.4444
11053TIP3   OH254649   1.337   6.408  14.631 -0.3771 -0.3195 -0.1235
11053TIP3    H154650   1.400   6.405  14.559  0.4802 -1.7271  0.6422
11053TIP3    H254651   1.379   6.360  14.702 -1.2389  0.9373  1.3137
11054TIP3   OH254652   2.662   1.632  13.080 -0.2836 -0.3401  0.0083
11054TIP3    H154653   2.677   1.585  12.999 -1.6062 -0.5839 -0.1120
11054TIP3    H254654   2.744   1.680  13.095  0.0900 -0.5273 -1.2909
11055TIP3   OH254655   0.784   5.036  16.891 -0.3793  0.6550 -0.2407
11055TIP3    H154656   0.691   5.059  16.902 -0.4156  0.5452 -0.3173
11055TIP3    H254657   0.783   4.955  16.840 -0.1957  1.7687 -2.1350
11056TIP3   OH254658   1.753   4.682  17.239 -0.1484  0.5005  1.2618
11056TIP3    H154659   1.845   4.691  17.264  0.4443 -0.9888 -0.1570
11056TIP3    H254660   1.734   4.589  17.252 -0.2528 -0.0579 -1.9597
11057TIP3   OH254661   5.416   5.495  16.957  0.6309  0.1801 -0.1967
11057TIP3    H154662   5.364   5.531  17.028  0.8120  1.4975 -0.7094
11057TIP3    H254663   5.476   5.565  16.932  2.7779 -1.3045  0.4494
11058TIP3   OH254664   1.455   1.469  15.816 -0.2489 -0.5247 -0.3086
11058TIP3    H154665   1.512   1.404  15.859  1.2786  0.1028 -1.2963
11058TIP3    H254666   1.371   1.424  15.806 -0.1328 -1.3079  1.6764
11059TIP3   OH254667   3.937   1.641   1.636  0.0498  0.0068 -0.5712
11059TIP3    H154668   3.893   1.631   1.721  0.1353  0.4607 -0.4736
11059TIP3    H254669   3.868   1.672   1.577  0.1105  0.1884 -0.5468
11060TIP3   OH254670   5.812   1.462  16.460 -0.0998 -0.1247 -0.1543
11060TIP3    H154671   5.871   1.509  16.400  1.3625  2.2362  2.8377
11060TIP3    H254672   5.866   1.392  16.497  0.0294  0.3972  0.6668
11061TIP3   OH254673   6.294   0.383  14.792 -0.1475 -0.4051  0.7246
11061TIP3    H154674   6.357   0.434  14.741 -0.0010  0.1002  1.4086
11061TIP3    H254675   6.295   0.296  14.751 -0.7139  0.2289 -0.7298
11062TIP3   OH254676   4.425   4.620  11.674 -0.0883 -0.1086  0.1371
11062TIP3    H154677   4.387   4.640  11.589  0.0309 -1.2247 -0.1877
11062TIP3    H254678   4.354   4.634  11.737 -0.4468 -0.2092 -0.2464
11063TIP3   OH254679   1.905   0.914   1.454  0.0677 -0.4730 -0.5053
11063TIP3    H154680   1.822   0.883   1.418 -0.4150  1.7387 -1.4602
11063TIP3    H254681   1.962   0.924   1.377  0.4810  0.1375 -0.1265
11064TIP3   OH254682   5.731   2.658   6.050 -0.1609  0.2502  0.4134
11064TIP3    H154683   5.673   2.711   6.106 -0.4976 -0.4883  0.7837
11064TIP3    H254684   5.671   2.603   5.999  0.2068 -1.5034  1.7708
11065TIP3   OH254685   0.745   2.728  13.703 -0.3966  0.2819  0.0565
11065TIP3    H154686   0.817   2.720  13.766 -0.4724  1.5250  0.3282
11065TIP3    H254687   0.724   2.822  13.702 -1.1102  0.1328 -1.0306
11066TIP3   OH254688   2.057   4.064  12.739  0.1000  0.3036 -0.1268
11066TIP3    H154689   1.993   4.056  12.811  0.2841 -0.4942 -0.0453
11066TIP3    H254690   2.043   3.986  12.686  1.3796 -0.1774  0.1970
11067TIP3   OH254691   3.677   5.992   4.365  0.1111  0.2639 -0.6393
11067TIP3    H154692   3.590   5.996   4.326  0.1083  2.2535 -0.5430
11067TIP3    H254693   3.681   6.069   4.422  1.3684 -0.6665  0.6091
11068TIP3   OH254694   3.311   3.701   6.089  0.3469 -0.0232  0.1372
11068TIP3    H154695   3.263   3.747   6.158  0.3928  0.6811 -0.2862
11068TIP3    H254696   3.280   3.611   6.094  0.7026 -0.1006  1.3886
11069TIP3   OH254697   3.942   2.244  15.376 -0.1049  0.1939  0.0440
11069TIP3    H154698   4.037   2.237  15.369 -0.1603  0.7785 -2.0550
11069TIP3    H254699   3.921   2.324  15.328 -1.6004  0.5930  1.2747
11070TIP3   OH254700   5.635   0.307  11.570  0.0818  0.5190  0.5973
11070TIP3    H154701   5.673   0.297  11.483 -0.0489 -0.0765  0.6091
11070TIP3    H254702   5.551   0.349  11.555  0.1579  0.6269  0.4605
11071TIP3   OH254703   0.435   5.168   4.793 -0.0233 -0.5708 -1.1512
11071TIP3    H154704   0.382   5.237   4.752  0.0497 -0.6743 -1.4196
11071TIP3    H254705   0.389   5.087   4.771  0.2257 -0.6576 -1.3503
11072TIP3   OH254706   4.674   2.925   0.319 -0.1180  0.0557  0.1545
11072TIP3    H154707   4.738   2.930   0.390 -1.2095 -1.5026  1.3303
11072TIP3    H254708   4.722   2.884   0.246  0.4323 -0.3749  0.7523
11073TIP3   OH254709   4.535   4.014  15.892 -0.1814  0.0335  0.0026
11073TIP3    H154710   4.622   4.032  15.857 -0.8949  1.3417 -1.2397
11073TIP3    H254711   4.503   3.942  15.838  0.0732 -0.3697  0.3817
11074TIP3   OH254712   1.550   2.028  14.136  0.0553  1.3420  0.4496
11074TIP3    H154713   1.542   1.933  14.148 -0.8809  1.3634  0.0475
11074TIP3    H254714   1.568   2.039  14.043  0.0208  1.5707  0.4696
11075TIP3   OH254715   2.152   4.544   4.476  0.1411 -0.0104 -0.7604
11075TIP3    H154716   2.205   4.469   4.447  0.2342 -0.1173 -0.3292
11075TIP3    H254717   2.178   4.615   4.418 -2.3809 -1.0950 -3.4583
11076TIP3   OH254718   2.505   5.793   3.786  0.3553  0.2217 -0.2333
11076TIP3    H154719   2.526   5.743   3.866 -0.1524  1.8079  0.9463
11076TIP3    H254720   2.587   5.833   3.760  0.9252 -1.6829 -1.5872
11077TIP3   OH254721   1.409   2.355  11.638 -0.1870  1.2537 -0.2756
11077TIP3    H154722   1.328   2.326  11.679  0.2120 -1.8458 -1.4205
11077TIP3    H254723   1.458   2.398  11.708 -1.4056  0.2132  1.2712
11078TIP3   OH254724   0.900   2.269  14.348 -0.0232  0.6296  0.3318
11078TIP3    H154725   0.920   2.230  14.433  0.0269  1.8668  0.9085
11078TIP3    H254726   0.809   2.246  14.332  0.8130 -2.3206 -0.8162
11079TIP3   OH254727   3.076   1.315   1.954 -0.2431 -0.0148 -0.6456
11079TIP3    H154728   3.062   1.409   1.944 -1.7640 -0.0716  0.5336
11079TIP3    H254729   2.998   1.284   2.000 -0.3076 -2.0512 -2.0015
11080TIP3   OH254730   1.983   0.618  13.805 -0.0675  0.3930 -0.2191
11080TIP3    H154731   1.992   0.534  13.849 -0.0776  0.5654  0.1134
11080TIP3    H254732   2.017   0.682  13.867 -2.6958  0.9769  0.7277
11081TIP3   OH254733   3.279   3.045   2.899 -0.3885  0.6346  0.0778
11081TIP3    H154734   3.262   2.956   2.927  0.2523  1.3114  2.9853
11081TIP3    H254735   3.374   3.055   2.905 -0.6088  2.2505  2.7311
11082TIP3   OH254736   5.845   1.523   4.214 -0.5064  0.2343  0.0398
11082TIP3    H154737   5.797   1.441   4.207 -2.4991  1.4110 -0.9744
11082TIP3    H254738   5.847   1.558   4.125  1.5493  0.6662  0.1994
11083TIP3   OH254739   2.650   4.538  15.765 -0.5668 -0.0481  0.1302
11083TIP3    H154740   2.636   4.599  15.838 -1.1889 -1.2144  1.0148
11083TIP3    H254741   2.737   4.502  15.781  0.1325  1.1122 -0.8156
11084TIP3   OH254742   4.620   2.092  14.463 -0.2115  0.0000 -0.2801
11084TIP3    H154743   4.644   2.030  14.533  2.6074 -0.6102 -1.6429
11084TIP3    H254744   4.588   2.037  14.392 -3.5422  0.6506  0.5341
11085TIP3   OH254745   0.611   5.470   4.831  0.6368 -0.1037 -0.1806
11085TIP3    H154746   0.542   5.413   4.864  1.9588 -1.2447  0.7623
11085TIP3    H254747   0.585   5.558   4.858 -0.5059 -0.4853  0.0193
11086TIP3   OH254748   0.763   0.730  15.824 -0.4190  0.0028 -0.4000
11086TIP3    H154749   0.703   0.692  15.888 -0.4053 -0.2244 -0.5183
11086TIP3    H254750   0.746   0.824  15.827  0.4442  0.1456  0.8407
11087TIP3   OH254751   1.438   2.916   3.202  0.1241  0.5442 -0.8590
11087TIP3    H154752   1.407   2.864   3.276  1.1418  0.3582 -0.5429
11087TIP3    H254753   1.407   3.005   3.219  0.4947  0.5387 -0.1108
11088TIP3   OH254754   5.288   1.174   6.025 -0.4075 -0.2704  0.0126
11088TIP3    H154755   5.323   1.263   6.018  1.1181 -0.6378  2.0403
11088TIP3    H254756   5.213   1.173   5.964  0.4714  1.8882 -1.2353
11089TIP3   OH254757   1.764   2.770   3.251 -0.2618 -0.2125  0.1413
11089TIP3    H154758   1.682   2.751   3.296 -1.4686  1.9037 -0.9912
11089TIP3    H254759   1.812   2.828   3.310 -0.1232 -0.4599  0.2750
11090TIP3   OH254760   3.655   1.412  16.086 -0.2680 -0.8116 -0.0663
11090TIP3    H154761   3.651   1.358  16.007 -1.7996 -0.9727  0.1023
11090TIP3    H254762   3.583   1.474  16.076 -0.2853 -0.6368  1.0603
11091TIP3   OH254763   2.756   5.711   0.245  0.4704  0.1642  0.2323
11091TIP3    H154764   2.684   5.672   0.195  0.2519  0.5172  0.2677
11091TIP3    H254765   2.759   5.660   0.326  1.0630 -0.6443 -0.2876
11092TIP3   OH254766   0.069   2.848   0.181  0.3683  0.2247  0.0915
11092TIP3    H154767   0.144   2.908   0.180  0.2204  0.4890  1.9486
11092TIP3    H254768   0.085   2.791   0.256 -1.2357  0.2242  0.4623
11093TIP3   OH254769   3.199   4.722   1.068  0.1825 -0.0316  0.2481
11093TIP3    H154770   3.191   4.637   1.110 -0.7059  0.6089  1.4446
11093TIP3    H254771   3.124   4.728   1.009  0.8998 -0.5385 -0.7428
11094TIP3   OH254772   4.218   3.087  10.665 -0.0348 -0.3127 -0.6773
11094TIP3    H154773   4.150   3.024  10.643 -0.7958  0.6234 -1.0515
11094TIP3    H254774   4.273   3.041  10.729 -1.7262 -0.6792  0.5928
11095TIP3   OH254775   0.603   2.181  15.685 -0.6926 -0.0213 -0.4352
11095TIP3    H154776   0.519   2.151  15.718  0.0630 -0.2102  1.4510
11095TIP3    H254777   0.582   2.226  15.603 -2.7286  0.6376  0.3758
11096TIP3   OH254778   2.370   2.388   4.792 -0.6001  0.2214  0.2942
11096TIP3    H154779   2.430   2.374   4.865  0.4755 -1.0168 -0.7669
11096TIP3    H254780   2.359   2.301   4.753 -1.7051  0.7327 -0.5867
11097TIP3   OH254781   5.748   2.955   2.663  0.4665 -0.6525  0.0856
11097TIP3    H154782   5.739   2.861   2.681  1.2800 -0.8937 -0.6768
11097TIP3    H254783   5.685   2.997   2.721  0.9739 -1.5854  1.3621
11098TIP3   OH254784   1.536   0.484   2.582 -0.0555 -0.5076  0.0150
11098TIP3    H154785   1.491   0.562   2.614  0.3469 -0.0409 -0.5324
11098TIP3    H254786   1.469   0.436   2.533 -0.9061 -1.6393  2.1517
11099TIP3   OH254787   6.079   3.786  11.775 -0.3768  0.1515  0.1043
11099TIP3    H154788   6.140   3.746  11.837  1.6419  2.4594 -0.2707
11099TIP3    H254789   6.022   3.714  11.748  0.7212 -1.6082  2.1906
11100TIP3   OH254790   3.646   3.768  13.668  0.0486  0.0711 -0.6081
11100TIP3    H154791   3.607   3.754  13.582 -1.0658  0.1584 -0.1298
11100TIP3    H254792   3.589   3.721  13.729  0.8741 -0.0746  0.0877
11101TIP3   OH254793   0.949   6.489  13.396  0.0282 -0.3382  0.2510
11101TIP3    H154794   0.885   6.420  13.416 -1.3005  0.5357 -0.7571
11101TIP3    H254795   1.031   6.442  13.382  0.1837 -1.3247  3.7260
11102TIP3   OH254796   2.538   4.556   0.166  0.1891  0.1537  0.0440
11102TIP3    H154797   2.612   4.545   0.226  0.2112 -0.8048 -0.1411
11102TIP3    H254798   2.493   4.472   0.168 -0.3226  0.4055 -0.6026
11103TIP3   OH254799   3.439   4.047   2.505  0.1571 -0.1278 -0.1063
11103TIP3    H154800   3.388   3.966   2.509  0.4111 -0.2535  1.2816
11103TIP3    H254801   3.377   4.116   2.526 -0.1366  0.1040 -1.6277
11104TIP3   OH254802   0.244   0.636  16.183  0.1698  0.6222 -0.6361
11104TIP3    H154803   0.200   0.613  16.102 -0.8423  0.5451 -0.0811
11104TIP3    H254804   0.177   0.681  16.235  0.2970 -0.7432  0.7955
11105TIP3   OH254805   4.769   0.534  16.533 -0.6406  0.3525 -0.3606
11105TIP3    H154806   4.763   0.564  16.443  0.6698 -0.0215 -0.5913
11105TIP3    H254807   4.840   0.586  16.571  0.6216 -1.3079 -0.3265
11106TIP3   OH254808   1.104   2.714   6.314  0.2139 -0.3410 -0.1411
11106TIP3    H154809   1.119   2.743   6.404  1.3944 -0.7456 -0.1944
11106TIP3    H254810   1.106   2.618   6.319 -0.4572 -0.3773 -0.4824
11107TIP3   OH254811   2.493   6.001   3.523 -0.1772 -0.4676  0.4671
11107TIP3    H154812   2.412   6.048   3.502 -0.6510 -0.7157  1.6452
11107TIP3    H254813   2.531   6.051   3.595  0.4479 -0.6667  0.2833
11108TIP3   OH254814   2.261   2.728  15.819 -0.0560  0.2827  0.0098
11108TIP3    H154815   2.251   2.793  15.749  0.2660  3.0276  2.3519
11108TIP3    H254816   2.172   2.713  15.851 -0.1406 -0.5727 -0.5804
11109TIP3   OH254817   0.724   6.079   5.031 -0.5632  0.3643  0.0114
11109TIP3    H154818   0.772   6.038   4.959  1.8480 -0.1751  1.8083
11109TIP3    H254819   0.727   6.173   5.011 -0.2964  0.1998 -0.7790
11110TIP3   OH254820   5.058   5.622  11.232  0.2465 -0.0242  1.0951
11110TIP3    H154821   5.105   5.612  11.149 -0.1246 -0.2063  0.9036
11110TIP3    H254822   5.062   5.535  11.272 -1.2578 -0.4606  0.3559
11111TIP3   OH254823   5.484   1.810  16.779 -0.0828 -0.0689  0.1198
11111TIP3    H154824   5.556   1.763  16.822 -0.7320 -1.9395 -0.7322
11111TIP3    H254825   5.410   1.749  16.783 -0.4702  0.0964 -2.6369
11112TIP3   OH254826   6.028   2.911   5.088  0.0890 -0.3406 -0.3743
11112TIP3    H154827   6.104   2.925   5.144 -0.6963  0.3017  0.5843
11112TIP3    H254828   5.983   2.996   5.087 -2.2738 -1.4157  1.6796
11113TIP3   OH254829   0.273   2.689  16.346 -0.4047  0.6116 -0.0861
11113TIP3    H154830   0.257   2.615  16.287  0.7342 -2.1062  2.7497
11113TIP3    H254831   0.368   2.702  16.343 -0.3636  0.5825  0.9451
11114TIP3   OH254832   4.677   1.329  15.883 -0.2447 -0.3052 -0.1274
11114TIP3    H154833   4.665   1.257  15.822 -2.3617 -0.5651  0.4831
11114TIP3    H254834   4.607   1.391  15.861 -0.7338 -0.1668  1.6434
11115TIP3   OH254835   6.315   3.703   5.004 -0.3744  0.3072 -0.6500
11115TIP3    H154836   6.392   3.696   4.948  0.4941  0.1212  0.5351
11115TIP3    H254837   6.319   3.627   5.061 -1.6938  0.0564 -0.8497
11116TIP3   OH254838   6.362   1.486   5.544 -0.5693 -0.0928 -0.1505
11116TIP3    H154839   6.304   1.482   5.620 -1.9318 -0.1861 -1.1553
11116TIP3    H254840   6.359   1.398   5.507  2.2129 -0.8396  1.1491
11117TIP3   OH254841   0.358   5.724  14.302  0.3180  0.2211 -0.2752
11117TIP3    H154842   0.315   5.677  14.231  2.1768  0.0620 -1.3715
11117TIP3    H254843   0.399   5.800  14.259  1.1675  0.3279  0.6661
11118TIP3   OH254844   6.685   3.433  13.356 -0.4394 -0.0518 -0.4435
11118TIP3    H154845   6.634   3.444  13.436  0.3885  0.7665 -0.0012
11118TIP3    H254846   6.726   3.519  13.342  0.4071 -0.5373 -1.0451
11119TIP3   OH254847   3.335   6.754   2.531 -0.1477  0.6118  0.1760
11119TIP3    H154848   3.326   6.662   2.557 -2.6042 -0.0100 -2.3266
11119TIP3    H254849   3.393   6.751   2.454 -0.1264  1.1850  0.1689
11120TIP3   OH254850   6.159   6.513  11.188  0.0027  0.0020 -0.3910
11120TIP3    H154851   6.067   6.531  11.169 -0.2795  0.6552  1.4437
11120TIP3    H254852   6.195   6.483  11.104 -2.5082 -2.9864 -0.5794
11121TIP3   OH254853   2.406   1.199   0.912 -0.0856 -0.4611 -0.1656
11121TIP3    H154854   2.360   1.166   0.835 -1.9699  0.1201  0.6675
11121TIP3    H254855   2.492   1.224   0.879 -0.3551 -1.5054 -1.7903
11122TIP3   OH254856   1.106   6.126  16.925  0.0491  0.2360  0.0715
11122TIP3    H154857   1.033   6.100  16.981 -0.0396 -1.9177 -0.9619
11122TIP3    H254858   1.097   6.073  16.846  2.4629  0.2561 -0.2962
11123TIP3   OH254859   6.256   5.871  14.859 -0.2633 -0.0319  0.5864
11123TIP3    H154860   6.163   5.868  14.835 -0.2089 -0.2151  0.3905
11123TIP3    H254861   6.257   5.908  14.947 -0.4498  0.8288  0.2311
11124TIP3   OH254862   0.574   4.736   2.305 -0.5409 -0.0714  0.0613
11124TIP3    H154863   0.553   4.830   2.309  1.8388  0.5114  0.2908
11124TIP3    H254864   0.577   4.708   2.396  2.3093  0.5811  0.2631
11125TIP3   OH254865   5.837   3.148   4.585 -0.4756 -0.3078 -0.0661
11125TIP3    H154866   5.795   3.158   4.671  0.0253 -2.1198  0.4360
11125TIP3    H254867   5.928   3.126   4.606  0.6737  2.8740 -1.1209
11126TIP3   OH254868   3.723   1.930   4.166  0.4448 -0.1083  0.2894
11126TIP3    H154869   3.686   2.016   4.186  1.1395 -0.0270  1.2950
11126TIP3    H254870   3.716   1.922   4.071 -0.3962  0.7000  0.2777
11127TIP3   OH254871   6.428   1.467  11.554 -0.3822  0.2949 -0.1944
11127TIP3    H154872   6.349   1.414  11.549  0.8207 -1.7431  1.0510
11127TIP3    H254873   6.437   1.506  11.467 -1.8219 -0.7817 -0.8605
11128TIP3   OH254874   5.690   1.977  10.490  0.2607  0.2130 -0.3345
11128TIP3    H154875   5.612   2.022  10.456 -1.3780 -2.0233  0.2141
11128TIP3    H254876   5.703   2.015  10.577 -1.6364 -0.8654  0.4861
11129TIP3   OH254877   4.647   0.030  15.457 -0.0659  0.5389  0.0128
11129TIP3    H154878   4.734   0.017  15.495  0.5102  2.8006 -0.3782
11129TIP3    H254879   4.623  -0.055  15.420  1.5194 -0.3872  1.0007
11130TIP3   OH254880   1.958   0.783   0.523  0.5067  0.2680  0.4114
11130TIP3    H154881   1.888   0.718   0.532  0.1147  0.8121  1.3324
11130TIP3    H254882   1.923   0.847   0.461  0.6191 -0.0227  0.0429
11131TIP3   OH254883   4.328   0.346  16.715  0.2256  0.5461 -0.0478
11131TIP3    H154884   4.299   0.314  16.629 -1.0482  0.8352  0.2466
11131TIP3    H254885   4.357   0.267  16.762  1.7421  0.4914 -1.0172
11132TIP3   OH254886   0.956   5.542   4.428 -0.5351 -0.1233  0.5462
11132TIP3    H154887   0.952   5.567   4.335  1.3872 -0.3732  0.3687
11132TIP3    H254888   0.974   5.623   4.474  0.3644 -0.2863  0.4992
11133TIP3   OH254889   1.954   4.472   3.868 -0.7271  0.2961 -0.5210
11133TIP3    H154890   1.963   4.381   3.841 -0.5177  0.1019  0.1615
11133TIP3    H254891   1.998   4.522   3.800 -0.3509 -0.1583 -0.6191
11134TIP3   OH254892   5.979   4.710   1.601  0.4312  0.1365  0.6954
11134TIP3    H154893   5.986   4.756   1.684  1.3539 -0.9370  1.2311
11134TIP3    H254894   5.886   4.687   1.595  0.5657 -0.8697  2.0454
11135TIP3   OH254895   5.088   6.612   6.591 -0.5486  0.8078  0.1970
11135TIP3    H154896   5.105   6.680   6.525 -0.9856  0.9507  0.2268
11135TIP3    H254897   5.171   6.565   6.599 -0.6781  0.3390 -0.9673
11136TIP3   OH254898   3.342   1.624  13.704 -0.2816  0.0316 -0.1622
11136TIP3    H154899   3.338   1.712  13.668 -0.9819 -0.7492 -2.1464
11136TIP3    H254900   3.254   1.588  13.688  0.3442 -1.4136 -0.5350
11137TIP3   OH254901   3.469   3.246   0.146 -0.4047  0.3663 -0.5674
11137TIP3    H154902   3.545   3.194   0.172  0.2554  1.3003 -0.5887
11137TIP3    H254903   3.506   3.321   0.101 -1.3736  0.6042 -0.9852
11138TIP3   OH254904   5.680   3.584   3.401 -0.2605  0.2103  0.5827
11138TIP3    H154905   5.758   3.623   3.360  0.8514 -0.9296  1.5085
11138TIP3    H254906   5.610   3.599   3.339  0.9625  0.2173 -0.8547
11139TIP3   OH254907   0.443   5.679  12.229 -0.0600 -0.3306  0.1579
11139TIP3    H154908   0.388   5.636  12.294 -1.9783 -0.4966 -1.4957
11139TIP3    H254909   0.482   5.753  12.276 -0.8698 -0.8136  1.6449
11140TIP3   OH254910   0.650   3.618   4.795  0.0143 -0.2780  0.7513
11140TIP3    H154911   0.696   3.591   4.716  0.8040  1.0381  0.7349
11140TIP3    H254912   0.584   3.550   4.809 -1.2293  0.2632 -1.9408
11141TIP3   OH254913   1.076   2.030  12.539 -0.4635 -0.2650  0.1537
11141TIP3    H154914   1.078   2.103  12.601 -1.6212 -0.6281  0.6579
11141TIP3    H254915   1.079   1.952  12.595 -0.0156 -0.6026 -0.3344
11142TIP3   OH254916   2.139   5.086  16.325  0.0804  0.4405  0.3322
11142TIP3    H154917   2.164   5.174  16.353 -0.2795  0.4043  0.8043
11142TIP3    H254918   2.077   5.057  16.393 -1.0464  0.4512 -0.6690
11143TIP3   OH254919   3.995   0.609  12.982  0.0473  0.5379  0.0041
11143TIP3    H154920   3.939   0.572  12.915 -0.3619 -0.6097  0.9476
11143TIP3    H254921   4.077   0.628  12.937  0.0760 -1.0086 -0.6528
11144TIP3   OH254922   6.118   5.254   3.912  0.2522 -0.4448 -0.0220
11144TIP3    H154923   6.048   5.200   3.948 -0.6957 -0.6355 -1.9983
11144TIP3    H254924   6.124   5.227   3.820  1.2131  1.3256 -0.5317
11145TIP3   OH254925   5.358   1.225   2.288 -0.0658  0.4093  0.3889
11145TIP3    H154926   5.421   1.296   2.273  0.0602  0.4202  0.9585
11145TIP3    H254927   5.272   1.267   2.277 -0.0465  1.0923  2.4704
11146TIP3   OH254928   0.961   2.405   3.617 -0.6177 -0.1435  0.2111
11146TIP3    H154929   0.952   2.342   3.545 -3.9935 -2.4715  2.3716
11146TIP3    H254930   1.001   2.482   3.577 -0.4111 -2.0137 -3.6412
11147TIP3   OH254931   0.956   0.535   4.549  0.0876  0.1019  0.0507
11147TIP3    H154932   0.997   0.493   4.624 -0.6216  1.8448  1.4993
11147TIP3    H254933   0.882   0.479   4.527  0.9522 -1.0106 -0.1043
11148TIP3   OH254934   4.918   6.262   3.940  0.1847 -0.8424 -0.4191
11148TIP3    H154935   4.897   6.245   4.032 -1.5020  0.1547 -0.5693
11148TIP3    H254936   4.955   6.351   3.941  1.7070 -1.4412 -0.5443
11149TIP3   OH254937   2.888   6.178   6.623  0.0881 -0.4279  0.0082
11149TIP3    H154938   2.852   6.243   6.563 -0.2598 -0.8666 -0.2619
11149TIP3    H254939   2.812   6.136   6.662  0.3020 -1.0802 -0.2596
11150TIP3   OH254940   5.544   4.789  11.876  0.0715 -0.1091 -0.1205
11150TIP3    H154941   5.528   4.709  11.925 -0.3961  0.2412  0.3130
11150TIP3    H254942   5.518   4.768  11.787 -1.9642  0.1453  0.3732
11151TIP3   OH254943   6.728   0.710  15.616  0.0503  0.0346  0.3742
11151TIP3    H154944   6.687   0.797  15.614 -1.0427 -0.4434  0.9451
11151TIP3    H254945   6.707   0.672  15.531 -0.4697 -0.1042  0.5619
11152TIP3   OH254946   6.216   5.923   0.950 -0.1727  0.8673 -0.2038
11152TIP3    H154947   6.138   5.978   0.941  0.2312  2.0173  2.4428
11152TIP3    H254948   6.289   5.985   0.945  0.3739  0.3528  1.0897
11153TIP3   OH254949   2.048   2.426   3.333  0.0586  0.5730  0.3994
11153TIP3    H154950   2.110   2.384   3.273 -0.8306  0.5563 -0.5193
11153TIP3    H254951   1.983   2.358   3.351  0.0221  0.7501  0.9754
11154TIP3   OH254952   1.539   4.559   5.803 -0.2828 -0.3460 -0.2059
11154TIP3    H154953   1.625   4.586   5.774 -0.1521 -2.2182 -1.7847
11154TIP3    H254954   1.478   4.607   5.747 -0.2211 -0.1807 -0.1332
11155TIP3   OH254955   4.198   2.642   0.554  0.1816  0.0773  0.0192
11155TIP3    H154956   4.267   2.614   0.614  0.4170 -0.0051 -0.2877
11155TIP3    H254957   4.210   2.587   0.477  0.2605  0.6050 -0.3479
11156TIP3   OH254958   5.099   3.425  15.720  0.3136 -0.6001  0.2101
11156TIP3    H154959   5.157   3.349  15.722 -0.4465 -1.2390 -0.9486
11156TIP3    H254960   5.018   3.394  15.759  0.2318 -0.1674  0.3866
11157TIP3   OH254961   3.956   3.178  15.466 -0.5255  0.1534 -0.4842
11157TIP3    H154962   3.968   3.117  15.393 -1.0206 -1.1617  0.5029
11157TIP3    H254963   3.998   3.136  15.540 -0.6236  1.1644  0.1692
11158TIP3   OH254964   6.376   2.165  17.253  0.0046 -0.5908 -0.4264
11158TIP3    H154965   6.308   2.231  17.241  0.8853  0.2407 -1.1203
11158TIP3    H254966   6.330   2.086  17.280 -1.1551  0.1148 -0.2867
11159TIP3   OH254967   5.415   3.076   4.649 -0.3831  0.5853  0.4351
11159TIP3    H154968   5.413   3.004   4.713 -1.1779 -0.7181 -0.9778
11159TIP3    H254969   5.364   3.145   4.690  0.4989  0.4191  1.8863
11160TIP3   OH254970   2.369   3.741   1.879 -0.2512 -0.1984 -0.1255
11160TIP3    H154971   2.334   3.662   1.922  0.7245  0.2205  1.5142
11160TIP3    H254972   2.461   3.722   1.865 -0.1162  0.4709 -0.1706
11161TIP3   OH254973   6.546   5.631   2.543 -0.2796 -0.1492  0.3436
11161TIP3    H154974   6.505   5.550   2.575 -0.9638  0.7326  1.7875
11161TIP3    H254975   6.523   5.634   2.450 -1.1269 -1.0912  0.4975
11162TIP3   OH254976   2.241   0.274   4.930  0.5447 -0.0030 -0.5884
11162TIP3    H154977   2.159   0.237   4.963  1.4185  0.7853  2.9413
11162TIP3    H254978   2.223   0.367   4.919  0.5100 -0.1213 -1.6371
11163TIP3   OH254979   3.529   6.432  14.559 -0.8080  0.1417  0.0265
11163TIP3    H154980   3.622   6.446  14.573 -0.9019 -0.4484  1.3443
11163TIP3    H254981   3.489   6.447  14.644 -1.8671 -0.0398 -0.4243
11164TIP3   OH254982   2.984   3.570   0.216  0.0213  0.3909 -0.9026
11164TIP3    H154983   3.011   3.511   0.287 -1.8462  0.2053 -0.2833
11164TIP3    H254984   2.984   3.515   0.138  1.0368  0.3156 -0.8642
11165TIP3   OH254985   4.380   2.567   1.375 -0.0130  0.0173  0.3170
11165TIP3    H154986   4.349   2.588   1.286  0.4392 -0.3966  0.0609
11165TIP3    H254987   4.427   2.646   1.403 -0.1605  0.1507  0.1939
11166TIP3   OH254988   6.636   4.194  14.288  0.2230  0.2404 -0.1435
11166TIP3    H154989   6.580   4.131  14.333  0.4864  0.6525  0.7694
11166TIP3    H254990   6.594   4.279  14.302  1.5783  0.7134  1.4588
11167TIP3   OH254991   3.428   6.670   6.014  0.5392  0.2757 -0.2714
11167TIP3    H154992   3.390   6.582   6.023 -0.1228  0.6397  0.7010
11167TIP3    H254993   3.472   6.686   6.098  2.7045 -0.0323 -1.2883
11168TIP3   OH254994   2.052   0.196  16.851 -0.6928  0.3742 -0.3572
11168TIP3    H154995   2.091   0.233  16.772  0.4753  2.0822  0.9506
11168TIP3    H254996   2.102   0.115  16.866  0.0947  0.8080 -0.5748
11169TIP3   OH254997   0.959   5.721  15.263 -0.1826  0.3535 -0.1818
11169TIP3    H154998   0.900   5.762  15.326 -0.6211 -0.4051 -0.0905
11169TIP3    H254999   0.937   5.628  15.266 -0.9187  0.4088 -2.1931
11170TIP3   OH255000   1.604   0.998  13.403 -0.2939  0.2593  0.2963
11170TIP3    H155001   1.670   1.065  13.382  0.2590  0.9244  3.6441
11170TIP3    H255002   1.520   1.041  13.386  0.0078  0.0959 -2.0312
11171TIP3   OH255003   5.705   3.958  15.527  0.1415 -0.0357 -0.6091
11171TIP3    H155004   5.720   3.961  15.622  0.9213 -0.8447 -0.6992
11171TIP3    H255005   5.628   4.014  15.514  1.8013  2.6044  0.1278
11172TIP3   OH255006   2.914   1.079   2.353 -0.4085  0.4136  0.0310
11172TIP3    H155007   2.856   1.104   2.425 -0.5380 -2.2678  0.9582
11172TIP3    H255008   2.998   1.119   2.376 -0.6483  0.2624  1.2733
11173TIP3   OH255009   2.171   4.351  13.250 -0.3416  0.1207 -0.6063
11173TIP3    H155010   2.157   4.288  13.320 -1.7679  0.6279 -0.4162
11173TIP3    H255011   2.100   4.335  13.188 -0.1608  0.8926 -1.0321
11174TIP3   OH255012   3.939   6.085   2.022 -0.5321  0.3196  0.1503
11174TIP3    H155013   4.011   6.133   2.064 -0.7460  0.4160  0.4062
11174TIP3    H255014   3.862   6.139   2.037 -0.7211  0.0449  0.1725
11175TIP3   OH255015   3.831   4.398   4.316  0.1193 -0.3011  0.2665
11175TIP3    H155016   3.810   4.326   4.376 -0.1409 -1.1638 -0.8436
11175TIP3    H255017   3.813   4.363   4.229  1.0470  0.7472 -0.3630
11176TIP3   OH255018   5.763   2.309  14.486  0.3450  0.6427  0.0184
11176TIP3    H155019   5.739   2.364  14.411 -0.1405  0.2763 -0.1010
11176TIP3    H255020   5.783   2.223  14.448  1.4079  0.8128  0.1706
11177TIP3   OH255021   0.867   2.054   1.918 -0.1911  0.1884 -0.4674
11177TIP3    H155022   0.938   2.053   1.981 -0.4327 -0.2136 -0.1918
11177TIP3    H255023   0.844   2.146   1.908 -1.0571  0.1890  1.0832
11178TIP3   OH255024   3.615   5.198   4.687 -0.5080  0.0926  0.1710
11178TIP3    H155025   3.624   5.103   4.681 -1.5216 -0.0471  0.7271
11178TIP3    H255026   3.643   5.219   4.776  0.3174  0.3994 -0.1527
11179TIP3   OH255027   3.428   3.865  16.299 -0.1855 -0.8448 -0.0003
11179TIP3    H155028   3.497   3.922  16.265 -0.7503  0.5306  1.0325
11179TIP3    H255029   3.443   3.863  16.394 -1.9903  0.1802  0.3732
11180TIP3   OH255030   6.285   6.615   0.133  0.0764  0.0614 -0.2846
11180TIP3    H155031   6.334   6.666   0.069  0.5555 -0.2517 -0.1735
11180TIP3    H255032   6.277   6.528   0.094 -1.9260  0.5435 -1.0902
11181TIP3   OH255033   2.947   2.783  17.214  0.6746  0.1164  0.2734
11181TIP3    H155034   2.881   2.744  17.272  0.6861 -0.2055  0.0721
11181TIP3    H255035   2.896   2.824  17.144  0.6718  0.2132  0.3336
11182TIP3   OH255036   1.551   3.873  12.915  0.1060 -0.1354  0.3852
11182TIP3    H155037   1.576   3.799  12.860 -0.7771  0.0285 -0.2560
11182TIP3    H255038   1.563   3.840  13.005  0.0200 -0.9534  0.1099
11183TIP3   OH255039   2.441   4.434  17.069 -0.6289 -0.5596  0.1298
11183TIP3    H155040   2.401   4.351  17.094  1.2383 -1.4695  0.2971
11183TIP3    H255041   2.491   4.413  16.990 -0.6402  0.5639 -0.1936
11184TIP3   OH255042   1.329   0.751   1.166  0.3466 -0.7151 -0.1904
11184TIP3    H155043   1.318   0.781   1.076  2.0041 -1.5014 -0.6928
11184TIP3    H255044   1.242   0.761   1.206 -0.2944  0.0786 -1.7300
11185TIP3   OH255045   4.373   3.219  14.172 -0.7758 -0.6621  0.4094
11185TIP3    H155046   4.387   3.219  14.078 -0.4138  0.5193  0.4524
11185TIP3    H255047   4.304   3.284  14.187  0.7314  0.8175  1.1537
11186TIP3   OH255048   2.333   1.255  12.945 -0.3774  0.4350  0.1158
11186TIP3    H155049   2.276   1.333  12.951 -1.2702 -0.0404 -1.5493
11186TIP3    H255050   2.339   1.223  13.035  1.5327  3.4308  1.2062
11187TIP3   OH255051   0.048   6.031  16.434 -0.9820 -0.1744 -0.5425
11187TIP3    H155052   0.132   5.994  16.459 -0.5025  0.2237 -1.5104
11187TIP3    H255053  -0.003   5.955  16.403 -1.3185 -0.5507  0.8454
11188TIP3   OH255054   4.066   3.112   4.695  0.3420  0.0160 -0.5872
11188TIP3    H155055   4.104   3.172   4.630 -0.6111  0.3606 -0.8544
11188TIP3    H255056   3.977   3.097   4.663  0.0132 -0.1786  0.4062
11189TIP3   OH255057   2.825   0.447  12.197  0.4081  0.3634 -0.5438
11189TIP3    H155058   2.836   0.541  12.211 -1.3249  0.6242 -0.6207
11189TIP3    H255059   2.872   0.429  12.116  1.6990  0.9192  0.0486
11190TIP3   OH255060   0.617   0.964  16.047  0.3053 -0.2681 -0.1041
11190TIP3    H155061   0.682   0.954  16.116  0.2631  0.7006  0.0924
11190TIP3    H255062   0.667   0.969  15.966  0.3226 -2.1179 -0.2564
11191TIP3   OH255063   4.664   0.201  16.225  0.0953  0.2778 -1.0228
11191TIP3    H155064   4.695   0.121  16.182  1.3604  0.7476 -1.0153
11191TIP3    H255065   4.615   0.170  16.301  1.2965 -0.4982 -0.5343
11192TIP3   OH255066   2.429   1.200  13.205  0.0795  0.3591 -0.5405
11192TIP3    H155067   2.469   1.117  13.183 -1.5475 -0.3250 -1.0976
11192TIP3    H255068   2.443   1.210  13.299 -0.0520 -0.7465 -0.3945
11193TIP3   OH255069   6.581   2.410   6.333 -0.3680 -0.1184  0.4603
11193TIP3    H155070   6.588   2.320   6.301  0.4101 -0.0745  0.4889
11193TIP3    H255071   6.561   2.400   6.426  1.7306 -0.3157  0.9445
11194TIP3   OH255072   6.399   1.388  11.033 -0.6535  0.3412 -0.1785
11194TIP3    H155073   6.333   1.320  11.042  0.5821 -1.0304 -1.0178
11194TIP3    H255074   6.458   1.356  10.965  0.6167  1.7280  0.2040
11195TIP3   OH255075   6.740   4.066   4.830 -0.1153  0.3950 -0.4404
11195TIP3    H155076   6.780   4.022   4.756  0.2995 -1.8701  1.0346
11195TIP3    H255077   6.648   4.040   4.828  0.5022 -2.3316  1.5236
11196TIP3   OH255078   6.147   0.719   1.175 -0.2209 -0.4547  0.5928
11196TIP3    H155079   6.121   0.627   1.164  1.4157 -0.8765 -0.1231
11196TIP3    H255080   6.225   0.715   1.232  0.4917  0.3762 -0.2941
11197TIP3   OH255081   3.581   1.469  13.705  0.2468  0.4129  0.5064
11197TIP3    H155082   3.646   1.514  13.758 -0.1435  0.0199  1.3350
11197TIP3    H255083   3.506   1.527  13.703  0.1694  0.3150  0.5871
11198TIP3   OH255084   5.565   1.613   3.940  0.1802  0.4037  0.0335
11198TIP3    H155085   5.641   1.567   3.906 -0.3286 -0.9734  0.6460
11198TIP3    H255086   5.498   1.545   3.947 -1.2155  1.6292 -0.7865
11199TIP3   OH255087   5.719   4.333  15.239 -0.8783 -0.1556  0.2202
11199TIP3    H155088   5.648   4.290  15.192  1.8225 -0.9022 -3.6722
11199TIP3    H255089   5.725   4.420  15.198  0.0424  0.1192  0.9047
11200TIP3   OH255090   2.632   5.653  15.514 -0.1563  0.8372 -0.5925
11200TIP3    H155091   2.708   5.710  15.503  0.1088  0.2530 -2.1214
11200TIP3    H255092   2.607   5.629  15.425 -0.0094 -1.7353 -0.0241
11201TIP3   OH255093   5.534   4.625   5.460  0.1255 -0.6537  0.2503
11201TIP3    H155094   5.619   4.655   5.493  0.1154  0.1782 -0.4336
11201TIP3    H255095   5.475   4.699   5.477 -0.8845 -1.8475  2.2584
11202TIP3   OH255096   6.139   5.696   5.317  0.5107  0.3586 -0.5618
11202TIP3    H155097   6.046   5.677   5.331  0.6656  0.2504  0.4389
11202TIP3    H255098   6.142   5.790   5.302  0.2038  0.3132 -0.9098
11203TIP3   OH255099   1.818   6.254   2.519 -0.3123 -0.3929 -0.1447
11203TIP3    H155100   1.813   6.202   2.438  2.1838  1.6964 -1.7808
11203TIP3    H255101   1.729   6.285   2.532 -1.1262 -2.1398 -1.1082
11204TIP3   OH255102   5.851   6.383  13.685 -0.5505  0.8562  0.1236
11204TIP3    H155103   5.871   6.339  13.603  0.2212 -0.7067  1.1007
11204TIP3    H255104   5.906   6.462  13.685  0.8839 -0.1116 -0.0421
11205TIP3   OH255105   6.504   6.452  11.290 -0.3596 -0.3761 -0.3224
11205TIP3    H155106   6.561   6.439  11.214  0.1230 -0.3529  0.0298
11205TIP3    H255107   6.487   6.363  11.322  0.9158 -0.3094  0.6108
11206TIP3   OH255108   5.195   3.768  12.071  0.1269 -0.3975 -0.0087
11206TIP3    H155109   5.216   3.725  11.988 -1.6505  0.8167 -1.1611
11206TIP3    H255110   5.162   3.697  12.127  1.8165 -1.3179 -0.1049
11207TIP3   OH255111   1.953   6.460   2.348  0.6168 -0.2989 -0.2488
11207TIP3    H155112   1.899   6.404   2.293 -0.2968  1.0787 -0.7943
11207TIP3    H255113   1.965   6.410   2.429 -1.9832 -0.4112  0.1424
11208TIP3   OH255114   3.945   5.752   5.421  0.4988 -0.1381 -0.1177
11208TIP3    H155115   3.876   5.818   5.414 -0.0722 -0.8158 -1.1241
11208TIP3    H255116   4.019   5.789   5.372  0.0998 -0.3390 -0.8775
11209TIP3   OH255117   3.764   3.347   2.956  1.2011 -0.2693 -0.0679
11209TIP3    H155118   3.698   3.405   2.992  1.4827  1.0178 -1.5305
11209TIP3    H255119   3.745   3.342   2.862  0.5999 -3.3546  0.0967
11210TIP3   OH255120   2.536   1.057  16.423 -0.0688  0.0792  0.1840
11210TIP3    H155121   2.524   1.110  16.502 -0.3240  0.8367 -0.3615
11210TIP3    H255122   2.626   1.073  16.396 -0.4636  1.0980 -0.5911
11211TIP3   OH255123   2.949   3.395   0.419 -0.4015 -0.5476 -0.8467
11211TIP3    H155124   2.878   3.413   0.480  0.1143 -0.6703 -0.1884
11211TIP3    H255125   3.019   3.360   0.475 -0.2000 -1.4113 -1.6172
11212TIP3   OH255126   2.930   1.160  12.322 -0.5904 -0.3194  0.1951
11212TIP3    H155127   2.977   1.173  12.240  1.6173  0.5523  1.4969
11212TIP3    H255128   2.982   1.096  12.370 -0.2760  1.1715  1.9702
11213TIP3   OH255129   6.251   2.056   1.896  0.2366  0.6040 -0.9688
11213TIP3    H155130   6.323   2.117   1.913 -0.1093  0.9488 -0.7141
11213TIP3    H255131   6.196   2.061   1.975 -0.2717  0.6468 -1.3195
11214TIP3   OH255132   3.939   0.243   3.301 -0.0187 -0.0379 -0.2727
11214TIP3    H155133   4.011   0.196   3.260  0.7654 -0.6871  1.7211
11214TIP3    H255134   3.865   0.231   3.242  1.3234  0.0853 -2.0459
11215TIP3   OH255135   6.492   1.478   3.077 -0.2586 -0.2281  0.1561
11215TIP3    H155136   6.399   1.457   3.077 -0.6118  1.2364  0.6817
11215TIP3    H255137   6.496   1.572   3.061  1.1512 -0.3119 -0.1494
11216TIP3   OH255138   0.938   1.855  11.756 -0.3692 -0.1536 -0.1662
11216TIP3    H155139   0.922   1.940  11.715  1.5231  0.2899 -0.0655
11216TIP3    H255140   1.008   1.871  11.819  0.1059 -1.8196 -0.2190
11217TIP3   OH255141   1.468   6.778   2.571 -0.7115  0.7710  0.5744
11217TIP3    H155142   1.429   6.794   2.657 -3.1333 -2.5168  0.3104
11217TIP3    H255143   1.539   6.716   2.588 -2.0421 -0.9321  0.1877
11218TIP3   OH255144   1.676   4.093  15.751 -0.3415  0.1432  0.1271
11218TIP3    H155145   1.717   4.046  15.825  0.1206  1.1521  0.5369
11218TIP3    H255146   1.584   4.098  15.774 -0.5655 -1.3151 -0.3437
11219TIP3   OH255147   1.163   5.055  16.252 -0.2326 -0.2347  0.3578
11219TIP3    H155148   1.113   5.131  16.223 -0.1346 -0.7548 -1.3124
11219TIP3    H255149   1.133   5.038  16.341 -0.9028  1.2018  0.4293
11220TIP3   OH255150   6.395   0.926  15.798 -0.5268 -0.3295 -0.8620
11220TIP3    H155151   6.385   1.016  15.828 -0.7282  0.2048 -2.4548
11220TIP3    H255152   6.481   0.900  15.831  0.1326  0.9255 -1.5145
11221TIP3   OH255153   6.214   1.068  13.609  0.3909 -0.3121 -0.2844
11221TIP3    H155154   6.188   0.978  13.627 -1.4853  0.1696 -0.2794
11221TIP3    H255155   6.305   1.074  13.637 -0.1564 -1.5797  1.9533
11222TIP3   OH255156   3.721   1.367  14.940  0.1290  0.0056  0.1079
11222TIP3    H155157   3.634   1.403  14.921  0.7297  1.0937 -0.7314
11222TIP3    H255158   3.748   1.412  15.020  0.2366  0.2724 -0.0752
11223TIP3   OH255159   2.978   0.240  13.229  0.1494  0.3974  0.1133
11223TIP3    H155160   2.962   0.318  13.282 -0.8601  0.6909 -0.6159
11223TIP3    H255161   2.980   0.271  13.139  0.0300 -0.3706 -0.1620
11224TIP3   OH255162   6.339   3.459  13.611 -0.0924 -0.3661  0.8859
11224TIP3    H155163   6.272   3.482  13.676 -0.6739 -1.5806  0.7436
11224TIP3    H255164   6.377   3.378  13.644  0.4991 -0.3124  0.3504
11225TIP3   OH255165   5.012   2.270   6.300  0.4434 -0.1019  0.0221
11225TIP3    H155166   5.000   2.291   6.207  1.3209  0.1115 -0.0603
11225TIP3    H255167   5.092   2.218   6.302 -0.4358 -1.4842  0.4957
11226TIP3   OH255168   1.061   1.811   0.909  0.4271  0.2259  0.0088
11226TIP3    H155169   1.036   1.882   0.850  2.0256  0.1917 -0.7701
11226TIP3    H255170   1.138   1.844   0.955  0.8710 -0.7887  0.0189
11227TIP3   OH255171   0.386   1.979   1.696 -0.0441 -0.1140 -0.2979
11227TIP3    H155172   0.481   1.974   1.705 -0.1135  0.8303  1.5998
11227TIP3    H255173   0.352   1.927   1.769 -0.9066  1.3579  0.4199
11228TIP3   OH255174   2.794   4.720  11.074  0.0649  0.7816  0.2011
11228TIP3    H155175   2.791   4.791  11.010  1.9055  1.5897  0.9380
11228TIP3    H255176   2.800   4.640  11.023 -1.0788  1.1992 -0.6318
11229TIP3   OH255177   1.811   5.237   1.251  0.2068 -0.4616 -0.4222
11229TIP3    H155178   1.820   5.218   1.344  1.2839 -1.4899 -0.7171
11229TIP3    H255179   1.866   5.315   1.238 -0.7141  0.2674 -0.0319
11230TIP3   OH255180   2.378   0.825  16.115 -0.6680  0.4844 -0.2398
11230TIP3    H155181   2.418   0.800  16.032 -2.0489  1.8611 -1.3734
11230TIP3    H255182   2.403   0.917  16.127 -2.4108  1.0230 -0.3888
11231TIP3   OH255183   5.720   1.506   0.341 -0.3729  0.0132 -0.1611
11231TIP3    H155184   5.678   1.579   0.295 -0.1736 -0.3498 -0.9334
11231TIP3    H255185   5.737   1.441   0.272  2.1906  0.4710 -0.0806
11232TIP3   OH255186   0.661   3.315  16.641 -0.0021 -0.2929 -0.4568
11232TIP3    H155187   0.647   3.260  16.563 -0.1287  0.5744 -1.0674
11232TIP3    H255188   0.733   3.373  16.616 -0.5115  0.4607 -0.1934
11233TIP3   OH255189   5.010   4.824   4.810 -0.3172  0.3056  0.8545
11233TIP3    H155190   5.064   4.797   4.735  0.4095  1.2019  1.0406
11233TIP3    H255191   4.948   4.887   4.772 -4.2660 -3.7757 -0.3084
11234TIP3   OH255192   4.866   6.406   2.159 -0.0007 -0.4693  0.0066
11234TIP3    H155193   4.929   6.342   2.193 -0.7201 -0.7927  0.7944
11234TIP3    H255194   4.816   6.433   2.236 -0.7491 -0.1394 -0.5808
11235TIP3   OH255195   4.408   1.809  13.672 -0.4073  0.0126 -0.3403
11235TIP3    H155196   4.337   1.771  13.723 -0.2025 -0.1056 -0.1398
11235TIP3    H255197   4.364   1.855  13.601 -0.7096  0.5191  0.1672
11236TIP3   OH255198   3.932   5.317   5.212  0.6127  0.1404 -0.8793
11236TIP3    H155199   3.972   5.350   5.293 -0.3576  0.0528 -0.3564
11236TIP3    H255200   3.838   5.314   5.231  0.3408  0.4539 -2.1354
11237TIP3   OH255201   0.085   1.848  11.217 -0.3524 -0.1804  0.4942
11237TIP3    H155202   0.110   1.932  11.177 -1.7837 -0.5478 -1.2885
11237TIP3    H255203   0.150   1.835  11.286  1.3260  1.2620 -0.6964
11238TIP3   OH255204   4.187   1.429  15.366  0.6244 -0.1497  0.6724
11238TIP3    H155205   4.159   1.372  15.295  1.3949 -0.8991  0.9558
11238TIP3    H255206   4.124   1.413  15.436 -1.1891  1.8634 -0.3817
11239TIP3   OH255207   6.288   5.964  11.347  0.2102 -0.1569 -0.3989
11239TIP3    H155208   6.309   5.929  11.261  0.9740 -2.7179  0.7428
11239TIP3    H255209   6.332   5.906  11.409 -0.4796  1.4543  1.7527
11240TIP3   OH255210   1.734   2.141   4.453  0.0783 -0.1323  0.8334
11240TIP3    H155211   1.661   2.080   4.460 -1.4986  1.3047 -1.7161
11240TIP3    H255212   1.696   2.227   4.471  0.6181  0.8558 -2.1026
11241TIP3   OH255213   6.146   2.707  15.514  0.4816  0.8451  0.7242
11241TIP3    H155214   6.075   2.770  15.523 -0.4341  0.0308 -0.5342
11241TIP3    H255215   6.132   2.643  15.584 -0.4320  0.3312  0.0901
11242TIP3   OH255216   6.397   2.846   1.798 -0.0800 -0.6132 -0.1583
11242TIP3    H155217   6.364   2.787   1.866  0.9690  0.0685  0.9965
11242TIP3    H255218   6.320   2.893   1.766 -0.4249  0.0619  1.5814
11243TIP3   OH255219   4.404   6.503   1.742 -0.6511  0.4734  1.0917
11243TIP3    H155220   4.436   6.469   1.659 -0.0009  1.1241  1.0654
11243TIP3    H255221   4.403   6.428   1.801 -3.6071 -0.6267 -0.1630
11244TIP3   OH255222   0.840   4.007   3.828  0.3725  0.0846 -0.2210
11244TIP3    H155223   0.783   4.077   3.859 -0.5360 -0.6539 -0.1420
11244TIP3    H255224   0.887   4.044   3.753 -1.5283  0.2065 -1.4226
11245TIP3   OH255225   5.385   5.586  13.753  0.6009 -0.5756 -0.0503
11245TIP3    H155226   5.346   5.577  13.840  1.0638 -0.5880  0.1613
11245TIP3    H255227   5.391   5.681  13.740  0.4625 -0.5738 -0.1009
11246TIP3   OH255228   6.296   5.908   2.190  0.6411 -0.4118  0.8856
11246TIP3    H155229   6.359   5.910   2.118  0.6904  1.9701  0.9109
11246TIP3    H255230   6.258   5.820   2.187  1.2591 -0.6586 -1.5119
11247TIP3   OH255231   4.651   3.155   2.041  0.1289 -0.3701 -0.3790
11247TIP3    H155232   4.668   3.116   2.127  2.7356  1.8049  0.2659
11247TIP3    H255233   4.694   3.096   1.979  2.0631  0.2085  0.3327
11248TIP3   OH255234   3.094   6.624  11.721 -0.8297 -0.0409  0.5780
11248TIP3    H155235   3.072   6.674  11.800 -0.6707 -2.4702  2.2810
11248TIP3    H255236   3.132   6.688  11.662  0.0220  1.7241  2.8871
11249TIP3   OH255237   1.251   3.482   3.126 -0.3900 -0.6403 -0.2033
11249TIP3    H155238   1.300   3.536   3.063 -0.5493  0.5152  0.6275
11249TIP3    H255239   1.210   3.546   3.185 -0.8229 -1.6782  0.6465
11250TIP3   OH255240   0.106   5.429  13.108 -0.4345  0.4172 -0.2809
11250TIP3    H155241   0.019   5.402  13.135 -0.2905 -1.0840 -1.2193
11250TIP3    H255242   0.140   5.355  13.058  2.6525 -0.4037  2.7061
11251TIP3   OH255243   6.399   6.221  11.432 -0.6608 -0.2521 -0.2601
11251TIP3    H155244   6.487   6.212  11.469 -0.2790 -0.7772 -1.2740
11251TIP3    H255245   6.376   6.133  11.404 -1.1140  0.0615 -0.8909
11252TIP3   OH255246   1.059   4.175  16.370 -0.2292 -0.0880  0.6731
11252TIP3    H155247   0.991   4.228  16.411  0.5290 -0.2865  2.2684
11252TIP3    H255248   1.015   4.133  16.296 -1.8227 -0.1211  1.5872
11253TIP3   OH255249   2.555   1.639  14.836 -0.8938  0.2243 -0.7847
11253TIP3    H155250   2.593   1.613  14.752 -0.3882  2.8833 -1.4945
11253TIP3    H255251   2.487   1.702  14.813 -0.0141  1.8469  0.7722
11254TIP3   OH255252   3.122   5.217  11.525 -0.6813  0.3218  0.1285
11254TIP3    H155253   3.045   5.269  11.505 -0.3786  0.9637  0.6186
11254TIP3    H255254   3.196   5.268  11.492 -0.5496 -1.0130 -1.8056
11255TIP3   OH255255   0.355   6.702   1.317 -0.2361 -0.1366  0.2037
11255TIP3    H155256   0.432   6.650   1.293  0.3261  0.9254 -0.3553
11255TIP3    H255257   0.354   6.700   1.413 -0.1268 -1.0236  0.1952
11256TIP3   OH255258   0.190   0.346  16.398 -0.5988 -0.0471 -0.1854
11256TIP3    H155259   0.207   0.351  16.492 -0.9469 -1.9026  0.0081
11256TIP3    H255260   0.276   0.332  16.359 -0.4110  1.0417 -0.2006
11257TIP3   OH255261   4.436   6.745  16.617 -0.0548 -0.9709 -0.1145
11257TIP3    H155262   4.510   6.689  16.641  0.1177 -0.0073  1.8275
11257TIP3    H255263   4.421   6.798  16.695 -3.2936 -1.6380 -0.1574
11258TIP3   OH255264   1.004   3.452  11.471 -0.1479 -0.4660  0.4006
11258TIP3    H155265   1.058   3.379  11.440 -0.8281 -0.1145 -1.7667
11258TIP3    H255266   0.916   3.415  11.479 -0.7109  0.2708 -1.6901
11259TIP3   OH255267   3.964   1.298  12.030 -0.3866 -0.5928 -0.0920
11259TIP3    H155268   3.977   1.273  11.938 -0.2780 -0.8737 -0.0021
11259TIP3    H255269   3.870   1.314  12.037  0.0364  3.2153 -1.1889
11260TIP3   OH255270   0.951   2.505   0.300 -0.4219  0.0208 -0.2432
11260TIP3    H155271   0.920   2.551   0.222 -0.6099  2.5053  1.2202
11260TIP3    H255272   0.877   2.450   0.326 -0.5106 -0.5069 -1.5093
11261TIP3   OH255273   4.641   1.830  16.420  0.4677 -0.0022  0.2852
11261TIP3    H155274   4.714   1.774  16.393  1.1129  1.1703 -0.5211
11261TIP3    H255275   4.645   1.904  16.359  1.0637  2.0431  2.6377
11262TIP3   OH255276   0.300   1.483   6.014 -0.4094  0.0233  0.6419
11262TIP3    H155277   0.365   1.552   6.028 -0.1957 -0.3024  1.3023
11262TIP3    H255278   0.349   1.402   6.026 -0.2277 -0.3164 -1.9247
11263TIP3   OH255279   6.159   1.225  11.006  0.0191  0.0841  0.3768
11263TIP3    H155280   6.145   1.221  10.911 -0.9597 -0.4821  0.5333
11263TIP3    H255281   6.109   1.152  11.041 -1.2368  1.4282  1.5184
11264TIP3   OH255282   6.154   2.612  13.326  0.1310  0.3209 -0.3340
11264TIP3    H155283   6.178   2.646  13.412 -0.1850 -1.5117  0.5372
11264TIP3    H255284   6.061   2.633  13.316 -0.7264 -2.2649  1.2918
11265TIP3   OH255285   4.021   2.000  13.638  0.2594 -0.1482 -0.3173
11265TIP3    H155286   4.106   2.040  13.618  1.5176 -1.2441  2.3180
11265TIP3    H255287   4.008   2.018  13.731 -1.4098 -1.7803 -0.1764
11266TIP3   OH255288   4.880   2.698   4.017 -0.2445 -0.1866 -0.1286
11266TIP3    H155289   4.962   2.666   3.979 -0.9228  0.0599 -1.9401
11266TIP3    H255290   4.841   2.621   4.059  0.5791 -0.4658  0.1460
11267TIP3   OH255291   0.188   0.840   0.716 -0.3502 -0.2181 -0.0036
11267TIP3    H155292   0.162   0.910   0.656 -0.6913 -1.0586 -0.8694
11267TIP3    H255293   0.147   0.863   0.799 -1.0074  0.2814 -0.4548
11268TIP3   OH255294   3.113   3.240  14.819  0.6593  0.1549  0.6593
11268TIP3    H155295   3.053   3.262  14.890 -0.9076 -1.4991 -0.0664
11268TIP3    H255296   3.114   3.144  14.818  2.8218  0.1447  0.1901
11269TIP3   OH255297   4.035   4.567  11.584 -0.4119  0.3190 -0.1964
11269TIP3    H155298   4.104   4.631  11.567 -0.6832  0.5098 -0.5867
11269TIP3    H255299   3.973   4.613  11.641 -0.1654  0.1088  0.2528
11270TIP3   OH255300   6.284   2.422  13.642  0.3713  0.5215  0.1589
11270TIP3    H155301   6.189   2.430  13.644  0.2759  0.3629 -1.8438
11270TIP3    H255302   6.303   2.375  13.560  2.1500  0.2226  0.6944
11271TIP3   OH255303   5.879   3.169   1.965 -0.2739  0.1535 -0.2277
11271TIP3    H155304   5.785   3.156   1.952 -0.6026  2.9264 -1.2714
11271TIP3    H255305   5.884   3.230   2.038  0.7970 -0.4481  0.2248
11272TIP3   OH255306   2.780   6.530   4.052 -0.2802  0.1260 -0.6139
11272TIP3    H155307   2.828   6.483   4.121 -0.4790 -0.9251 -1.1614
11272TIP3    H255308   2.846   6.586   4.011  0.0441  0.1002 -0.1431
11273TIP3   OH255309   1.074   0.405  12.313  0.3130 -0.0865  0.0625
11273TIP3    H155310   1.119   0.488  12.299  0.2209 -0.3031 -1.7027
11273TIP3    H255311   1.129   0.359  12.378  1.4691  0.5266 -0.4456
11274TIP3   OH255312   0.734   5.347   5.440  0.3785  0.7957  0.4697
11274TIP3    H155313   0.686   5.388   5.511 -0.2463 -0.3046  0.7171
11274TIP3    H255314   0.809   5.306   5.482 -0.0156  0.1060  0.5272
11275TIP3   OH255315   3.559   6.106  13.167 -0.4400 -0.1090  0.3945
11275TIP3    H155316   3.524   6.118  13.078 -1.5894 -0.4679  0.7794
11275TIP3    H255317   3.629   6.171  13.174 -1.4124  1.0498 -0.2220
11276TIP3   OH255318   3.766   6.518  12.289 -0.0708 -0.2533 -0.3824
11276TIP3    H155319   3.710   6.515  12.366  0.7930 -0.6631  0.2523
11276TIP3    H255320   3.771   6.610  12.266  0.5949  0.0083  0.7655
11277TIP3   OH255321   4.825   1.338   5.555  0.0605  0.0902 -0.3195
11277TIP3    H155322   4.735   1.307   5.553 -0.2193  0.8855 -0.3196
11277TIP3    H255323   4.854   1.334   5.464 -0.0904  0.1798 -0.3701
11278TIP3   OH255324   2.985   0.872   5.947  0.7474 -0.0192  0.3645
11278TIP3    H155325   2.966   0.909   6.033 -0.4984 -1.7086  0.8603
11278TIP3    H255326   3.079   0.886   5.935  0.7025  1.3428  1.4447
11279TIP3   OH255327   1.858   4.826   1.845  0.1318  0.1749  0.1637
11279TIP3    H155328   1.862   4.901   1.906  1.9088 -0.5660  1.0087
11279TIP3    H255329   1.929   4.841   1.784 -0.6842  0.1005 -0.8334
11280TIP3   OH255330   2.313   4.834  12.884 -0.7613 -0.7548  0.6798
11280TIP3    H155331   2.389   4.776  12.882 -0.3425 -0.2104  0.7924
11280TIP3    H255332   2.327   4.890  12.960  0.5062  1.7204 -1.2423
11281TIP3   OH255333   1.177   5.317  13.204  0.1488  0.1340 -0.0556
11281TIP3    H155334   1.165   5.252  13.274  1.9082 -0.9391 -0.6665
11281TIP3    H255335   1.095   5.314  13.154 -0.9955  0.6709  1.7205
11282TIP3   OH255336   2.457   2.099   1.988  0.0550 -0.2392 -0.6445
11282TIP3    H155337   2.413   2.117   1.905 -0.6969  1.5210  0.0858
11282TIP3    H255338   2.543   2.066   1.963 -0.8518 -1.6303 -2.1082
11283TIP3   OH255339   1.721   5.513   2.468 -0.4305  0.4771  0.4752
11283TIP3    H155340   1.653   5.447   2.474  2.0225 -2.4164 -0.8593
11283TIP3    H255341   1.748   5.528   2.559  1.3292 -3.2390  0.7585
11284TIP3   OH255342   5.318   3.221   1.727 -0.2674 -0.0283  0.8669
11284TIP3    H155343   5.314   3.245   1.819  0.5283 -1.9104  1.4478
11284TIP3    H255344   5.387   3.155   1.722 -0.5537 -0.2595 -1.0201
11285TIP3   OH255345   3.631   0.620   0.649 -0.3435 -0.4075 -0.0515
11285TIP3    H155346   3.585   0.538   0.671  3.2154 -2.1122  1.8044
11285TIP3    H255347   3.667   0.650   0.732  0.2853  1.9167 -1.0960
11286TIP3   OH255348   6.675   2.812  11.094  0.0938  0.8559 -0.0521
11286TIP3    H155349   6.709   2.794  11.006  1.8222  1.6621  0.4171
11286TIP3    H255350   6.674   2.907  11.100 -0.9568  0.8287  0.4787
11287TIP3   OH255351   0.744   6.095  13.710 -0.0095  0.1337 -0.4491
11287TIP3    H155352   0.756   6.171  13.767 -0.3762  0.2555 -0.5285
11287TIP3    H255353   0.832   6.075  13.678  0.1104  0.4465 -0.3257
11288TIP3   OH255354   4.336   2.472  14.671 -0.0862  0.2610 -0.8160
11288TIP3    H155355   4.250   2.489  14.708 -0.9233 -1.2729 -1.9001
11288TIP3    H255356   4.326   2.387  14.627  1.8182  0.3282 -1.4644
11289TIP3   OH255357   2.233   2.279  11.681  0.0677  0.2473  0.2882
11289TIP3    H155358   2.299   2.346  11.700  0.8465  0.1181 -1.7630
11289TIP3    H255359   2.274   2.197  11.708  0.4921  0.2396 -0.3684
11290TIP3   OH255360   0.470   1.036   2.785 -0.4316  0.4752  0.7775
11290TIP3    H155361   0.508   0.948   2.787  0.0482  0.6140 -0.9587
11290TIP3    H255362   0.452   1.055   2.877 -0.2820 -1.3124  1.2292
11291TIP3   OH255363   1.335   3.572  15.396  0.0290  0.1623  0.3869
11291TIP3    H155364   1.297   3.554  15.311 -1.8355 -0.1168  1.2192
11291TIP3    H255365   1.392   3.497  15.414  0.8007  0.4538 -0.7899
11292TIP3   OH255366   5.296   4.721   4.353  0.1098  0.1244  0.3723
11292TIP3    H155367   5.230   4.652   4.348 -0.2128  0.4440  0.1664
11292TIP3    H255368   5.255   4.790   4.406  1.2625 -0.7404  2.4944
11293TIP3   OH255369   1.354   5.931  17.267  0.5673  0.6970 -0.5490
11293TIP3    H155370   1.382   5.961  17.180 -0.3258 -2.4352 -2.0842
11293TIP3    H255371   1.263   5.960  17.274  0.1351 -0.3689 -1.4199
11294TIP3   OH255372   1.841   5.917   5.169  0.0659 -0.1484 -0.2561
11294TIP3    H155373   1.845   5.880   5.257 -1.2942 -0.1118 -0.1658
11294TIP3    H255374   1.787   5.856   5.119  1.3253 -0.4965 -1.2584
11295TIP3   OH255375   3.711   6.122  16.575 -0.2064 -0.7745  0.4160
11295TIP3    H155376   3.751   6.204  16.545  1.0686 -0.8549  1.8076
11295TIP3    H255377   3.736   6.115  16.667 -3.6958 -0.7132  1.5210
11296TIP3   OH255378   1.362   5.255  13.718  0.6169  0.0395  0.0675
11296TIP3    H155379   1.323   5.323  13.663 -0.4819  0.8768  1.7852
11296TIP3    H255380   1.288   5.197  13.740  0.7184  0.4870  1.7094
11297TIP3   OH255381   2.329   2.267   0.620 -0.7061 -0.4775 -0.5052
11297TIP3    H155382   2.301   2.266   0.712  0.2442  0.1687 -0.1826
11297TIP3    H255383   2.384   2.189   0.611  0.0113 -0.0185 -0.2332
11298TIP3   OH255384   4.529   6.239   4.371  0.4447  0.4073 -0.4060
11298TIP3    H155385   4.587   6.176   4.413  0.3005  0.6695  0.1929
11298TIP3    H255386   4.588   6.308   4.340  0.4416  0.7503  0.3422
11299TIP3   OH255387   3.143   0.940  14.976 -0.2069  0.0992  0.2142
11299TIP3    H155388   3.238   0.936  14.992  0.1642 -1.0662 -1.9011
11299TIP3    H255389   3.104   0.892  15.049  0.8330  0.4204  1.0065
11300TIP3   OH255390   6.084   4.151  16.977  0.1257  0.0520 -0.7400
11300TIP3    H155391   6.003   4.168  17.026 -0.0072 -2.6222  0.1468
11300TIP3    H255392   6.057   4.155  16.885 -0.8758 -0.0812 -0.4703
11301TIP3   OH255393   0.993   5.073  15.687 -0.3025  0.4874  0.4733
11301TIP3    H155394   1.018   5.152  15.735  1.8298  0.5744 -0.6586
11301TIP3    H255395   0.897   5.075  15.687 -0.3352  3.2528  0.2426
11302TIP3   OH255396   5.230   0.283   6.006  0.4997 -0.2162 -0.1071
11302TIP3    H155397   5.304   0.321   6.053 -0.2818  0.6432  0.4611
11302TIP3    H255398   5.224   0.193   6.038  0.6997  0.0075  0.5666
11303TIP3   OH255399   0.632   2.032  13.310  0.2347  0.5181  0.8612
11303TIP3    H155400   0.670   2.116  13.338  0.5553  0.7453 -0.2049
11303TIP3    H255401   0.538   2.044  13.321  0.0942  1.7815 -1.1530
11304TIP3   OH255402   0.741   6.791   6.374  0.4742 -0.0976 -0.2477
11304TIP3    H155403   0.814   6.824   6.321 -0.1805 -0.8176 -1.6622
11304TIP3    H255404   0.721   6.862   6.435  1.0108  0.9262 -1.2299
11305TIP3   OH255405   2.636   5.726   2.590 -0.0305  0.3538 -0.2592
11305TIP3    H155406   2.617   5.746   2.682  2.0921  2.2412 -0.1356
11305TIP3    H255407   2.677   5.806   2.557  1.7344 -1.2207 -2.0894
11306TIP3   OH255408   4.430   2.981   6.202  0.2717 -0.7557 -0.6405
11306TIP3    H155409   4.494   3.047   6.228  1.4553 -2.4042  0.9057
11306TIP3    H255410   4.443   2.909   6.264 -1.5341 -2.1035 -1.7135
11307TIP3   OH255411   5.106   5.637   0.982 -0.1568  0.4540 -0.0397
11307TIP3    H155412   5.106   5.732   0.986  0.8485  0.4367  0.5955
11307TIP3    H255413   5.144   5.609   1.065 -0.7596 -0.5150 -0.0659
11308TIP3   OH255414   4.137   1.653   1.449 -0.0487  0.0892  0.2121
11308TIP3    H155415   4.093   1.640   1.532  0.9744  0.3700  0.8224
11308TIP3    H255416   4.080   1.713   1.400 -1.4216 -1.2722  0.0653
11309TIP3   OH255417   2.865   3.095   1.415 -0.0863  0.4886  0.7631
11309TIP3    H155418   2.860   3.071   1.508  0.3825  0.6649  0.8345
11309TIP3    H255419   2.832   3.018   1.369  0.4854  0.0737  1.0366
11310TIP3   OH255420   3.825   2.739   0.012 -0.3255  0.8189 -0.0985
11310TIP3    H155421   3.897   2.682   0.040 -0.2880  2.1835  3.0466
11310TIP3    H255422   3.762   2.680  -0.029  1.2135 -0.9153 -0.0903
11311TIP3   OH255423   3.847   6.164  15.956  0.4154 -0.1442 -0.1603
11311TIP3    H155424   3.820   6.102  15.888  0.5066 -0.8187  0.3978
11311TIP3    H255425   3.923   6.122  15.997  2.0663  1.5022 -1.3919
11312TIP3   OH255426   1.541   3.416  12.055 -0.3606  0.1249  0.1119
11312TIP3    H155427   1.487   3.494  12.071 -1.8362  0.3831 -4.7623
11312TIP3    H255428   1.479   3.344  12.046  0.5751 -0.6622 -0.2405
11313TIP3   OH255429   3.088   4.554  12.458  0.2959 -0.7121 -0.1778
11313TIP3    H155430   3.088   4.490  12.387  0.1919 -0.9858  0.0724
11313TIP3    H255431   3.181   4.574  12.471  0.3395 -0.9310 -0.1473
11314TIP3   OH255432   2.395   5.705   4.948  0.3021 -0.3501 -0.6568
11314TIP3    H155433   2.372   5.751   5.028  1.5261 -0.4523 -0.2239
11314TIP3    H255434   2.378   5.613   4.967 -1.3322 -0.2057 -1.2334
11315TIP3   OH255435   5.404   4.064  15.885  0.0964 -0.4031  0.0446
11315TIP3    H155436   5.359   4.125  15.826  0.0833 -1.4553 -1.0971
11315TIP3    H255437   5.395   4.103  15.972 -1.1008  0.5236 -0.4556
11316TIP3   OH255438   5.998   4.682  13.115 -0.3112  0.3434 -0.1754
11316TIP3    H155439   6.028   4.696  13.205 -0.1152  0.1746 -0.2150
11316TIP3    H255440   5.957   4.766  13.091 -0.4837  0.3442  0.1153
11317TIP3   OH255441   1.233   3.050   1.013  0.9132  0.0916  0.2292
11317TIP3    H155442   1.171   3.055   1.086  0.6525 -0.3956  0.0447
11317TIP3    H255443   1.179   3.067   0.935  1.4463  2.1335  0.2406
11318TIP3   OH255444   4.914   4.063  11.096  0.0604 -0.2825 -0.1927
11318TIP3    H155445   4.973   3.988  11.096 -0.2309 -0.5198 -0.5833
11318TIP3    H255446   4.915   4.095  11.186  1.2600  0.1041 -0.3357
11319TIP3   OH255447   4.224   1.727   2.508  0.2173  0.7851  0.0257
11319TIP3    H155448   4.174   1.647   2.496  0.6559  0.1902  1.8315
11319TIP3    H255449   4.275   1.736   2.428 -0.7563 -0.0565 -0.7159
11320TIP3   OH255450   5.586   1.840  14.487  0.7596  0.0802  0.2899
11320TIP3    H155451   5.593   1.918  14.432 -0.9101  0.1297  0.1069
11320TIP3    H255452   5.528   1.866  14.558 -2.1717 -1.7550 -1.2589
11321TIP3   OH255453   5.834   5.259   2.885 -0.4765 -0.3706  0.1872
11321TIP3    H155454   5.888   5.202   2.941 -0.3858  0.7568  1.3078
11321TIP3    H255455   5.748   5.216   2.884 -0.2535 -0.8426  0.5094
11322TIP3   OH255456   5.953   0.875  11.800 -0.4551  0.6004 -0.6271
11322TIP3    H155457   5.921   0.798  11.846 -2.1209  0.6018 -1.7020
11322TIP3    H255458   5.941   0.947  11.862  0.5372  0.1089  0.1537
11323TIP3   OH255459   4.917   6.076   0.621 -0.0612 -0.1198  0.3056
11323TIP3    H155460   4.956   6.100   0.705  0.2774 -0.1356  0.1533
11323TIP3    H255461   4.859   6.149   0.600  0.9755  0.5947 -0.1611
11324TIP3   OH255462   3.407   5.022  13.195  0.0845  0.2115  0.0011
11324TIP3    H155463   3.386   5.076  13.271 -0.1675 -1.2057  0.9936
11324TIP3    H255464   3.326   4.973  13.177  0.3170  0.1108 -0.8140
11325TIP3   OH255465   1.266   5.045   0.395  0.2604  0.7453 -0.0546
11325TIP3    H155466   1.358   5.019   0.383 -0.0769 -1.3153  1.2352
11325TIP3    H255467   1.216   4.977   0.349 -0.6807 -1.0798  3.3301
11326TIP3   OH255468   3.871   3.891  11.046  0.2728 -0.2103  0.1528
11326TIP3    H155469   3.833   3.979  11.048  1.2878  0.2354  0.7567
11326TIP3    H255470   3.822   3.843  11.114 -1.3544 -0.6086 -1.2372
11327TIP3   OH255471   2.902   2.109   0.416  0.1226  0.1022 -0.0698
11327TIP3    H155472   2.863   2.197   0.421  3.2983  1.6838 -0.6443
11327TIP3    H255473   2.896   2.085   0.323 -0.9296 -0.4250  0.1204
11328TIP3   OH255474   6.701   6.196  15.280 -0.3970 -0.1308  0.3183
11328TIP3    H155475   6.720   6.111  15.242  0.4723  0.8536 -1.5798
11328TIP3    H255476   6.736   6.259  15.217  0.5283  1.6304  2.4625
11329TIP3   OH255477   0.724   0.122   6.019  0.5909  0.3846 -0.3927
11329TIP3    H155478   0.709   0.150   6.109 -2.4325  0.5979 -0.8327
11329TIP3    H255479   0.658   0.170   5.968 -0.0612 -2.1784 -2.1869
11330TIP3   OH255480   3.988   0.518  12.261  0.0805 -0.1898 -0.6212
11330TIP3    H155481   4.022   0.593  12.213 -1.4609 -0.1795 -1.7900
11330TIP3    H255482   3.896   0.511  12.234 -0.1834 -1.7031  0.4613
11331TIP3   OH255483   4.560   6.815   4.068  0.1270  0.0300 -0.2319
11331TIP3    H155484   4.536   6.904   4.041 -4.0298 -0.2086  1.8115
11331TIP3    H255485   4.643   6.826   4.115  1.4819  2.1643 -2.8696
11332TIP3   OH255486   5.777   2.057  13.928 -0.6906 -0.8472 -0.4561
11332TIP3    H155487   5.682   2.064  13.927 -0.7868 -0.9019  1.8183
11332TIP3    H255488   5.808   2.145  13.906 -1.2127 -1.1111 -2.3541
11333TIP3   OH255489   5.083   0.850   4.889  0.5039 -0.1821  0.0313
11333TIP3    H155490   5.165   0.850   4.839 -0.3265  1.9244 -1.4463
11333TIP3    H255491   5.015   0.859   4.823 -0.7919  0.4680  1.4067
11334TIP3   OH255492   6.464   5.763  14.124  0.2805 -0.1716  0.0836
11334TIP3    H155493   6.546   5.742  14.169  1.1265 -0.4597 -1.5450
11334TIP3    H255494   6.400   5.771  14.195  1.4561 -1.1054  1.3060
11335TIP3   OH255495   6.151   4.753  10.503 -0.5963  0.3877 -0.1384
11335TIP3    H155496   6.094   4.713  10.569  0.9021  0.9613  1.5929
11335TIP3    H255497   6.142   4.847  10.517  1.2603  0.5017  0.7079
11336TIP3   OH255498   0.334   4.971   3.610  0.0660 -0.5052  0.2629
11336TIP3    H155499   0.329   5.040   3.545 -0.3731  0.7352  1.5693
11336TIP3    H255500   0.305   4.892   3.564  1.3571 -0.0186 -1.4728
11337TIP3   OH255501   5.947   1.520  13.184 -0.1252 -0.3403  0.2314
11337TIP3    H155502   5.880   1.461  13.219 -0.4918 -0.9163 -1.3188
11337TIP3    H255503   5.926   1.526  13.090  0.1242  1.9663  0.2637
11338TIP3   OH255504   4.316   4.273   1.315 -0.0441  0.2974  0.5738
11338TIP3    H155505   4.409   4.295   1.326  0.3819 -1.5578  0.9435
11338TIP3    H255506   4.316   4.193   1.263 -1.3943 -0.2990  1.4344
11339TIP3   OH255507   0.148   3.469   0.217 -0.2502  0.3844  0.0728
11339TIP3    H155508   0.204   3.393   0.234 -0.8518  0.1534  1.1393
11339TIP3    H255509   0.207   3.544   0.223  0.0212  0.1227  0.8836
11340TIP3   OH255510   2.682   2.837   2.787 -0.6193  0.2005  0.4637
11340TIP3    H155511   2.655   2.747   2.802  0.1484 -0.0948  0.0829
11340TIP3    H255512   2.613   2.874   2.731 -0.1623 -0.6003 -0.6537
11341TIP3   OH255513   5.827   5.276  16.034 -0.0780  0.1147 -0.4548
11341TIP3    H155514   5.835   5.182  16.050  0.4507  0.1135 -0.7089
11341TIP3    H255515   5.733   5.290  16.018 -0.0172 -0.5306 -1.4273
11342TIP3   OH255516   6.475   5.575  11.207  0.9919 -0.1251 -0.3749
11342TIP3    H155517   6.563   5.548  11.180  1.4670 -0.2232  1.1850
11342TIP3    H255518   6.417   5.507  11.171  1.5813 -0.2449 -1.1161
11343TIP3   OH255519   0.780   1.599  12.376  0.0310 -0.6014 -0.5827
11343TIP3    H155520   0.735   1.675  12.411  1.4179  1.0283 -2.0800
11343TIP3    H255521   0.716   1.558  12.318 -0.2157  0.4901 -1.1221
11344TIP3   OH255522   6.819   4.501  16.660 -0.4905 -0.2065  0.8604
11344TIP3    H155523   6.763   4.427  16.638  0.3038 -0.1302 -1.7804
11344TIP3    H255524   6.891   4.496  16.597  1.2206  1.0789  2.5847
11345TIP3   OH255525   5.582   0.961   2.720  0.8192  0.3604  0.8340
11345TIP3    H155526   5.520   1.027   2.690 -1.4587 -0.4839  3.3119
11345TIP3    H255527   5.667   1.005   2.717 -0.0988  2.1554 -0.9989
11346TIP3   OH255528   1.968   2.420   0.412  0.6320 -0.0107 -0.5951
11346TIP3    H155529   1.964   2.345   0.353  0.2177 -0.5532  0.1029
11346TIP3    H255530   1.901   2.402   0.478 -0.5057  1.6764 -1.2191
11347TIP3   OH255531   5.419   3.911   5.456  0.1016 -0.0253  0.1451
11347TIP3    H155532   5.489   3.976   5.447  0.3374 -0.3433 -0.3779
11347TIP3    H255533   5.464   3.828   5.467  0.0228 -0.9808 -4.5894
11348TIP3   OH255534   2.741   5.028  13.304  0.4392  0.4363 -0.0223
11348TIP3    H155535   2.781   4.941  13.295 -0.8370 -0.2615  0.8736
11348TIP3    H255536   2.787   5.081  13.238  2.2737 -0.5151  0.4077
11349TIP3   OH255537   4.741   2.438   1.301 -0.4876  0.0570 -0.2479
11349TIP3    H155538   4.773   2.505   1.241 -0.1398  1.8442  1.7885
11349TIP3    H255539   4.791   2.359   1.278  1.2826  1.2764 -0.8423
11350TIP3   OH255540   3.074   5.630  15.330 -0.0966 -0.2842 -0.1093
11350TIP3    H155541   3.071   5.647  15.236 -0.6613  0.3839  0.0229
11350TIP3    H255542   3.034   5.708  15.370  0.9800 -0.1360  0.7324
11351TIP3   OH255543   4.257   1.636  12.988 -0.1251 -0.9806 -0.5811
11351TIP3    H155544   4.258   1.692  13.065  2.3829  1.9871 -2.5467
11351TIP3    H255545   4.167   1.641  12.956 -0.3721  0.4961  0.2674
11352TIP3   OH255546   2.452   2.653   5.739 -0.1235 -0.0640  0.2364
11352TIP3    H155547   2.462   2.685   5.828  0.1556 -0.4598  0.3533
11352TIP3    H255548   2.501   2.715   5.685  1.2094 -0.7735  0.5609
11353TIP3   OH255549   2.090   4.405   1.819 -0.6411  0.3353  0.0874
11353TIP3    H155550   2.101   4.310   1.825  1.1291  0.3057 -2.2471
11353TIP3    H255551   2.018   4.424   1.879  1.1273 -1.9941  3.2515
11354TIP3   OH255552   4.278   2.603   5.540 -0.4583  0.1091 -0.0996
11354TIP3    H155553   4.237   2.526   5.580 -0.4611 -0.7596 -1.6727
11354TIP3    H255554   4.270   2.671   5.606  4.3485 -2.4447  3.7921
11355TIP3   OH255555   0.124   2.119  12.661 -0.3942 -0.2299 -0.4280
11355TIP3    H155556   0.103   2.210  12.641  1.0101  0.2991  0.3328
11355TIP3    H255557   0.206   2.102  12.614  0.9857 -0.1089  1.8041
11356TIP3   OH255558   0.325   0.466  17.025 -0.0499 -0.7394  0.3400
11356TIP3    H155559   0.276   0.538  16.985 -1.7292 -1.2616  1.3521
11356TIP3    H255560   0.323   0.486  17.119  3.4523  0.2544  0.3513
11357TIP3   OH255561   4.291   2.348  11.474 -0.2061  0.0019 -0.0139
11357TIP3    H155562   4.238   2.295  11.533 -1.3649 -0.1934 -1.1926
11357TIP3    H255563   4.349   2.397  11.532  0.8601 -2.4426  1.1392
11358TIP3   OH255564   3.769   4.363  16.889  0.2019 -0.0286  0.1493
11358TIP3    H155565   3.836   4.415  16.845  0.3406 -1.6232 -1.6239
11358TIP3    H255566   3.712   4.428  16.930  1.3132  1.4482 -0.5545
11359TIP3   OH255567   4.844   0.708   1.798 -0.2197 -0.0982  0.6252
11359TIP3    H155568   4.816   0.617   1.786 -2.3960  0.8290 -2.7097
11359TIP3    H255569   4.939   0.705   1.783 -0.3800 -1.7110 -0.4225
11360TIP3   OH255570   1.452   2.347   4.813 -0.3234 -0.1100 -0.1949
11360TIP3    H155571   1.398   2.273   4.786 -1.4622  0.8615 -0.6705
11360TIP3    H255572   1.537   2.308   4.836 -0.4788 -1.4067 -1.6694
11361TIP3   OH255573   6.616   2.864  16.940  0.1967  0.4227 -0.2346
11361TIP3    H155574   6.537   2.846  16.991  0.1454  0.9158 -0.1410
11361TIP3    H255575   6.611   2.803  16.866  0.9662 -1.3011  1.0434
11362TIP3   OH255576   6.569   2.271   2.690  0.4017 -0.5990  0.0994
11362TIP3    H155577   6.569   2.198   2.629 -1.5265  1.0839 -2.0965
11362TIP3    H255578   6.582   2.231   2.776  3.9800 -3.0107 -1.3426
11363TIP3   OH255579   0.642   2.320  12.258  0.5480 -0.0291 -0.1984
11363TIP3    H155580   0.641   2.230  12.290 -0.1455 -0.3199 -0.9954
11363TIP3    H255581   0.639   2.312  12.162  1.0315  0.8307 -0.3045
11364TIP3   OH255582   2.441   3.264   5.599 -0.3092 -0.6121 -0.0215
11364TIP3    H155583   2.431   3.222   5.685 -0.6806 -2.0892 -0.7511
11364TIP3    H255584   2.397   3.205   5.538  2.1092 -0.9248 -1.6165
11365TIP3   OH255585   6.661   0.946  17.212 -0.2416 -0.7484 -0.0184
11365TIP3    H155586   6.625   1.003  17.280  0.9046 -1.6801  1.4119
11365TIP3    H255587   6.752   0.976  17.202 -0.6712  0.0777 -1.9437
11366TIP3   OH255588   0.651   3.105  14.570  0.0053  0.0745  0.0131
11366TIP3    H155589   0.611   3.192  14.564  1.5525  0.7740 -1.1028
11366TIP3    H255590   0.728   3.118  14.625 -0.5177 -0.9320  1.0098
11367TIP3   OH255591   4.632   3.931   4.320  0.2789  0.8173 -0.0865
11367TIP3    H155592   4.560   3.986   4.352 -0.5156 -0.2070 -0.0483
11367TIP3    H255593   4.708   3.957   4.372 -0.4448  0.7953  1.0126
11368TIP3   OH255594   5.341   2.007   4.512  0.3893  0.4602 -0.2647
11368TIP3    H155595   5.359   2.082   4.569  0.9042 -0.0876  0.3162
11368TIP3    H255596   5.248   2.013   4.492 -0.2341 -0.2613  2.0431
11369TIP3   OH255597   0.770   1.556   1.822  0.7245 -0.0764  0.0736
11369TIP3    H155598   0.772   1.635   1.876 -0.0136  0.2175 -0.3020
11369TIP3    H255599   0.824   1.577   1.746 -2.5395  1.6333 -2.0131
11370TIP3   OH255600   1.642   1.141  16.397  0.0518 -0.6278  0.7614
11370TIP3    H155601   1.554   1.178  16.407  0.2244  0.3618 -0.9834
11370TIP3    H255602   1.659   1.097  16.480 -2.4952 -1.7397  0.8099
11371TIP3   OH255603   4.035   6.692   0.668  0.2410  0.1572 -0.1644
11371TIP3    H155604   3.981   6.686   0.590 -0.0301  1.7918 -0.1447
11371TIP3    H255605   4.123   6.715   0.636  0.2598  0.2806 -0.0289
11372TIP3   OH255606   6.761   4.036  16.817 -0.2076 -0.4226  0.5374
11372TIP3    H155607   6.789   4.019  16.727 -0.8052  2.3056 -0.2889
11372TIP3    H255608   6.835   4.083  16.857 -0.3455 -0.6940  1.1197
11373TIP3   OH255609   1.253   4.675   6.459  0.0396  0.0640  0.3895
11373TIP3    H155610   1.274   4.755   6.411 -0.7929 -0.5909 -1.1206
11373TIP3    H255611   1.336   4.627   6.465  0.1754  0.2120 -0.2774
11374TIP3   OH255612   6.244   1.652  11.244 -0.0479 -0.5826  0.4682
11374TIP3    H155613   6.311   1.585  11.255 -0.1243 -0.6783  0.3601
11374TIP3    H255614   6.279   1.728  11.289  0.9541 -0.0676 -1.0652
11375TIP3   OH255615   1.091   0.347   4.247  0.1762 -0.5796 -0.1329
11375TIP3    H155616   1.082   0.437   4.281  0.1257 -1.4518  2.3915
11375TIP3    H255617   1.113   0.358   4.155  1.0691  2.0404  0.3099
11376TIP3   OH255618   5.632   1.796  15.395  0.1133  0.1002 -0.2651
11376TIP3    H155619   5.684   1.815  15.317 -0.1133  1.5425 -0.0958
11376TIP3    H255620   5.542   1.810  15.368 -0.1826 -1.8479 -0.3991
11377TIP3   OH255621   2.632   3.456  12.462 -0.4611 -0.0876  0.2154
11377TIP3    H155622   2.598   3.392  12.524  0.0544 -1.2938 -0.7026
11377TIP3    H255623   2.639   3.537  12.513 -0.2088 -0.9877  1.6925
11378TIP3   OH255624   6.028   3.159   4.296 -0.2039 -0.1937 -0.3047
11378TIP3    H155625   6.010   3.088   4.358 -2.2499 -0.2154 -0.8536
11378TIP3    H255626   5.942   3.185   4.264  0.4858  2.6304 -0.0681
11379TIP3   OH255627   1.208   2.429  16.095 -0.2986 -0.0120  0.2508
11379TIP3    H155628   1.163   2.513  16.084  0.0371  0.2815  1.0228
11379TIP3    H255629   1.141   2.371  16.132 -0.4078  0.0471  0.1468
11380TIP3   OH255630   2.963   6.209  10.935  0.2268  0.3117  0.1394
11380TIP3    H155631   2.886   6.191  10.881  1.5475  1.0118 -2.1702
11380TIP3    H255632   3.009   6.279  10.888  1.4346  1.0871  2.3174
11381TIP3   OH255633   4.424   3.832   5.876 -0.5306 -0.2261 -0.3753
11381TIP3    H155634   4.461   3.744   5.874 -0.2296 -0.1051 -0.2514
11381TIP3    H255635   4.385   3.844   5.790  0.9862  0.1668 -1.0424
11382TIP3   OH255636   4.800   6.494  11.204 -0.1956  0.4040  0.2571
11382TIP3    H155637   4.800   6.480  11.299  0.5848 -2.8057 -0.0815
11382TIP3    H255638   4.893   6.495  11.180 -0.2691 -3.3793 -0.8272
11383TIP3   OH255639   5.261   4.488  15.657 -0.2319  0.2658  0.1067
11383TIP3    H155640   5.177   4.530  15.639 -0.5931 -0.5139 -0.0678
11383TIP3    H255641   5.285   4.519  15.744 -0.2007  1.2828 -0.2504
11384TIP3   OH255642   6.539   1.340   1.878 -0.3421  0.0962  0.1797
11384TIP3    H155643   6.510   1.299   1.797 -1.4140 -2.8460  1.8773
11384TIP3    H255644   6.465   1.395   1.905 -0.3829  0.2902 -0.3219
11385TIP3   OH255645   3.148   0.877   4.143  0.4945  0.5501  0.2615
11385TIP3    H155646   3.079   0.927   4.185  1.0328  1.1754  0.4188
11385TIP3    H255647   3.113   0.788   4.137 -0.4101  0.9046  0.1217
11386TIP3   OH255648   3.075   0.706   3.752  0.5213 -0.0445  0.1174
11386TIP3    H155649   3.023   0.783   3.729  1.0398 -0.0105 -0.9890
11386TIP3    H255650   3.166   0.735   3.742  0.7269 -0.6649  0.1517
11387TIP3   OH255651   2.701   0.888  16.095  0.3034 -0.2122 -0.0542
11387TIP3    H155652   2.730   0.935  16.016  0.2553  2.0828  1.1926
11387TIP3    H255653   2.635   0.945  16.133 -0.8233 -2.0402  0.8504
11388TIP3   OH255654   1.171   0.190   2.227 -0.6301  0.0715  0.0080
11388TIP3    H155655   1.257   0.167   2.262 -0.4706 -0.7658 -0.8516
11388TIP3    H255656   1.115   0.198   2.303  0.2974  1.0286  0.6085
11389TIP3   OH255657   5.879   1.053  11.578  0.2335 -0.3341 -0.2139
11389TIP3    H155658   5.868   1.005  11.496 -2.5287 -0.4197  0.1215
11389TIP3    H255659   5.895   0.985  11.644  1.9812 -0.2988 -0.5591
11390TIP3   OH255660   0.024   3.231   2.549 -0.7046  0.3689  0.6042
11390TIP3    H155661   0.072   3.310   2.575  1.1232  0.2977 -2.1873
11390TIP3    H255662   0.087   3.160   2.562 -0.8426 -0.0476 -0.8550
11391TIP3   OH255663   2.963   4.114  13.022 -0.1402 -0.3298 -0.1266
11391TIP3    H155664   2.876   4.154  13.021  0.9338  2.2322 -1.4640
11391TIP3    H255665   2.998   4.133  13.109  0.3979  2.0062 -0.7693
11392TIP3   OH255666   4.233   1.910   5.556 -0.3422  1.2632  0.0220
11392TIP3    H155667   4.313   1.898   5.504  0.4728  0.5176  1.3874
11392TIP3    H255668   4.203   1.821   5.574 -3.2159  1.4394 -2.9089
11393TIP3   OH255669   0.448   6.538   4.133  0.0682  0.1651  0.2704
11393TIP3    H155670   0.534   6.517   4.096 -0.1883  1.9986 -1.5890
11393TIP3    H255671   0.388   6.481   4.086  0.0670  0.3451  0.0502
11394TIP3   OH255672   0.396   3.011  12.492 -0.5982 -0.4236 -0.0532
11394TIP3    H155673   0.419   3.082  12.432  1.1165 -0.7724  0.1429
11394TIP3    H255674   0.347   2.949  12.437 -3.3976  1.4521  0.0854
11395TIP3   OH255675   1.042   6.337  17.257 -0.0250  0.3238 -0.2242
11395TIP3    H155676   1.009   6.381  17.178 -0.7469  1.2957  0.5849
11395TIP3    H255677   1.137   6.335  17.246  0.0431  2.1762 -0.2718
11396TIP3   OH255678   4.959   2.413  14.439 -0.6191  0.3779 -0.2713
11396TIP3    H155679   4.872   2.378  14.420 -0.6226  0.6778 -0.8305
11396TIP3    H255680   4.982   2.464  14.361  0.5769 -0.7033 -0.6587
11397TIP3   OH255681   1.119   0.596  13.697 -0.3262  1.0765  0.1345
11397TIP3    H155682   1.110   0.686  13.731 -1.8937  0.2383  2.1941
11397TIP3    H255683   1.029   0.564  13.691  0.1603 -0.1518 -1.2841
11398TIP3   OH255684   5.394   1.233  13.864  0.0709  0.0187  0.5279
11398TIP3    H155685   5.434   1.156  13.823  0.3600 -0.5277  1.7808
11398TIP3    H255686   5.329   1.263  13.800  0.5382 -0.7630 -0.3384
11399TIP3   OH255687   3.801   6.431   0.699 -0.4826  0.0345  0.0071
11399TIP3    H155688   3.857   6.354   0.698  0.4699  0.7022 -1.3904
11399TIP3    H255689   3.844   6.493   0.640 -2.3056  0.8516 -0.5354
11400TIP3   OH255690   3.337   3.983  15.353 -0.3641  0.0231  0.5803
11400TIP3    H155691   3.346   3.936  15.271 -3.4089  0.3688 -0.0526
11400TIP3    H255692   3.364   4.073  15.332  2.0271 -0.5551  0.8902
11401TIP3   OH255693   1.387   6.127  15.233  0.1237  0.2302  0.3913
11401TIP3    H155694   1.445   6.147  15.307  0.5595  0.1071  0.0924
11401TIP3    H255695   1.422   6.180  15.161  0.8472 -1.0029 -0.2209
11402TIP3   OH255696   1.100   3.070   1.328  0.2995  0.5430  0.0145
11402TIP3    H155697   1.036   2.999   1.340 -0.3474  0.6521 -2.3554
11402TIP3    H255698   1.057   3.130   1.267  1.5274  2.1357  0.6565
11403TIP3   OH255699   5.475   5.398  12.969  0.3764 -0.5889  0.3599
11403TIP3    H155700   5.503   5.340  13.039  0.0969 -1.4610 -0.2324
11403TIP3    H255701   5.555   5.440  12.939  0.7315 -1.3611  0.1945
11404TIP3   OH255702   5.214   1.116   4.845 -0.3970 -0.5658 -0.0215
11404TIP3    H155703   5.178   1.061   4.915  0.1986  0.8258  1.4463
11404TIP3    H255704   5.146   1.116   4.777 -1.1726 -1.6404  0.7119
11405TIP3   OH255705   0.730   0.629   0.721 -0.3169  0.5633  0.5462
11405TIP3    H155706   0.702   0.614   0.631  0.5664 -0.6496  0.4551
11405TIP3    H255707   0.690   0.713   0.745 -2.0652  0.0391 -0.3588
11406TIP3   OH255708   0.240   0.059   1.841  0.0075 -0.8048 -0.3787
11406TIP3    H155709   0.223  -0.005   1.910  2.0322 -1.7878 -0.6962
11406TIP3    H255710   0.299   0.123   1.882 -0.4516 -0.2290 -0.6103
11407TIP3   OH255711   4.371   6.159   3.894  0.8101 -0.7147 -0.0739
11407TIP3    H155712   4.450   6.193   3.853  0.2234  0.5124 -0.2409
11407TIP3    H255713   4.331   6.236   3.935  0.4284 -1.5750  1.2149
11408TIP3   OH255714   0.193   0.019  11.107 -0.0159  0.2696 -0.2540
11408TIP3    H155715   0.104   0.054  11.114 -0.2579 -0.1545 -1.1215
11408TIP3    H255716   0.199  -0.016  11.018  1.6353  2.0148 -0.9114
11409TIP3   OH255717   1.429   0.882   3.623 -0.5431  0.4481 -0.2402
11409TIP3    H155718   1.506   0.930   3.591  0.4785 -0.2236  1.1180
11409TIP3    H255719   1.394   0.839   3.545  1.0093  0.0195 -0.7341
11410TIP3   OH255720   6.209   3.468   4.821 -0.3839 -0.0321 -0.2403
11410TIP3    H155721   6.280   3.528   4.797 -1.3375  0.7940 -1.0258
11410TIP3    H255722   6.130   3.507   4.785 -1.3489 -0.6623  1.0870
11411TIP3   OH255723   0.759   4.291   1.072 -0.2373 -0.0122 -0.0963
11411TIP3    H155724   0.775   4.203   1.039  1.9222  0.3058 -0.0172
11411TIP3    H255725   0.829   4.345   1.034 -0.1756  1.2103  1.6180
11412TIP3   OH255726   0.090   6.347  17.156 -0.0808 -0.2655  0.2689
11412TIP3    H155727   0.182   6.376  17.159  0.0557 -0.3677 -1.5558
11412TIP3    H255728   0.094   6.261  17.114 -1.0469 -0.0144 -0.3640
11413TIP3   OH255729   4.491   4.651  12.321  0.1113 -0.4364 -0.0403
11413TIP3    H155730   4.424   4.717  12.300 -0.1536 -1.1088 -1.4371
11413TIP3    H255731   4.443   4.584  12.370  0.4099  0.4363  1.5011
11414TIP3   OH255732   5.700   2.226  15.633 -0.0976 -0.2864  0.5238
11414TIP3    H155733   5.651   2.149  15.603  0.1801 -0.3933  0.3383
11414TIP3    H255734   5.792   2.202  15.620  0.0926 -0.7513  2.4846
11415TIP3   OH255735   4.275   1.146  12.286 -0.2874 -0.1414 -0.4197
11415TIP3    H155736   4.271   1.135  12.381 -0.1083 -0.9493 -0.4985
11415TIP3    H255737   4.350   1.093  12.259  0.0581  0.6057 -0.9412
11416TIP3   OH255738   6.307   1.542   0.988 -0.2447  0.0250  0.2730
11416TIP3    H155739   6.222   1.577   1.015 -0.4520  0.3885 -0.7875
11416TIP3    H255740   6.346   1.612   0.936 -0.1833 -0.8765 -0.9545
11417TIP3   OH255741   0.959   4.206   1.845  0.0735 -0.0970 -0.1138
11417TIP3    H155742   1.038   4.191   1.897 -1.4403 -1.0069  2.1331
11417TIP3    H255743   0.917   4.282   1.886 -0.8142 -0.3929 -0.4408
11418TIP3   OH255744   2.384   1.896  17.280  0.2303 -0.1673 -0.2723
11418TIP3    H155745   2.410   1.830  17.343  1.0069  1.0656  0.7566
11418TIP3    H255746   2.331   1.849  17.216  0.5330 -1.7083  0.5622
11419TIP3   OH255747   5.573   2.950  11.052  0.3001 -0.0772  0.4825
11419TIP3    H155748   5.481   2.950  11.024  0.5095 -0.1113 -0.2255
11419TIP3    H255749   5.580   2.874  11.111  0.2583 -1.1048 -0.7951
11420TIP3   OH255750   0.875   2.906  16.716 -0.1399  0.1193 -0.4764
11420TIP3    H155751   0.923   2.824  16.716 -1.5236 -0.7556  0.8856
11420TIP3    H255752   0.877   2.936  16.807 -3.6171 -0.9467  0.1009
11421TIP3   OH255753   4.549   6.451  15.061  0.0365  0.4627  0.0090
11421TIP3    H155754   4.551   6.510  15.136 -0.5162 -0.1871  0.5427
11421TIP3    H255755   4.457   6.442  15.039  0.1841  0.5273 -0.6613
11422TIP3   OH255756   4.217   5.450   2.786 -0.3054  0.0827  0.3612
11422TIP3    H155757   4.137   5.446   2.734 -0.9217 -0.4326  1.3091
11422TIP3    H255758   4.191   5.417   2.873  0.2787  2.4036  1.4953
11423TIP3   OH255759   5.781   1.276   0.974  0.0725 -0.4524 -0.2766
11423TIP3    H155760   5.725   1.286   1.051 -1.0581  1.5566 -1.2932
11423TIP3    H255761   5.836   1.200   0.994  1.2192  1.1237  3.3694
11424TIP3   OH255762   0.275   0.709  13.131  0.5839  0.3305  0.1228
11424TIP3    H155763   0.185   0.707  13.098  0.4168 -0.4564  0.6161
11424TIP3    H255764   0.275   0.651  13.207  1.1969  1.3474  0.9311
11425TIP3   OH255765   5.699   4.955   0.876  0.2063  0.1480  0.4952
11425TIP3    H155766   5.656   4.933   0.793  1.9461 -1.1995 -0.1292
11425TIP3    H255767   5.785   4.913   0.869  2.8367  4.8884  0.4692
11426TIP3   OH255768   0.238   6.511  13.223 -0.0799 -0.5574  0.0421
11426TIP3    H155769   0.197   6.555  13.297  0.5177 -0.7537  0.4933
11426TIP3    H255770   0.280   6.434  13.260  0.4014 -0.5494 -0.4655
11427TIP3   OH255771   0.194   6.722   2.050  0.6015 -0.5050 -0.0432
11427TIP3    H155772   0.219   6.695   2.139 -0.6662 -1.2422  0.1108
11427TIP3    H255773   0.114   6.772   2.062  1.0965  0.4661 -0.6724
11428TIP3   OH255774   0.676   2.996  13.636  0.4637  0.0864 -0.0226
11428TIP3    H155775   0.652   3.069  13.693  1.6113 -1.0293  1.9543
11428TIP3    H255776   0.766   3.014  13.610  0.6945 -0.5474  0.3332
11429TIP3   OH255777   6.241   6.140   0.646  0.4192 -0.0775  0.0570
11429TIP3    H155778   6.282   6.218   0.609  0.3508  0.2376  0.6473
11429TIP3    H255779   6.270   6.138   0.737 -0.9095  0.1803  0.5101
11430TIP3   OH255780   2.909   1.801   5.292  0.1400  0.0158 -0.2857
11430TIP3    H155781   2.944   1.834   5.375 -1.6258 -1.2716  1.0444
11430TIP3    H255782   2.959   1.721   5.275 -0.4931 -0.5283  0.3520
11431TIP3   OH255783   2.387   4.973   4.287  0.0008  0.1250 -0.7975
11431TIP3    H155784   2.307   4.929   4.316 -0.5783  0.8998 -1.1698
11431TIP3    H255785   2.380   4.975   4.192  0.5245  0.0880 -0.8365
11432TIP3   OH255786   4.059   5.647   6.524 -1.6022 -0.1438 -0.0751
11432TIP3    H155787   4.093   5.577   6.580 -1.1136 -0.4503 -0.7427
11432TIP3    H255788   4.008   5.601   6.457 -0.9217  0.0913 -0.7701
11433TIP3   OH255789   6.251   5.644   2.107  0.4498  0.3261 -0.7704
11433TIP3    H155790   6.292   5.611   2.027 -0.2448  1.2181 -1.5135
11433TIP3    H255791   6.159   5.620   2.099  0.8812 -2.9411  1.5417
11434TIP3   OH255792   2.943   6.805  14.726  0.1900  0.0235 -0.5583
11434TIP3    H155793   2.895   6.873  14.680  1.3202  1.3789  0.1644
11434TIP3    H255794   2.887   6.782  14.800 -0.4790 -0.2813 -1.1588
11435TIP3   OH255795   3.672   0.540  15.517  0.4743 -0.6036 -0.5052
11435TIP3    H155796   3.719   0.582  15.589 -1.8644 -1.2004  1.5193
11435TIP3    H255797   3.673   0.447  15.539 -0.3362 -0.7930 -1.1877
11436TIP3   OH255798   0.287   0.642   0.228 -0.3309  0.4765 -0.1627
11436TIP3    H155799   0.221   0.707   0.252 -0.0047  1.0407 -0.7599
11436TIP3    H255800   0.314   0.603   0.312 -2.3501 -0.7226 -0.0033
11437TIP3   OH255801   5.420   0.407   4.591  0.1011 -0.0916 -0.2810
11437TIP3    H155802   5.485   0.446   4.650  0.3415 -0.1288 -0.5217
11437TIP3    H255803   5.343   0.464   4.600  1.1033  1.7414 -2.1901
11438TIP3   OH255804   5.917   2.072   5.506  0.1409 -0.3387  0.2020
11438TIP3    H155805   6.009   2.090   5.487  0.0125  0.5914  0.4099
11438TIP3    H255806   5.907   2.093   5.599 -0.5522  0.7419 -0.0981
11439TIP3   OH255807   0.634   0.259   3.214  0.0113 -0.1728 -0.2317
11439TIP3    H155808   0.669   0.348   3.220 -1.2165  0.3362 -0.3183
11439TIP3    H255809   0.683   0.218   3.144 -1.4405  1.4476 -2.3244
11440TIP3   OH255810   0.029   2.773   3.837  0.0791 -0.2982  0.2013
11440TIP3    H155811  -0.011   2.835   3.776  0.0781 -0.4776  0.0225
11440TIP3    H255812   0.114   2.752   3.797  0.0975 -0.3800  0.2839
11441TIP3   OH255813   2.133   2.591  14.754 -0.2979 -0.6316 -0.3754
11441TIP3    H155814   2.103   2.570  14.666  1.8427 -1.1572 -1.0424
11441TIP3    H255815   2.069   2.654  14.787 -1.2048 -0.5130 -2.2473
11442TIP3   OH255816   4.583   0.561  13.203 -0.5953 -0.5850  0.5758
11442TIP3    H155817   4.654   0.498  13.194  1.2482  1.6270 -2.0756
11442TIP3    H255818   4.522   0.540  13.132  0.6425  1.1984 -1.1073
11443TIP3   OH255819   2.180   6.274  11.017  0.3973 -0.0889 -0.1575
11443TIP3    H155820   2.157   6.307  11.104 -0.9722  0.0378 -0.5355
11443TIP3    H255821   2.239   6.339  10.981  2.6121 -1.1131  1.3985
11444TIP3   OH255822   3.054   4.695   4.502 -0.5658  0.0168  0.3228
11444TIP3    H155823   2.966   4.658   4.493 -1.2048  1.7134 -0.8899
11444TIP3    H255824   3.053   4.737   4.588 -0.1911 -1.7394  1.2377
11445TIP3   OH255825   6.782   0.506   0.304  0.3767  0.2912 -0.4522
11445TIP3    H155826   6.787   0.556   0.222  0.5679 -1.0268 -1.2786
11445TIP3    H255827   6.735   0.426   0.280 -0.3928  0.2898  0.9617
11446TIP3   OH255828   5.857   1.615  12.591 -0.0639 -0.4601  0.0612
11446TIP3    H155829   5.952   1.612  12.597 -0.0220 -0.5892 -0.6159
11446TIP3    H255830   5.832   1.530  12.555 -0.2439  0.3471 -1.8644
11447TIP3   OH255831   6.514   0.231   5.278 -0.0210  0.1216 -0.2825
11447TIP3    H155832   6.523   0.194   5.365  2.8271  2.0226  0.3629
11447TIP3    H255833   6.436   0.288   5.284 -0.3009 -0.3495  0.7782
11448TIP3   OH255834   0.208   0.628   1.094 -0.0439 -0.1276 -0.2116
11448TIP3    H155835   0.127   0.582   1.072 -0.7656  1.5849 -1.4376
11448TIP3    H255836   0.256   0.633   1.011  0.2177  0.8855 -0.0159
11449TIP3   OH255837   2.295   3.202  15.361  0.0771  0.0892  0.2439
11449TIP3    H155838   2.301   3.110  15.386 -1.2908  0.2175  1.1679
11449TIP3    H255839   2.378   3.240  15.389 -0.0588 -0.4989  1.5173
11450TIP3   OH255840   2.134   2.742   1.353 -0.5471  0.2847 -0.1527
11450TIP3    H155841   2.092   2.752   1.268 -2.8089  0.1908  0.8797
11450TIP3    H255842   2.203   2.678   1.338 -1.0656  0.0618 -1.8453
11451TIP3   OH255843   2.464   1.278  11.507  0.0757  0.5730  0.3655
11451TIP3    H155844   2.404   1.349  11.532 -1.2742 -0.2331 -0.4324
11451TIP3    H255845   2.415   1.229  11.440  1.7707  0.0664 -0.5533
11452TIP3   OH255846   1.524   0.770   2.494 -0.0076 -0.1444  0.0383
11452TIP3    H155847   1.438   0.791   2.531 -0.5792 -1.7547 -0.3167
11452TIP3    H255848   1.513   0.683   2.456  1.3380  0.2951 -1.4561
11453TIP3   OH255849   5.027   0.381   3.418 -0.2617 -0.0818 -0.4088
11453TIP3    H155850   5.041   0.294   3.383 -1.9999  0.0493 -1.5503
11453TIP3    H255851   4.990   0.366   3.505  2.5213 -0.4113  0.8195
11454TIP3   OH255852   6.766   6.014   2.799  0.2105 -0.0236  0.2215
11454TIP3    H155853   6.806   6.066   2.730  0.4267 -1.6736 -0.9817
11454TIP3    H255854   6.690   5.974   2.757  0.2936 -0.9918  0.9515
11455TIP3   OH255855   4.965   3.274   1.322  0.0174  0.4486  0.0455
11455TIP3    H155856   4.948   3.284   1.416  1.9558  1.3293  0.3409
11455TIP3    H255857   4.983   3.362   1.291  2.8487 -0.1825 -0.3938
11456TIP3   OH255858   6.798   2.449  16.603  0.1816  0.2482  0.4568
11456TIP3    H155859   6.889   2.418  16.595  0.6677  1.1752  1.9146
11456TIP3    H255860   6.751   2.375  16.641  0.4511 -0.0511  0.2131
11457TIP3   OH255861   5.198   4.475  16.526  0.0817  0.3516 -0.1869
11457TIP3    H155862   5.270   4.413  16.532 -0.6750 -0.4444  1.5579
11457TIP3    H255863   5.134   4.432  16.469  0.1550  0.1642 -0.1300
11458TIP3   OH255864   5.248   4.505  11.242  0.3835  0.6589  0.1102
11458TIP3    H155865   5.160   4.470  11.252  0.4678  0.9184  2.5281
11458TIP3    H255866   5.276   4.476  11.155 -1.9276  0.2846 -0.5813
11459TIP3   OH255867   2.499   0.269  15.279  0.8435 -0.1641 -0.0971
11459TIP3    H155868   2.574   0.214  15.255 -0.8846 -2.1156 -1.3391
11459TIP3    H255869   2.473   0.311  15.197  0.0269 -0.2341  0.1189
11460TIP3   OH255870   0.280   1.600  15.362 -0.1065  0.4298 -0.0751
11460TIP3    H155871   0.315   1.667  15.303  1.1176  0.6218  0.8407
11460TIP3    H255872   0.287   1.639  15.449 -3.0661  0.6768  0.1636
11461TIP3   OH255873   5.786   2.500   4.285  0.0163 -0.5639 -0.7358
11461TIP3    H155874   5.859   2.554   4.256  0.0148  0.1967  0.5906
11461TIP3    H255875   5.790   2.422   4.229  1.9033 -0.5975 -0.6180
11462TIP3   OH255876   2.965   3.513   5.854 -0.1906 -0.3096  0.1547
11462TIP3    H155877   2.974   3.582   5.788 -0.1357  0.6055  1.0993
11462TIP3    H255878   2.899   3.547   5.915 -0.7375 -1.4364  0.2139
11463TIP3   OH255879   2.919   6.138  16.930 -0.5489  0.4063 -0.2920
11463TIP3    H155880   2.910   6.118  16.837 -2.0198  1.5713 -0.4367
11463TIP3    H255881   2.922   6.052  16.973 -0.4468 -0.1402 -1.3505
11464TIP3   OH255882   6.125   5.228   4.872 -0.2203 -0.5738 -0.2975
11464TIP3    H155883   6.192   5.166   4.898 -0.8247 -0.4112  1.8373
11464TIP3    H255884   6.043   5.179   4.877 -0.6059  0.1257  0.5639
11465TIP3   OH255885   3.424   5.613   1.387  0.0786 -0.1077 -0.0816
11465TIP3    H155886   3.422   5.651   1.475  1.9665 -1.9408  0.8336
11465TIP3    H255887   3.339   5.570   1.377 -0.2892  0.4138  0.6862
11466TIP3   OH255888   3.909   0.958  13.297  0.1898  0.2020  0.2904
11466TIP3    H155889   3.878   0.879  13.343  3.0059 -0.8442  0.6165
11466TIP3    H255890   3.945   0.925  13.215  2.4997  0.9306  0.9589
11467TIP3   OH255891   5.381   1.076  16.729  0.4287 -0.0519 -0.0840
11467TIP3    H155892   5.469   1.046  16.754  0.2614 -0.5790 -0.1171
11467TIP3    H255893   5.341   1.001  16.686 -1.0262 -0.7772  2.3210
11468TIP3   OH255894   1.093   4.063  11.182 -0.2365  0.0751  0.0326
11468TIP3    H155895   1.167   4.045  11.124 -0.5189  0.2649 -0.3889
11468TIP3    H255896   1.023   4.006  11.150 -0.2073 -0.2789  0.5783
11469TIP3   OH255897   5.264   5.445   6.269  0.1905 -0.3905 -0.0663
11469TIP3    H155898   5.332   5.471   6.206  2.2357 -0.3523  2.0350
11469TIP3    H255899   5.189   5.501   6.247  1.5439  1.1145 -1.1257
11470TIP3   OH255900   1.863   1.213   0.805  0.1287  0.6207  0.5976
11470TIP3    H155901   1.844   1.191   0.714 -1.1627 -0.4017  1.0878
11470TIP3    H255902   1.856   1.308   0.810  0.8644  0.7489 -0.4937
11471TIP3   OH255903   4.601   4.880  12.819 -0.0168 -0.5175  0.2606
11471TIP3    H155904   4.549   4.909  12.744  0.8734 -1.0561 -0.5931
11471TIP3    H255905   4.608   4.957  12.876 -1.7297 -0.4396  0.4058
11472TIP3   OH255906   3.146   1.519   0.986 -0.0179  0.3532  0.0281
11472TIP3    H155907   3.192   1.505   0.903  0.2973 -0.8405  0.3985
11472TIP3    H255908   3.137   1.432   1.024 -1.2240  0.7467  0.6968
11473TIP3   OH255909   5.349   0.808   4.286 -0.4887  0.5410  0.8072
11473TIP3    H155910   5.391   0.889   4.258 -0.7588  0.0907 -1.0057
11473TIP3    H255911   5.403   0.777   4.359  2.3063  0.0653 -1.3035
11474TIP3   OH255912   0.208   3.406   1.993  0.0835 -0.1925  0.2384
11474TIP3    H155913   0.217   3.354   1.914  0.9999  0.3391 -0.0281
11474TIP3    H255914   0.172   3.490   1.963 -0.6784 -0.3934  0.5579
11475TIP3   OH255915   4.839   5.107  15.414 -0.1176  0.2848 -0.2569
11475TIP3    H155916   4.757   5.144  15.381 -1.1138  0.0237  1.7848
11475TIP3    H255917   4.853   5.150  15.498  0.9090 -0.9359  0.2362
11476TIP3   OH255918   3.505   3.567   0.910  0.6927 -0.3764 -0.0215
11476TIP3    H155919   3.422   3.527   0.884  0.2890  1.4679 -1.8156
11476TIP3    H255920   3.501   3.571   1.005 -1.7918  0.6340 -0.1051
11477TIP3   OH255921   5.512   5.206  17.220  0.3350  0.0990 -0.2940
11477TIP3    H155922   5.444   5.203  17.152  1.3216 -1.9491 -1.2846
11477TIP3    H255923   5.593   5.189  17.173  1.4275  1.4419  1.0272
11478TIP3   OH255924   2.890   0.369   4.663 -0.1421  0.0914  0.4229
11478TIP3    H155925   2.951   0.308   4.621  0.7825  0.7153  0.8117
11478TIP3    H255926   2.846   0.317   4.730 -1.3962 -0.8248 -1.0547
11479TIP3   OH255927   0.521   1.701   2.377 -0.5555 -0.1839  0.1621
11479TIP3    H155928   0.502   1.614   2.411 -0.6320 -0.1061  0.3174
11479TIP3    H255929   0.586   1.686   2.308 -1.0634 -0.4347 -0.2683
11480TIP3   OH255930   5.364   2.197   0.732 -0.0236 -0.0675 -0.1015
11480TIP3    H155931   5.329   2.286   0.730 -1.9806 -0.8038 -0.8176
11480TIP3    H255932   5.291   2.143   0.761  0.9662 -1.5303 -0.2237
11481TIP3   OH255933   4.186   0.231  13.522  0.0733  0.2201 -0.2801
11481TIP3    H155934   4.183   0.316  13.478 -1.8428 -0.7192 -2.1918
11481TIP3    H255935   4.209   0.169  13.453 -0.5644 -1.0423  0.5945
11482TIP3   OH255936   6.493   0.184  15.450  0.0777 -0.0103  0.8418
11482TIP3    H155937   6.475   0.221  15.364 -1.2479  1.5821  1.7572
11482TIP3    H255938   6.488   0.089  15.436  1.6293  0.1282 -1.1527
11483TIP3   OH255939   4.699   0.932  11.510 -0.2162 -0.0718  0.0591
11483TIP3    H155940   4.682   0.900  11.421 -0.8873  0.6674 -0.0896
11483TIP3    H255941   4.642   1.008  11.519 -1.3832 -1.0789  1.6981
11484TIP3   OH255942   4.161   5.127  11.174 -0.9853 -0.0312  0.2025
11484TIP3    H155943   4.069   5.101  11.177 -0.3933 -2.3640  0.2161
11484TIP3    H255944   4.202   5.064  11.113  0.5290  1.2105 -0.1305
11485TIP3   OH255945   6.655   2.401   5.448  0.0177  0.0671  0.3158
11485TIP3    H155946   6.582   2.464   5.447 -0.3137 -0.3043 -0.5508
11485TIP3    H255947   6.732   2.453   5.471 -0.3861  0.6277  0.4261
11486TIP3   OH255948   3.147   5.799   5.662  0.0489  0.3375  0.5297
11486TIP3    H155949   3.242   5.802   5.650 -0.1060 -2.4285 -2.9190
11486TIP3    H255950   3.134   5.730   5.728  0.4713 -1.1368 -0.8630
11487TIP3   OH255951   4.363   4.588   4.317  0.1742 -0.0610 -0.0725
11487TIP3    H155952   4.346   4.519   4.381  1.2223  0.9680  1.3831
11487TIP3    H255953   4.313   4.663   4.349  0.5183  0.3984 -0.5966
11488TIP3   OH255954   5.597   3.055  13.737 -0.3640  0.1959  0.1304
11488TIP3    H155955   5.534   3.054  13.665  0.4484  0.5643 -0.6081
11488TIP3    H255956   5.680   3.077  13.696  0.5831 -1.8280  0.8350
11489TIP3   OH255957   4.339   4.209   3.974  0.1075  0.0002  0.1432
11489TIP3    H155958   4.386   4.148   3.916  1.1008  1.4462 -0.6395
11489TIP3    H255959   4.405   4.237   4.037 -0.5043 -0.1638  0.8684
11490TIP3   OH255960   6.252   2.865   1.095 -0.0313 -0.2420  0.0143
11490TIP3    H155961   6.292   2.808   1.030 -0.0360 -0.9682  0.6347
11490TIP3    H255962   6.231   2.807   1.169  0.5977  0.6664  0.9452
11491TIP3   OH255963   0.930   6.124  12.315  0.1833  0.3710 -0.3531
11491TIP3    H155964   1.012   6.150  12.357 -0.1764  0.5594  0.2544
11491TIP3    H255965   0.930   6.029  12.318  0.0880  0.3829  0.2420
11492TIP3   OH255966   2.732   3.587  15.561 -0.2636 -0.3460  0.8237
11492TIP3    H155967   2.648   3.623  15.588 -0.2565 -0.0739  0.4919
11492TIP3    H255968   2.787   3.664  15.547 -0.2503 -0.4845  0.0908
11493TIP3   OH255969   5.321   1.203  12.292  0.7384 -0.2031  0.0001
11493TIP3    H155970   5.269   1.136  12.246 -1.4275  1.9049 -0.8252
11493TIP3    H255971   5.313   1.180  12.384 -2.5699  0.4988  0.0156
11494TIP3   OH255972   0.089   6.482   0.146  0.1899 -0.1463 -0.0709
11494TIP3    H155973   0.024   6.553   0.150  0.4839  0.0649  1.7734
11494TIP3    H255974   0.108   6.473   0.053 -0.4352  1.6726 -0.4251
11495TIP3   OH255975   2.247   3.701   5.035  0.2499  0.2162 -1.1900
11495TIP3    H155976   2.201   3.617   5.032  0.1682  0.1335  0.6785
11495TIP3    H255977   2.214   3.750   4.961 -2.1201 -0.2312 -0.5073
11496TIP3   OH255978   2.032   0.239   3.375 -0.3015  0.1161  0.4872
11496TIP3    H155979   2.017   0.224   3.468 -2.0131  0.5594  0.3250
11496TIP3    H255980   2.038   0.151   3.337 -0.6489 -0.0733  0.8698
11497TIP3   OH255981   3.198   5.936  14.096  0.5887 -0.5729  0.1664
11497TIP3    H155982   3.127   5.880  14.129  0.7831 -1.6811 -1.2419
11497TIP3    H255983   3.203   6.007  14.160 -1.7310 -0.5086  0.3574
11498TIP3   OH255984   3.143   1.740   4.675  0.7882 -0.2258  0.3793
11498TIP3    H155985   3.160   1.683   4.600  1.7819 -0.3162  0.6613
11498TIP3    H255986   3.050   1.762   4.667  0.8651 -0.2537 -0.8548
11499TIP3   OH255987   6.447   5.655   1.260  0.6999  0.5957 -0.0273
11499TIP3    H155988   6.531   5.698   1.244  1.5318  0.4002  3.1801
11499TIP3    H255989   6.462   5.564   1.235  0.9180  0.8747 -0.9588
11500TIP3   OH255990   2.519   2.857   4.733 -0.7109 -0.0412 -0.0354
11500TIP3    H155991   2.572   2.780   4.753 -2.0067 -1.0313 -0.2643
11500TIP3    H255992   2.428   2.828   4.748 -1.1646  1.8818  1.2888
11501TIP3   OH255993   3.080   5.290  12.731 -0.2697  0.0767 -0.1341
11501TIP3    H155994   3.147   5.322  12.669 -1.6117  0.8648 -1.2382
11501TIP3    H255995   3.066   5.199  12.707 -0.7724  0.3763 -0.9987
11502TIP3   OH255996   1.218   0.647  12.417  0.1764  0.0988 -0.2648
11502TIP3    H155997   1.157   0.639  12.490 -1.2134 -1.5535 -1.5101
11502TIP3    H255998   1.221   0.741  12.398 -2.3216  0.2258 -0.3717
11503TIP3   OH255999   0.683   0.578   5.925  0.1808 -0.2036  0.3742
11503TIP3    H156000   0.714   0.593   6.014 -2.4071 -1.1871  1.5443
11503TIP3    H256001   0.691   0.483   5.913  1.9927  0.0820 -1.1008
11504TIP3   OH256002   5.173   5.390   1.705 -0.0629 -0.6247  0.0132
11504TIP3    H156003   5.155   5.380   1.798  0.9419  1.2303  0.4420
11504TIP3    H256004   5.170   5.300   1.671  1.8492 -1.6492  2.2628
11505TIP3   OH256005   0.459   0.556   4.389 -0.0049  0.3801  0.1905
11505TIP3    H156006   0.407   0.605   4.325  0.9476  0.0489 -0.8638
11505TIP3    H256007   0.393   0.510   4.442 -0.8280 -1.2241 -2.0680
11506TIP3   OH256008   6.677   6.635   3.659  0.5446 -0.3099  0.3843
11506TIP3    H156009   6.659   6.699   3.590  2.0112 -0.2438  0.0148
11506TIP3    H256010   6.614   6.564   3.644  1.1451 -0.5183 -1.3388
11507TIP3   OH256011   3.721   6.279   4.083 -0.2303  0.6003  0.1963
11507TIP3    H156012   3.636   6.282   4.127  0.3599  1.9415  1.3323
11507TIP3    H256013   3.784   6.294   4.153  0.9458 -0.2855 -0.6478
11508TIP3   OH256014   5.980   4.462   2.117 -0.1504 -0.2819  0.3936
11508TIP3    H156015   5.939   4.498   2.195  0.0505  0.4721  0.1566
11508TIP3    H256016   6.048   4.403   2.150 -1.2170 -1.3296  0.7857
11509TIP3   OH256017   4.802   2.597   3.044 -0.4916  0.1796 -0.1423
11509TIP3    H156018   4.771   2.659   2.978  1.0653  0.0481 -1.0577
11509TIP3    H256019   4.813   2.514   2.997  0.6009  0.0704  0.2596
11510TIP3   OH256020   3.939   5.063  13.002 -0.3028 -0.1167  0.0378
11510TIP3    H156021   3.956   5.143  12.952 -1.5519  0.7749  0.9638
11510TIP3    H256022   3.852   5.035  12.974 -0.4436 -0.3768  0.7111
11511TIP3   OH256023   0.581   3.164   1.851 -0.0748  0.3219  0.2669
11511TIP3    H156024   0.543   3.092   1.801  1.2839 -0.0430 -0.2870
11511TIP3    H256025   0.597   3.128   1.938  0.1652  0.0890  0.1273
11512TIP3   OH256026   3.394   6.217  17.091 -0.1135 -0.4405  0.0940
11512TIP3    H156027   3.325   6.189  17.151  0.0803  1.3438  1.2209
11512TIP3    H256028   3.475   6.185  17.132  0.3109  3.0596  2.4300
11513TIP3   OH256029   4.114   3.433  15.411  0.2835 -0.0700  0.5660
11513TIP3    H156030   4.025   3.416  15.378 -0.3868  2.5997  0.7621
11513TIP3    H256031   4.122   3.377  15.488 -1.2375 -0.3614  0.5441
11514TIP3   OH256032   2.795   5.002  11.410 -0.1101 -0.2970 -0.0882
11514TIP3    H156033   2.744   4.935  11.365 -0.6761  0.9002 -1.3110
11514TIP3    H256034   2.740   5.032  11.482 -0.3560 -0.3165 -0.2697
11515TIP3   OH256035   1.994   6.539   2.697  0.5747  0.4171 -0.7021
11515TIP3    H156036   2.017   6.449   2.675  1.6450  0.4464  0.1963
11515TIP3    H256037   2.077   6.587   2.689  0.1542  1.1817 -0.4991
11516TIP3   OH256038   4.519   2.589   4.923 -0.0869 -0.4735  0.1681
11516TIP3    H156039   4.561   2.608   5.007 -0.1624 -0.1159  0.1279
11516TIP3    H256040   4.435   2.550   4.947 -0.0682 -0.4584  0.2600
11517TIP3   OH256041   1.503   0.204   1.892 -0.0937 -0.3016 -0.5701
11517TIP3    H156042   1.524   0.114   1.870 -1.7362 -0.6750 -0.7173
11517TIP3    H256043   1.511   0.252   1.809  1.7895 -0.0640 -0.3026
11518TIP3   OH256044   4.834   2.358  13.139 -0.0741 -0.1009  0.0927
11518TIP3    H156045   4.802   2.320  13.057  0.5326 -0.0692 -0.1666
11518TIP3    H256046   4.777   2.322  13.206 -1.4745  0.9512 -0.4868
11519TIP3   OH256047   3.425   6.725   2.956  0.0591  0.2944 -0.3530
11519TIP3    H156048   3.467   6.805   2.986  1.0385  0.1234 -1.1973
11519TIP3    H256049   3.497   6.668   2.928 -0.6806 -0.3051 -1.1353
11520TIP3   OH256050   2.112   2.457   1.601  0.1526  0.6417 -0.5415
11520TIP3    H156051   2.153   2.461   1.688  0.9151 -0.8433 -0.8072
11520TIP3    H256052   2.083   2.366   1.592 -0.3831  0.9048 -1.6453
11521TIP3   OH256053   3.781   4.696  11.538  0.1824  0.6579 -0.2585
11521TIP3    H156054   3.829   4.772  11.506 -1.4895  1.0491 -1.9706
11521TIP3    H256055   3.713   4.680  11.473 -1.5388 -0.3558  1.6488
11522TIP3   OH256056   1.165   1.815   3.095  0.1232  0.6210 -0.1349
11522TIP3    H156057   1.136   1.885   3.153  2.6861  2.0961 -0.4842
11522TIP3    H256058   1.162   1.736   3.149  2.5414  1.9472  2.1518
11523TIP3   OH256059   4.173   5.777   2.931  0.0219 -0.2032  0.5001
11523TIP3    H156060   4.234   5.851   2.938  0.7287 -0.7607  0.3408
11523TIP3    H256061   4.133   5.788   2.845  0.7252 -0.4456  0.1275
11524TIP3   OH256062   3.742   2.976   2.103  0.2121  0.0440 -0.0253
11524TIP3    H156063   3.666   2.981   2.044  0.5688  0.6914 -0.4537
11524TIP3    H256064   3.719   2.910   2.167 -0.7243  0.2411 -0.1441
11525TIP3   OH256065   5.084   3.560  16.381  0.4215  0.2544 -0.3758
11525TIP3    H156066   5.059   3.653  16.382 -0.0946  0.1176  0.7108
11525TIP3    H256067   5.128   3.546  16.465 -0.6022 -0.7744  0.0092
11526TIP3   OH256068   4.305   2.235  14.231 -0.1072 -0.1336 -0.2197
11526TIP3    H156069   4.393   2.246  14.195 -0.8208 -0.0926 -2.0669
11526TIP3    H256070   4.258   2.314  14.204 -0.8405 -0.3631  0.3462
11527TIP3   OH256071   1.993   1.878  13.675 -0.4805  0.0115 -0.0975
11527TIP3    H156072   2.087   1.864  13.661  0.0381  2.0752  0.8708
11527TIP3    H256073   1.955   1.874  13.587  0.7688  0.6824 -0.6943
11528TIP3   OH256074   1.944   2.557   4.793  0.2122  0.0873  0.2905
11528TIP3    H156075   1.976   2.634   4.746  0.3925  0.1189  0.4623
11528TIP3    H256076   1.858   2.583   4.826  0.1692  0.1320  0.1425
11529TIP3   OH256077   4.095   4.049  14.080 -0.1146  0.3134  0.2530
11529TIP3    H156078   4.026   4.045  14.147 -0.9381  0.3961 -0.5614
11529TIP3    H256079   4.095   3.961  14.041  1.5013 -0.2581  1.4365
11530TIP3   OH256080   2.917   1.282  15.086 -0.0404  0.1013  0.3288
11530TIP3    H156081   2.840   1.338  15.092 -0.6037 -0.5141 -0.8257
11530TIP3    H256082   2.981   1.336  15.038 -0.3468  0.0190 -0.1849
11531TIP3   OH256083   4.909   3.811   5.481  0.2280  0.1589  0.1676
11531TIP3    H156084   4.924   3.732   5.533  1.9261  1.5131  1.8861
11531TIP3    H256085   4.828   3.848   5.517 -1.0370 -1.1588 -1.2029
11532TIP3   OH256086   5.743   4.583   4.036 -0.3343 -0.2818  0.0918
11532TIP3    H156087   5.724   4.574   3.942 -1.2178 -0.9082  0.3221
11532TIP3    H256088   5.712   4.671   4.058 -0.9043 -0.4548 -0.0213
11533TIP3   OH256089   3.400   0.419  15.152  0.3873 -0.7457  0.0907
11533TIP3    H156090   3.475   0.465  15.191  1.2618 -0.6403 -1.6014
11533TIP3    H256091   3.402   0.332  15.191  0.5711 -0.3332  1.0444
11534TIP3   OH256092   5.814   1.626   5.934  0.2313  0.1183 -0.1941
11534TIP3    H156093   5.759   1.609   6.011  1.7192 -2.8078  0.3783
11534TIP3    H256094   5.768   1.585   5.862  1.0116 -1.2948  0.0708
11535TIP3   OH256095   4.176   1.545  11.222 -0.5405 -0.3545 -0.0195
11535TIP3    H156096   4.257   1.547  11.273 -0.1043  0.8982 -0.7215
11535TIP3    H256097   4.194   1.599  11.145 -2.0249 -0.0535 -0.1974
11536TIP3   OH256098   4.733   6.716  14.822 -0.3146 -0.2758 -0.1259
11536TIP3    H156099   4.769   6.629  14.838  2.6885  0.7127 -0.8396
11536TIP3    H256100   4.693   6.710  14.735 -0.9491 -1.1529  0.2170
11537TIP3   OH256101   1.080   0.861   1.226  0.2334  0.5552 -0.4282
11537TIP3    H156102   1.086   0.956   1.236 -0.0477  0.5419 -0.1158
11537TIP3    H256103   0.988   0.845   1.203 -0.6994  0.0639  3.1268
11538TIP3   OH256104   2.842   1.671  15.087 -0.5208  1.0528 -0.0923
11538TIP3    H156105   2.933   1.682  15.112 -0.4451 -0.8259  0.5742
11538TIP3    H256106   2.837   1.711  15.000  1.0043  0.8958 -0.2844
11539TIP3   OH256107   1.706   3.351  11.158 -0.4894  0.1950 -0.0077
11539TIP3    H156108   1.694   3.398  11.075  2.4322  0.4831 -0.3547
11539TIP3    H256109   1.673   3.263  11.141  1.1375 -0.1081 -1.9411
11540TIP3   OH256110   4.416   4.439  11.299 -0.3031  0.1320 -0.2856
11540TIP3    H156111   4.473   4.493  11.245 -0.5157 -0.7612 -1.4256
11540TIP3    H256112   4.369   4.384  11.237 -2.5153  0.9084  0.6012
11541TIP3   OH256113   1.648   6.595  16.127  0.0042 -0.1681 -0.2691
11541TIP3    H156114   1.678   6.505  16.116 -0.3050 -0.2073 -0.8558
11541TIP3    H256115   1.720   6.649  16.094  0.1867 -0.1979  0.0773
11542TIP3   OH256116   4.273   4.759  11.871  0.3846 -0.5580 -0.4569
11542TIP3    H156117   4.314   4.832  11.823 -0.5129 -0.0019 -0.3930
11542TIP3    H256118   4.257   4.794  11.958 -1.8386 -0.1607 -0.9779
11543TIP3   OH256119   5.425   4.523   5.235 -0.4358 -0.0657  1.1002
11543TIP3    H156120   5.477   4.556   5.309  0.0160  0.5332  0.5269
11543TIP3    H256121   5.335   4.525   5.266 -0.0335 -3.7495  3.1778
11544TIP3   OH256122   5.157   4.017  14.674  0.1635  0.1701 -0.6246
11544TIP3    H156123   5.069   4.029  14.709  0.2470  1.8272 -0.9085
11544TIP3    H256124   5.151   4.047  14.583  1.0157  0.3180 -0.6411
11545TIP3   OH256125   5.536   4.959   4.603 -0.1758 -0.3198 -0.4426
11545TIP3    H156126   5.580   5.027   4.653  0.6231  0.7544 -2.4747
11545TIP3    H256127   5.512   5.003   4.521 -1.0222 -2.0994 -1.1835
11546TIP3   OH256128   3.978   6.658   0.943  0.5190  0.7955  0.1987
11546TIP3    H156129   3.924   6.580   0.957 -1.9982  2.6508  1.5716
11546TIP3    H256130   3.974   6.673   0.848  1.3478 -0.8979 -0.1410
11547TIP3   OH256131   2.964   3.858   4.377  0.4349  0.0085 -0.2957
11547TIP3    H156132   3.041   3.833   4.429  0.7287 -1.0280 -1.1838
11547TIP3    H256133   3.000   3.905   4.302  0.0540  1.0457  0.1598
11548TIP3   OH256134   2.066   1.230  13.740  0.1691  1.1343  0.2567
11548TIP3    H156135   2.161   1.230  13.750  0.8373  1.0336 -3.9622
11548TIP3    H256136   2.042   1.138  13.738  0.1063  1.1457  0.4549
11549TIP3   OH256137   3.899   0.842   3.860  0.5267 -0.4649  0.0414
11549TIP3    H156138   3.910   0.937   3.854  1.5424 -0.5633  0.1357
11549TIP3    H256139   3.988   0.807   3.863  0.1662 -1.3787  0.8243
11550TIP3   OH256140   4.075   2.525   5.249 -0.2570 -0.0821  0.4032
11550TIP3    H156141   4.067   2.619   5.266  0.0775 -0.5281  3.6632
11550TIP3    H256142   4.167   2.505   5.267 -0.8418 -1.3884  2.2788
11551TIP3   OH256143   0.473   3.923   4.088  0.1986 -0.0546  0.2672
11551TIP3    H156144   0.426   4.004   4.107 -0.0066  0.5719 -2.5149
11551TIP3    H256145   0.557   3.933   4.133 -0.1934  1.2621  0.7566
11552TIP3   OH256146   3.319   1.363   3.653 -0.5196  0.3918  0.3566
11552TIP3    H156147   3.291   1.402   3.736  0.5149 -1.4206  1.6445
11552TIP3    H256148   3.238   1.337   3.610 -1.0449 -0.1563  1.6169
11553TIP3   OH256149   0.128   2.188  14.246 -0.3526 -0.0667  0.3061
11553TIP3    H156150   0.082   2.190  14.162 -0.7909  0.7996  0.5508
11553TIP3    H256151   0.214   2.150  14.226  0.0514  1.3572 -0.7828
11554TIP3   OH256152   3.945   4.058   1.413  0.5031 -0.4764 -0.5194
11554TIP3    H156153   3.899   4.071   1.330  2.7544  1.3527 -1.6143
11554TIP3    H256154   3.967   4.147   1.442  0.8977 -1.1585  1.3765
11555TIP3   OH256155   4.451   4.945   4.374  0.1134  0.0423  0.0276
11555TIP3    H156156   4.403   4.999   4.311 -0.4702  0.7216  1.0307
11555TIP3    H256157   4.390   4.935   4.447  0.4561 -1.4418  0.1449
11556TIP3   OH256158   1.453   1.588   2.247  0.1733 -0.0394  0.3542
11556TIP3    H156159   1.417   1.646   2.314  0.1371  2.5750 -1.7553
11556TIP3    H256160   1.498   1.647   2.186  1.1229 -2.3827 -1.3684
11557TIP3   OH256161   1.870   1.194  12.021  0.4130  0.1692 -0.1710
11557TIP3    H156162   1.812   1.263  12.052  0.9993  0.5614  0.0772
11557TIP3    H256163   1.862   1.125  12.086  1.7384  1.0388  0.9915
11558TIP3   OH256164   4.710   1.744   5.168  0.2768 -0.5326 -0.5125
11558TIP3    H156165   4.717   1.698   5.251  0.9221  0.3740 -0.0395
11558TIP3    H256166   4.798   1.738   5.129  0.3657  0.2383 -0.4551
11559TIP3   OH256167   0.469   6.617   6.706  0.1128 -0.0303 -0.3722
11559TIP3    H156168   0.522   6.541   6.731 -0.7167  0.0757  1.9488
11559TIP3    H256169   0.497   6.687   6.765  0.1586  1.2062 -1.8116
11560TIP3   OH256170   0.996   4.461   0.494 -0.6814  0.1241  0.0397
11560TIP3    H156171   1.040   4.477   0.411 -0.4456 -2.7355 -0.5104
11560TIP3    H256172   0.903   4.461   0.471 -0.7156  0.9642  0.1417
11561TIP3   OH256173   6.290   2.045  15.589 -0.2927 -0.2054 -0.2709
11561TIP3    H156174   6.233   2.122  15.598 -0.3964 -0.0432 -1.9224
11561TIP3    H256175   6.234   1.971  15.610 -0.7771  0.0409 -0.6579
11562TIP3   OH256176   3.049   2.561   2.228 -0.3674 -0.2175  0.1874
11562TIP3    H156177   3.051   2.561   2.132 -0.2297 -2.1119  0.1515
11562TIP3    H256178   3.129   2.608   2.253 -0.0223 -0.3272 -0.6497
11563TIP3   OH256179   2.199   2.828   5.874 -0.1813  0.3535  0.6142
11563TIP3    H156180   2.134   2.862   5.935  0.8660  1.4577  1.1496
11563TIP3    H256181   2.212   2.737   5.901 -1.9266 -0.1024  0.0973
11564TIP3   OH256182   5.191   3.004   5.564  0.1319 -0.4175  0.1784
11564TIP3    H156183   5.206   3.003   5.659 -0.1228 -0.8740  0.2184
11564TIP3    H256184   5.249   2.935   5.531  0.8326  0.2976 -0.0973
11565TIP3   OH256185   2.891   3.690   3.042  0.3298  0.0104 -0.4067
11565TIP3    H156186   2.901   3.658   3.131  0.3017 -2.3098 -1.1833
11565TIP3    H256187   2.866   3.613   2.991 -1.2497  1.5636 -2.1601
11566TIP3   OH256188   0.755   6.194  11.559  0.5189  0.2022 -0.4355
11566TIP3    H156189   0.712   6.168  11.640 -0.0762 -0.3639 -0.9262
11566TIP3    H256190   0.688   6.242  11.510  0.9872  0.8642 -0.4366
11567TIP3   OH256191   1.153   6.470  13.666  0.1223  0.1556  0.1217
11567TIP3    H156192   1.248   6.471  13.679  0.3066  0.8679 -1.1011
11567TIP3    H256193   1.116   6.459  13.754  1.3452 -1.2405  0.5029
11568TIP3   OH256194   3.007   6.767   5.358 -0.1735 -0.1212 -0.1058
11568TIP3    H156195   2.973   6.760   5.269  0.9738  0.5160 -0.6149
11568TIP3    H256196   3.081   6.707   5.360 -1.2947 -1.5549  1.0157
11569TIP3   OH256197   4.345   5.996  14.215 -0.2281 -0.0168 -0.0221
11569TIP3    H156198   4.262   5.949  14.213  0.5477 -1.5402  1.2136
11569TIP3    H256199   4.351   6.029  14.305  0.9954 -0.8934  0.2389
11570TIP3   OH256200   3.342   1.540  15.567 -0.3887  0.1655  0.0915
11570TIP3    H156201   3.267   1.600  15.566  0.0596  0.7462 -1.7706
11570TIP3    H256202   3.304   1.454  15.551 -0.8042  0.2154  0.7335
11571TIP3   OH256203   6.307   1.731  17.103  0.1265  0.0401 -0.6370
11571TIP3    H156204   6.284   1.656  17.157 -1.5467 -0.2001 -1.5946
11571TIP3    H256205   6.385   1.767  17.143  0.2433 -1.4707  0.5744
11572TIP3   OH256206   5.654   6.458   3.530  0.2238 -0.0569 -0.3696
11572TIP3    H156207   5.574   6.481   3.576 -1.0490  2.1344 -3.3805
11572TIP3    H256208   5.724   6.474   3.594 -1.5892 -2.3358  2.4446
11573TIP3   OH256209   2.899   6.103  16.240 -0.6588  0.0216  0.3319
11573TIP3    H156210   2.938   6.038  16.182 -1.1731 -0.2948  0.3396
11573TIP3    H256211   2.877   6.176  16.183 -0.6417 -0.0552  0.2285
11574TIP3   OH256212   3.203   3.047  12.720 -0.1366  0.5479 -0.1269
11574TIP3    H156213   3.267   2.985  12.684 -0.4212  0.8328 -1.1436
11574TIP3    H256214   3.202   3.120  12.659 -1.7622  0.3493 -0.3981
11575TIP3   OH256215   3.316   2.271   4.773  0.0603  0.1928  0.1605
11575TIP3    H156216   3.283   2.359   4.789  0.3353 -0.1103  2.7321
11575TIP3    H256217   3.246   2.227   4.726 -0.3679  1.5310 -0.5230
11576TIP3   OH256218   5.045   3.662   3.784  0.5637  0.7334 -0.3022
11576TIP3    H156219   5.054   3.721   3.709  0.1386 -0.0352 -0.9729
11576TIP3    H256220   5.100   3.587   3.762  0.8845  0.7490  0.4195
11577TIP3   OH256221   5.335   1.932  11.458 -0.1792  0.2617  0.5912
11577TIP3    H156222   5.403   1.913  11.392  1.1089  0.3525  1.8482
11577TIP3    H256223   5.280   1.998  11.416  0.7413  0.4795 -0.3321
11578TIP3   OH256224   2.344   0.064  15.189  0.2939  0.0105  0.3125
11578TIP3    H156225   2.411   0.112  15.238  1.1026 -1.9390  1.1884
11578TIP3    H256226   2.372   0.069  15.098  0.2611  1.3180  0.3525
11579TIP3   OH256227   1.349   1.893  14.756  0.1860  0.1940  0.5148
11579TIP3    H156228   1.396   1.862  14.679 -1.4535 -0.4288 -0.2760
11579TIP3    H256229   1.396   1.972  14.782  0.9873  0.2255 -0.9182
11580TIP3   OH256230   3.447   6.725   3.601 -0.4915 -0.2745 -0.1516
11580TIP3    H156231   3.370   6.781   3.595  0.3534  0.8089 -1.4162
11580TIP3    H256232   3.415   6.637   3.581 -1.8025 -0.2826  1.6679
11581TIP3   OH256233   3.754   4.539  14.614  0.0832  0.4744 -0.0594
11581TIP3    H156234   3.832   4.483  14.611 -1.8432 -2.5869  1.7538
11581TIP3    H256235   3.757   4.580  14.701  0.1577  1.2285 -0.4025
11582TIP3   OH256236   3.141   0.878   2.554  0.0186 -0.0825  0.9064
11582TIP3    H156237   3.188   0.948   2.509 -0.7742 -0.2805 -0.2871
11582TIP3    H256238   3.092   0.923   2.623 -0.8310  0.6260 -0.1288
11583TIP3   OH256239   4.568   2.801   1.385 -0.5702  0.2755  0.3931
11583TIP3    H156240   4.649   2.782   1.337 -0.6554  1.3389 -0.1774
11583TIP3    H256241   4.544   2.890   1.359 -3.0684 -0.7074 -1.1058
11584TIP3   OH256242   5.511   1.148  15.036 -0.5759  0.7636 -0.4776
11584TIP3    H156243   5.578   1.152  14.968 -0.6779  1.9642 -0.5175
11584TIP3    H256244   5.553   1.186  15.113 -1.0716  1.1075 -0.3749
11585TIP3   OH256245   5.341   6.430   3.447 -0.2456  0.3002  0.2713
11585TIP3    H156246   5.318   6.421   3.539  4.7047 -1.1877  1.6558
11585TIP3    H256247   5.352   6.525   3.434 -1.4443  0.5610  0.9609
11586TIP3   OH256248   0.958   4.745  16.091  0.2378  0.2427 -0.3357
11586TIP3    H156249   0.942   4.723  16.183  1.8256 -0.8321 -0.2764
11586TIP3    H256250   0.968   4.840  16.091 -0.5791  0.3470  0.4566
11587TIP3   OH256251   5.622   0.678   5.013 -0.0507 -0.5180 -0.3825
11587TIP3    H156252   5.587   0.767   5.013  1.5615  0.2087  2.1045
11587TIP3    H256253   5.564   0.630   5.072 -0.1682 -0.8264 -0.7397
11588TIP3   OH256254   2.638   0.588  10.368 -0.0235 -0.8595  0.3615
11588TIP3    H156255   2.583   0.664  10.386 -0.3533 -0.8129 -0.7833
11588TIP3    H256256   2.694   0.580  10.446 -1.2486 -0.5692  1.2958
11589TIP3   OH256257   2.896   2.024  13.013 -0.3643  0.0832  0.0665
11589TIP3    H156258   2.821   2.054  12.961 -1.3696  0.7218  1.7947
11589TIP3    H256259   2.870   1.937  13.044 -1.2867  1.0407  2.1987
11590TIP3   OH256260   2.748   0.876  16.633 -0.0228  0.0679 -0.1745
11590TIP3    H156261   2.674   0.824  16.603  0.9755 -1.4072 -0.2284
11590TIP3    H256262   2.779   0.830  16.711  0.1054  1.3539  0.5631
11591TIP3   OH256263   2.691   6.203   5.337 -0.4360  0.5333 -0.3459
11591TIP3    H156264   2.725   6.200   5.427 -0.9929  2.2435 -0.0476
11591TIP3    H256265   2.671   6.112   5.316  0.8562 -0.0551  0.8073
11592TIP3   OH256266   4.216   4.525  16.697  0.8121  0.0181 -0.3788
11592TIP3    H156267   4.227   4.480  16.614  1.0519 -1.5002  0.4318
11592TIP3    H256268   4.208   4.618  16.674 -2.4599 -0.6206 -2.3451
11593TIP3   OH256269   0.937   4.702  16.386 -0.6190 -0.5036 -0.2918
11593TIP3    H156270   0.984   4.676  16.465  0.1861  0.1640 -0.5365
11593TIP3    H256271   0.877   4.770  16.416 -0.8920 -0.8203 -0.1144
11594TIP3   OH256272   4.168   0.512  13.305 -0.2165 -1.0479  0.7962
11594TIP3    H156273   4.144   0.597  13.340 -0.1420 -0.5157 -0.4149
11594TIP3    H256274   4.085   0.464  13.299 -0.2910 -0.9796  1.2490
11595TIP3   OH256275   6.061   3.377   0.415 -0.0100  0.5788  0.4911
11595TIP3    H156276   6.020   3.303   0.369  0.1009  1.4468 -1.0703
11595TIP3    H256277   5.987   3.426   0.450 -0.1267  0.2334  0.7372
11596TIP3   OH256278   6.800   1.260  17.040 -0.1091  0.0118 -0.1635
11596TIP3    H156279   6.731   1.325  17.053  1.4393  1.4155  1.5872
11596TIP3    H256280   6.818   1.262  16.946 -2.1696 -0.1663 -0.6106
11597TIP3   OH256281   1.581   1.802  13.371 -0.4348 -0.0942  0.2873
11597TIP3    H156282   1.608   1.820  13.461 -0.3256 -1.5641  0.5687
11597TIP3    H256283   1.523   1.727  13.377 -2.0262  0.9890 -0.6867
11598TIP3   OH256284   4.268   5.052  13.124 -0.3667 -0.9068 -0.1399
11598TIP3    H156285   4.301   4.966  13.150  1.9307 -0.7876 -2.2724
11598TIP3    H256286   4.210   5.034  13.051 -1.6034 -0.7651  0.7852
11599TIP3   OH256287   6.232   1.010   4.374  0.4833  0.1824 -0.1534
11599TIP3    H156288   6.274   1.095   4.385 -0.9310  0.6579  1.8655
11599TIP3    H256289   6.303   0.947   4.389  0.8157  0.9830  1.8753
11600TIP3   OH256290   3.359   3.890   0.164  0.5163  0.2514  0.4068
11600TIP3    H156291   3.307   3.831   0.219 -2.9770  0.0707 -2.6856
11600TIP3    H256292   3.316   3.975   0.173  3.4184  1.6967  2.1646
11601TIP3   OH256293   3.277   1.952   1.061  0.4016 -0.1584 -0.4596
11601TIP3    H156294   3.282   1.910   1.146  0.2549  0.2909 -0.2246
11601TIP3    H256295   3.286   1.881   0.998 -0.2562 -0.5948 -0.0739
11602TIP3   OH256296   0.549   4.022  15.044 -0.3203 -0.1468 -0.6410
11602TIP3    H156297   0.514   3.962  14.978 -0.2696 -1.4184  0.4408
11602TIP3    H256298   0.484   4.092  15.050  1.4810  2.2927 -4.8638
11603TIP3   OH256299   0.921   1.148  11.157  0.2946  0.4380  0.3440
11603TIP3    H156300   0.925   1.115  11.067  0.9019 -0.1312  0.5751
11603TIP3    H256301   0.995   1.107  11.201  0.1376  0.8987  1.0470
11604TIP3   OH256302   0.779   3.667  15.748  0.3685 -0.0404 -0.2850
11604TIP3    H156303   0.729   3.657  15.828  0.7443  1.1612  0.1231
11604TIP3    H256304   0.869   3.681  15.777  0.6085 -0.1482 -0.9394
11605TIP3   OH256305   0.836   1.412   4.523 -0.5561  0.7170 -0.2600
11605TIP3    H156306   0.840   1.316   4.527  1.4778  0.7106 -1.1409
11605TIP3    H256307   0.860   1.432   4.432  0.7653  2.1094  0.3634
11606TIP3   OH256308   4.117   3.280   1.473 -0.5863 -0.4161  0.4671
11606TIP3    H156309   4.168   3.335   1.413  2.3928 -1.5550  1.7656
11606TIP3    H256310   4.046   3.337   1.502 -0.1213  1.2948 -1.4704
11607TIP3   OH256311   0.311   2.065   6.115  0.1601 -0.0413 -0.1975
11607TIP3    H156312   0.385   2.111   6.077 -0.6048  0.8461 -0.6519
11607TIP3    H256313   0.346   1.980   6.141  0.8719 -0.4538 -2.3133
11608TIP3   OH256314   0.572   2.159  13.998  0.6114 -0.0532 -0.0499
11608TIP3    H156315   0.530   2.179  13.914  2.1409  0.3096 -0.7844
11608TIP3    H256316   0.641   2.096  13.975 -0.1918 -1.4866  1.2742
11609TIP3   OH256317   3.615   4.642  16.656 -0.3565  0.2568 -0.2146
11609TIP3    H156318   3.598   4.670  16.746 -1.0381  1.2059 -0.6266
11609TIP3    H256319   3.529   4.628  16.618 -0.0636 -0.5994 -0.5937
11610TIP3   OH256320   3.408   3.687   3.019  0.3530  0.1445  0.5103
11610TIP3    H156321   3.474   3.697   2.950  0.2389 -0.0306  0.3731
11610TIP3    H256322   3.395   3.775   3.053 -0.1833  0.3775 -0.2589
11611TIP3   OH256323   5.591   0.315   2.765 -0.4953 -0.0417 -0.2424
11611TIP3    H156324   5.502   0.298   2.732 -0.5200  0.0392 -0.2191
11611TIP3    H256325   5.577   0.364   2.846 -0.4859 -1.5992  0.7279
11612TIP3   OH256326   5.188   0.533   0.880 -0.4621 -0.1894  0.3137
11612TIP3    H156327   5.197   0.606   0.941 -1.7670 -0.6643  1.1037
11612TIP3    H256328   5.277   0.516   0.850 -0.1903  2.1941 -0.4688
11613TIP3   OH256329   5.544   1.285  11.402  0.3091  0.5365 -0.4797
11613TIP3    H156330   5.628   1.274  11.358  0.4779 -0.7545  0.1075
11613TIP3    H256331   5.558   1.246  11.489 -0.6719  0.9932 -0.1038
11614TIP3   OH256332   1.022   0.240   2.467 -0.0574  0.4331  0.0152
11614TIP3    H156333   1.045   0.173   2.532  0.0291 -0.3233 -0.7743
11614TIP3    H256334   0.936   0.214   2.436  1.2523 -1.2290 -2.6163
11615TIP3   OH256335   4.197   1.382  13.254 -0.2422 -0.3849 -0.0832
11615TIP3    H156336   4.121   1.328  13.230 -1.8888  1.8702 -0.2963
11615TIP3    H256337   4.242   1.331  13.320 -3.2036 -0.9755  1.6912
11616TIP3   OH256338   2.156   4.935  11.333 -0.3202 -0.6052  0.4685
11616TIP3    H156339   2.189   4.864  11.277 -0.1241 -1.1414  1.2496
11616TIP3    H256340   2.225   4.949  11.397 -1.2874 -1.2408  1.6890
11617TIP3   OH256341   4.600   0.423  13.767  0.4412 -0.1057  0.0342
11617TIP3    H156342   4.541   0.369  13.819 -0.2628  0.2101 -0.4115
11617TIP3    H256343   4.667   0.453  13.828 -0.8453  0.9628  0.9552
11618TIP3   OH256344   6.634   0.014  11.517  0.2178 -0.1901  0.5691
11618TIP3    H156345   6.725  -0.011  11.500 -0.5471 -2.8321 -0.2168
11618TIP3    H256346   6.628   0.104  11.485  1.9408 -0.8254 -1.8477
11619TIP3   OH256347   0.325   2.564  13.318 -0.3288  0.3324  0.4509
11619TIP3    H156348   0.418   2.570  13.292  0.0912 -0.4802  1.6845
11619TIP3    H256349   0.279   2.555  13.235  0.9717 -2.0936 -0.1194
11620TIP3   OH256350   2.571   1.595  16.600 -0.7395 -0.3844  0.1319
11620TIP3    H156351   2.582   1.620  16.508  0.5360 -1.2766  0.0201
11620TIP3    H256352   2.638   1.645  16.647 -0.5352 -0.8880  0.3893
11621TIP3   OH256353   5.451   1.518   2.529 -0.1438 -0.1000 -0.6050
11621TIP3    H156354   5.419   1.555   2.447 -0.6423  0.5071 -0.1539
11621TIP3    H256355   5.373   1.514   2.585  0.4248  0.7546  0.2852
11622TIP3   OH256356   3.746   1.272  15.403  0.4542  0.3517  0.1607
11622TIP3    H156357   3.696   1.337  15.354  0.1744  0.2759  0.3448
11622TIP3    H256358   3.706   1.271  15.490 -0.1386 -0.7263 -0.1101
11623TIP3   OH256359   2.459   6.470   0.779 -0.1079 -0.2180 -0.2039
11623TIP3    H156360   2.526   6.405   0.758  1.5077 -0.0101  3.6521
11623TIP3    H256361   2.498   6.554   0.756 -0.1293 -0.2613 -0.4021
11624TIP3   OH256362   5.968   4.223   5.694 -0.4184 -0.1569 -0.0107
11624TIP3    H156363   6.020   4.189   5.767  1.0603 -1.2864 -1.5121
11624TIP3    H256364   6.008   4.307   5.673  1.3602 -1.3307 -1.6062
11625TIP3   OH256365   6.490   2.149  15.418  0.0302 -0.1129  0.1196
11625TIP3    H156366   6.413   2.101  15.448  0.5919 -1.1561 -0.0559
11625TIP3    H256367   6.528   2.094  15.350  0.6873  0.5981 -0.1043
11626TIP3   OH256368   1.143   0.797   2.814  0.3169 -0.3679  0.4463
11626TIP3    H156369   1.136   0.892   2.820  0.9225 -0.1813 -1.2766
11626TIP3    H256370   1.079   0.764   2.878 -1.3569  1.1928 -0.3348
11627TIP3   OH256371   2.388   4.525  16.470  0.2783 -0.9650  0.0374
11627TIP3    H156372   2.359   4.517  16.561 -0.8118 -1.3864 -0.3340
11627TIP3    H256373   2.406   4.435  16.443  0.7706 -0.8239 -0.1083
11628TIP3   OH256374   3.389   4.667  13.028  0.0248  0.2659 -0.0407
11628TIP3    H156375   3.319   4.609  12.996  0.9906  0.1097 -2.0325
11628TIP3    H256376   3.393   4.737  12.963  1.8925  0.1028 -0.1634
11629TIP3   OH256377   5.526   6.236   2.907 -0.3106  0.3431  0.5306
11629TIP3    H156378   5.541   6.186   2.987 -1.2857 -0.0789  0.4588
11629TIP3    H256379   5.566   6.321   2.925 -2.1257  0.9325  2.2248
11630TIP3   OH256380   0.802   4.075   0.293  0.7582 -0.7631  0.4954
11630TIP3    H156381   0.737   4.049   0.359  0.5723 -1.6363 -0.0082
11630TIP3    H256382   0.756   4.139   0.239  0.1674 -1.6802 -0.1042
11631TIP3   OH256383   6.235   1.291   4.161 -0.1761 -0.4374 -0.5670
11631TIP3    H156384   6.274   1.250   4.084 -2.2761 -2.2365 -0.7776
11631TIP3    H256385   6.303   1.287   4.228  1.0565 -0.5351 -1.8008
11632TIP3   OH256386   6.386   4.915   1.016 -0.5928 -0.8026  0.4637
11632TIP3    H156387   6.451   4.858   1.057  0.1193 -1.2131 -1.1827
11632TIP3    H256388   6.427   4.945   0.935 -1.5811  0.7721  0.4870
11633TIP3   OH256389   1.076   3.230  16.414 -0.0280  0.6426  0.2723
11633TIP3    H156390   1.024   3.150  16.417 -0.7114  1.0174 -0.9254
11633TIP3    H256391   1.012   3.301  16.418  0.5263  1.1286  0.7194
11634TIP3   OH256392   4.823   5.583  17.030 -0.4499  0.2405 -0.0072
11634TIP3    H156393   4.858   5.535  17.105  0.8824 -0.4967 -1.0600
11634TIP3    H256394   4.764   5.520  16.988  0.4663 -0.1360 -0.7728
11635TIP3   OH256395   4.199   0.600  12.815  0.0404 -0.6391  0.1722
11635TIP3    H156396   4.261   0.639  12.754  0.1560 -0.9475  0.0913
11635TIP3    H256397   4.143   0.545  12.760  0.6861 -1.6056  0.4482
11636TIP3   OH256398   2.138   0.120   1.084 -0.4785 -0.0818 -0.4534
11636TIP3    H156399   2.187   0.140   1.164 -0.0583  1.1074 -0.9865
11636TIP3    H256400   2.134   0.203   1.037  0.5655 -1.0418 -2.3734
11637TIP3   OH256401   0.229   4.317  16.370  0.0934  0.1977  0.3690
11637TIP3    H156402   0.169   4.382  16.334  0.3842  0.0473 -0.3976
11637TIP3    H256403   0.243   4.254  16.300 -2.0024 -2.0384  1.8138
11638TIP3   OH256404   4.827   1.717   1.240 -0.2640  0.3059  0.7203
11638TIP3    H156405   4.743   1.763   1.244 -1.3951 -1.6620  1.1838
11638TIP3    H256406   4.886   1.768   1.295 -1.4301  1.2162  1.1638
11639TIP3   OH256407   2.058   2.732  12.360  0.8807 -0.7473  0.3638
11639TIP3    H156408   2.149   2.743  12.384  0.6440 -0.3979  1.1146
11639TIP3    H256409   2.008   2.770  12.432  0.1495 -0.2833 -0.3633
11640TIP3   OH256410   3.134   4.288   1.362 -0.2000  0.3702 -0.2182
11640TIP3    H156411   3.067   4.239   1.410  2.4980 -0.6496  2.8964
11640TIP3    H256412   3.195   4.220   1.330  1.1944  1.4044  0.1498
11641TIP3   OH256413   6.211   5.612  12.865 -0.3783 -0.4140 -0.3568
11641TIP3    H156414   6.305   5.612  12.845 -0.1700  0.4097  0.5592
11641TIP3    H256415   6.173   5.667  12.797  0.3074  2.2499  1.2588
11642TIP3   OH256416   5.044   5.666   1.429  0.1175 -0.1404 -0.4239
11642TIP3    H156417   5.126   5.635   1.467 -0.3973 -1.1184 -0.0843
11642TIP3    H256418   5.023   5.746   1.478  1.2947  0.6151 -1.1014
11643TIP3   OH256419   3.236   0.658   2.812 -0.3576 -0.2903 -0.1275
11643TIP3    H156420   3.217   0.578   2.860 -1.6530  0.0777  0.0061
11643TIP3    H256421   3.252   0.724   2.879  2.7048 -0.8206 -0.2119
11644TIP3   OH256422   1.157   5.381  17.149  0.6852 -0.0738 -0.1825
11644TIP3    H156423   1.191   5.320  17.214 -0.9255 -0.1695  0.6336
11644TIP3    H256424   1.063   5.364  17.147  0.6170  0.2832 -2.1870
11645TIP3   OH256425   1.720   4.199   4.459  0.0898 -0.4228 -0.1554
11645TIP3    H156426   1.769   4.275   4.428 -2.8444  1.4688 -0.5058
11645TIP3    H256427   1.778   4.125   4.441  2.1065  1.4585 -2.0445
11646TIP3   OH256428   0.606   2.503   0.664 -0.2094 -0.6344 -0.1638
11646TIP3    H156429   0.515   2.476   0.650 -0.3875  0.1874 -0.6872
11646TIP3    H256430   0.633   2.456   0.743 -0.0843 -3.2036 -1.6625
11647TIP3   OH256431   0.884   4.637   5.606  0.1661 -0.6716  0.1828
11647TIP3    H156432   0.959   4.684   5.569  0.0047  0.0831  0.7959
11647TIP3    H256433   0.812   4.655   5.545  0.2800 -0.7342  0.0282
11648TIP3   OH256434   2.624   5.124   1.834 -0.1423  0.2535 -0.2135
11648TIP3    H156435   2.644   5.216   1.847  0.1408 -0.0381  1.7356
11648TIP3    H256436   2.710   5.082   1.822  0.1493 -0.2464  2.8312
11649TIP3   OH256437   0.036   1.877  12.771  0.1384 -0.9556 -0.0145
11649TIP3    H156438   0.004   1.791  12.744 -0.2442 -0.6251 -0.6684
11649TIP3    H256439   0.079   1.912  12.693  0.5057 -0.6556  0.3195
11650TIP3   OH256440   0.122   2.261   4.101 -0.2039  0.4930 -0.3638
11650TIP3    H156441   0.091   2.242   4.189  0.9805  1.8629  0.3963
11650TIP3    H256442   0.114   2.178   4.054 -0.2612 -0.4298  1.2176
11651TIP3   OH256443   2.883   1.173  11.121 -0.3085 -0.1048 -0.6514
11651TIP3    H156444   2.793   1.142  11.116 -1.0775  2.0052 -0.9659
11651TIP3    H256445   2.891   1.212  11.208 -0.4856  1.8184 -1.4433
11652TIP3   OH256446   5.960   4.465   5.381 -0.8238  0.0238 -0.6985
11652TIP3    H156447   6.036   4.505   5.340  0.2558 -0.1796  1.0208
11652TIP3    H256448   5.910   4.538   5.417 -1.0482  0.1000 -1.1564
11653TIP3   OH256449   1.024   1.936  17.178  0.4395 -0.0569  0.2745
11653TIP3    H156450   1.021   1.884  17.097 -1.8396 -1.2364  1.0179
11653TIP3    H256451   0.944   1.912  17.224  1.2727  1.2090  2.5263
11654TIP3   OH256452   2.683   0.938   4.344  0.8273  0.3224  0.4534
11654TIP3    H156453   2.613   0.999   4.321  2.0680  0.6853 -2.9390
11654TIP3    H256454   2.638   0.863   4.383 -1.4116  0.8813 -0.8631
11655TIP3   OH256455   3.941   4.936  10.978 -0.5347 -0.1711 -0.0639
11655TIP3    H156456   3.935   4.943  11.074 -1.6832  1.5003 -0.2115
11655TIP3    H256457   4.022   4.981  10.956 -0.6460  0.1114  0.0903
11656TIP3   OH256458   5.476   5.312  11.003  0.4376  0.1085  0.2414
11656TIP3    H156459   5.534   5.239  10.981 -0.6085 -0.8534  0.5592
11656TIP3    H256460   5.449   5.347  10.919 -1.6744 -2.0437 -0.0909
11657TIP3   OH256461   2.971   2.199   6.096 -1.0883 -0.2723 -0.4569
11657TIP3    H156462   2.916   2.272   6.126  0.0409  0.8206 -0.9957
11657TIP3    H256463   3.038   2.191   6.163  0.9326  1.6124 -2.1058
11658TIP3   OH256464   4.222   2.899  11.568  0.2003  0.3238  0.3836
11658TIP3    H156465   4.172   2.980  11.567  0.4567  0.5151  1.5099
11658TIP3    H256466   4.157   2.830  11.582 -0.1161  0.2354 -1.3825
11659TIP3   OH256467   2.942   2.996  14.914  0.0873  0.1829  0.3851
11659TIP3    H156468   2.920   3.087  14.934 -0.6874 -0.0740  0.7202
11659TIP3    H256469   2.895   2.945  14.979 -3.9107 -0.8357 -2.8709
11660TIP3   OH256470   3.668   6.644   2.902  0.1946 -0.6538 -0.1666
11660TIP3    H156471   3.718   6.723   2.886  0.1873 -0.8889 -1.4566
11660TIP3    H256472   3.723   6.591   2.960  1.1146 -0.5789 -0.9495
11661TIP3   OH256473   1.604   4.134  12.034 -0.6125  0.4557 -0.7229
11661TIP3    H156474   1.657   4.156  11.957  1.3086  1.0137  0.6899
11661TIP3    H256475   1.648   4.178  12.106 -1.3579 -1.4668  0.9890
11662TIP3   OH256476   4.648   5.012  11.098  0.7235  0.8329 -0.2138
11662TIP3    H156477   4.600   4.943  11.054 -0.0012  0.9892  0.3201
11662TIP3    H256478   4.643   5.087  11.038 -0.7499  1.2226  0.3398
11663TIP3   OH256479   1.082   0.339   1.888  0.1382  0.0662  0.2661
11663TIP3    H156480   1.021   0.410   1.868  1.6906  1.4186  0.1529
11663TIP3    H256481   1.093   0.344   1.983 -0.3813 -0.5807  0.3680
11664TIP3   OH256482   2.538   3.408  14.756 -0.2049 -0.1773 -0.2086
11664TIP3    H156483   2.503   3.432  14.670  0.5227  0.0889 -0.4367
11664TIP3    H256484   2.468   3.430  14.817 -1.4091 -1.8952 -0.8761
11665TIP3   OH256485   5.764   3.504   4.643  0.3232  0.0180 -0.2903
11665TIP3    H156486   5.692   3.513   4.581 -0.0544 -0.5312  0.0643
11665TIP3    H256487   5.739   3.431   4.699  1.7972 -1.1219 -1.0431
11666TIP3   OH256488   4.059   3.850  12.541  0.3631  0.2323  0.3541
11666TIP3    H156489   4.135   3.897  12.576  0.5981 -0.9547  1.5329
11666TIP3    H256490   4.080   3.758  12.556 -1.1762 -0.1316  0.3736
11667TIP3   OH256491   5.482   3.467  12.719  0.1845 -0.1074  0.9366
11667TIP3    H156492   5.483   3.419  12.802  1.3127  0.7285  1.4272
11667TIP3    H256493   5.545   3.420  12.664  0.2805  0.0092  0.9470
11668TIP3   OH256494   1.916   6.042   5.659  0.4490  0.3117 -0.0374
11668TIP3    H156495   1.944   6.075   5.574 -1.2611 -1.9801 -1.6146
11668TIP3    H256496   1.985   5.981   5.685  1.0400  1.1178  0.3207
11669TIP3   OH256497   6.735   3.179   2.298  0.0872 -0.1662 -0.2938
11669TIP3    H156498   6.770   3.261   2.265  1.0133 -0.3412  0.2099
11669TIP3    H256499   6.744   3.186   2.393 -1.6107 -0.0693 -0.1040
11670TIP3   OH256500   4.516   0.076  16.397  0.0050  0.2038 -0.0285
11670TIP3    H156501   4.446   0.060  16.333  1.1270 -1.5425 -0.8775
11670TIP3    H256502   4.520  -0.004  16.449  1.6963  0.0582 -0.3380
11671TIP3   OH256503   2.898   0.006  15.412 -0.2950 -0.1594  0.2637
11671TIP3    H156504   2.840  -0.042  15.353  0.6584 -1.5320  0.3819
11671TIP3    H256505   2.842   0.071  15.454 -1.4633 -0.6148 -0.5291
11672TIP3   OH256506   0.249   5.732   2.445 -0.3592 -0.2560 -0.1373
11672TIP3    H156507   0.210   5.795   2.385 -0.6980  0.1873  0.5407
11672TIP3    H256508   0.174   5.693   2.490 -0.0865 -0.3553  0.2292
11673TIP3   OH256509   4.253   0.542   3.945 -0.1183  0.1875 -0.1070
11673TIP3    H156510   4.335   0.509   3.908  0.2173 -0.7894  1.4295
11673TIP3    H256511   4.267   0.542   4.039 -0.6265  3.4511  0.1028
11674TIP3   OH256512   1.731   5.405   0.248 -0.7067  0.5040  0.2582
11674TIP3    H156513   1.771   5.474   0.300 -0.5791 -0.3925  1.4075
11674TIP3    H256514   1.804   5.362   0.203 -0.6146  0.2559  0.6355
11675TIP3   OH256515   1.661   4.766  13.962 -0.0118 -0.2844 -0.7152
11675TIP3    H156516   1.709   4.786  14.042 -0.4452 -1.7841 -0.0652
11675TIP3    H256517   1.577   4.809  13.972 -0.2557 -0.8895 -0.1322
11676TIP3   OH256518   0.779   5.015   2.395  0.2725  0.0142 -0.4467
11676TIP3    H156519   0.716   5.071   2.350 -0.5125 -0.2743  0.2643
11676TIP3    H256520   0.768   5.037   2.488  0.0245 -1.2284 -0.1665
11677TIP3   OH256521   6.499   3.411   2.133 -0.7512  0.1952  0.9686
11677TIP3    H156522   6.594   3.402   2.135 -0.8433 -2.2285 -1.0088
11677TIP3    H256523   6.471   3.380   2.219  0.1800 -0.6283  0.9928
11678TIP3   OH256524   5.058   4.872   0.531 -0.2026  0.3797  0.0410
11678TIP3    H156525   5.064   4.803   0.465  0.2478  1.4923 -1.1186
11678TIP3    H256526   5.136   4.859   0.586 -1.7986 -2.0480  1.9478
11679TIP3   OH256527   0.078   1.517   5.819  0.2726 -0.0451 -0.4215
11679TIP3    H156528   0.048   1.426   5.824  0.9326 -0.3423 -1.4520
11679TIP3    H256529   0.143   1.525   5.889 -0.9517  0.1224  0.7296
11680TIP3   OH256530   4.758   2.446   5.456 -0.0014  0.1105  0.1444
11680TIP3    H156531   4.790   2.536   5.457 -0.1056  0.1687 -1.0549
11680TIP3    H256532   4.797   2.406   5.534  1.0424  0.8604  0.0247
11681TIP3   OH256533   3.522   2.270  16.696 -0.1521  0.2052  0.1859
11681TIP3    H156534   3.455   2.267  16.766  0.6497 -0.7258  0.9438
11681TIP3    H256535   3.603   2.245  16.740  0.1657 -1.6061 -1.3344
11682TIP3   OH256536   4.057   6.288   4.536 -0.1682 -0.2428  0.3464
11682TIP3    H156537   4.119   6.231   4.582 -1.3104 -0.8095  1.2433
11682TIP3    H256538   4.038   6.358   4.599  0.3213  0.4742 -0.2996
11683TIP3   OH256539   6.553   1.732  12.648  0.1994 -0.3869 -0.1768
11683TIP3    H156540   6.477   1.746  12.591 -0.8855  0.3379  1.3645
11683TIP3    H256541   6.526   1.767  12.733  1.6092 -1.7394  0.8943
11684TIP3   OH256542   6.487   3.365  11.371 -0.3522 -0.6704 -0.0198
11684TIP3    H156543   6.433   3.357  11.292 -2.9966  1.6108  1.3861
11684TIP3    H256544   6.576   3.374  11.338 -1.3875  0.5759 -2.8249
11685TIP3   OH256545   6.756   6.362   5.348 -0.5484  0.6199 -0.2180
11685TIP3    H156546   6.824   6.375   5.414 -0.3231  1.7680 -0.6531
11685TIP3    H256547   6.739   6.267   5.349  1.2151  0.2724 -0.2532
11686TIP3   OH256548   1.803   4.948   1.226 -0.1146 -0.3706 -0.1551
11686TIP3    H156549   1.796   5.015   1.159  0.6499 -0.0785  0.0501
11686TIP3    H256550   1.869   4.981   1.287 -0.7518 -0.6519  0.7165
11687TIP3   OH256551   1.039   4.948  12.731  0.2443  0.1972  0.4712
11687TIP3    H156552   1.086   5.022  12.692 -1.3688  0.1250 -1.8503
11687TIP3    H256553   0.947   4.967  12.714 -0.2660 -1.9386  0.5587
11688TIP3   OH256554   6.311   4.501  14.799  0.0529 -0.5761  0.1168
11688TIP3    H156555   6.252   4.516  14.873 -0.1157 -3.6204  0.7445
11688TIP3    H256556   6.397   4.527  14.832 -0.1551 -1.0604  1.0932
11689TIP3   OH256557   5.086   0.965   1.356 -0.3434  0.2800  0.2507
11689TIP3    H156558   5.153   0.934   1.295  1.8842  0.0480  2.6225
11689TIP3    H256559   5.006   0.968   1.304  1.2877 -0.2778 -2.5399
11690TIP3   OH256560   1.961   1.604  14.774  0.2997 -0.2808 -0.1092
11690TIP3    H156561   1.996   1.521  14.741  0.2796 -0.2488 -0.2124
11690TIP3    H256562   1.868   1.602  14.753  0.6934  0.7864 -2.3222
11691TIP3   OH256563   4.765   3.732  14.798  0.1556 -0.1463  0.3777
11691TIP3    H156564   4.812   3.668  14.851 -0.3866 -0.4607  0.4894
11691TIP3    H256565   4.708   3.778  14.860 -0.3342 -0.3780  0.1116
11692TIP3   OH256566   5.219   0.218   3.127  0.0470 -0.1471  0.2225
11692TIP3    H156567   5.170   0.292   3.093  0.9289 -1.0149 -3.2836
11692TIP3    H256568   5.157   0.174   3.186 -1.4229  1.7578  0.2098
11693TIP3   OH256569   4.155   3.674  15.104 -0.0772  0.6210  0.7419
11693TIP3    H156570   4.171   3.711  15.191 -2.0108  0.7574  1.0985
11693TIP3    H256571   4.063   3.647  15.106  0.5564 -1.9200 -0.3740
11694TIP3   OH256572   3.453   5.800  12.217 -0.3282  0.3849 -0.0120
11694TIP3    H156573   3.524   5.835  12.163  0.1376  1.6819  1.4022
11694TIP3    H256574   3.383   5.781  12.154  1.0343 -0.4068 -1.3635
11695TIP3   OH256575   1.734   1.564   5.183  0.3743 -0.2706  0.8567
11695TIP3    H156576   1.660   1.623   5.195 -0.2887 -1.2332  1.6247
11695TIP3    H256577   1.743   1.555   5.088 -0.0106  0.4378  0.7474
11696TIP3   OH256578   2.250   1.349   1.431  0.2722  0.2633 -0.2185
11696TIP3    H156579   2.308   1.425   1.428 -0.1241  0.6180  0.7037
11696TIP3    H256580   2.164   1.384   1.454 -0.5214 -0.1594 -2.3140
11697TIP3   OH256581   3.551   1.613  15.405 -0.2190  0.3186  0.1036
11697TIP3    H156582   3.510   1.693  15.373 -1.9734 -0.6896 -0.3393
11697TIP3    H256583   3.485   1.574  15.463  0.8539 -0.4890  0.8375
11698TIP3   OH256584   0.276   6.730   2.618 -0.2834  0.0939  0.2017
11698TIP3    H156585   0.212   6.691   2.558  0.8255 -0.1778 -0.8441
11698TIP3    H256586   0.361   6.704   2.582  0.4288  1.0185  1.1718
11699TIP3   OH256587   0.738   6.608  12.182 -0.7312 -0.1579 -0.3325
11699TIP3    H156588   0.667   6.595  12.246  0.5294  2.2393  1.7953
11699TIP3    H256589   0.815   6.624  12.236  0.2645  2.8927 -2.3874
11700TIP3   OH256590   2.618   3.440   0.291 -0.1147  0.7877 -0.4141
11700TIP3    H156591   2.675   3.364   0.306 -1.5769 -0.2793 -0.1353
11700TIP3    H256592   2.643   3.471   0.203 -0.3136 -0.7406 -1.0291
11701TIP3   OH256593   6.023   6.419  13.067  0.2603  0.2623  0.0681
11701TIP3    H156594   5.995   6.328  13.063  1.4107 -0.0763 -0.6946
11701TIP3    H256595   6.061   6.428  13.154 -0.7192  0.2919  0.5072
11702TIP3   OH256596   3.849   6.059  16.796  0.1922 -0.1004 -0.3448
11702TIP3    H156597   3.923   6.101  16.838 -0.1473 -0.0325  0.1974
11702TIP3    H256598   3.877   5.969  16.782 -0.0704 -0.4160  1.0190
11703TIP3   OH256599   6.564   6.259  16.050  0.4286 -0.9516  0.1877
11703TIP3    H156600   6.638   6.199  16.062  0.9018 -0.3937  0.0937
11703TIP3    H256601   6.594   6.321  15.984 -0.4636 -1.2565 -0.5257
11704TIP3   OH256602   0.543   0.259  12.254  0.2018  0.0850 -0.0421
11704TIP3    H156603   0.592   0.254  12.336  1.1912  0.3763 -0.5875
11704TIP3    H256604   0.593   0.205  12.193 -0.5623 -0.1892 -0.4369
11705TIP3   OH256605   0.641   6.493   5.610  0.4290 -0.1798  0.5318
11705TIP3    H156606   0.681   6.577   5.589  1.2311 -0.6724  0.0388
11705TIP3    H256607   0.704   6.428   5.579 -0.8519 -0.9859 -0.4900
11706TIP3   OH256608   6.797   5.614   3.889 -0.4516  0.2312 -0.0826
11706TIP3    H156609   6.723   5.675   3.886 -0.8999 -0.3032 -0.0686
11706TIP3    H256610   6.874   5.670   3.898 -0.9371  0.7561  0.9308
11707TIP3   OH256611   3.735   6.712  11.996 -0.0075 -0.1548  0.2100
11707TIP3    H156612   3.804   6.646  11.992 -0.5872 -0.7244 -0.9070
11707TIP3    H256613   3.751   6.759  12.078  1.6189 -0.3494  0.0336
11708TIP3   OH256614   6.014   4.342  13.425  0.2267 -0.4777 -0.6677
11708TIP3    H156615   6.085   4.373  13.368  0.0423  0.8109 -0.2282
11708TIP3    H256616   5.936   4.350  13.370  0.1681 -0.0753 -0.5275
11709TIP3   OH256617   3.160   0.030  12.447 -0.0220  0.4763 -0.5134
11709TIP3    H156618   3.162   0.039  12.352  1.1889 -0.9262 -0.6702
11709TIP3    H256619   3.166  -0.065  12.462  0.5150  0.7168  0.9664
11710TIP3   OH256620   3.145   1.349   0.767  0.4071 -0.4493  0.5532
11710TIP3    H156621   3.118   1.260   0.742 -1.0524 -0.5663  2.2855
11710TIP3    H256622   3.071   1.404   0.742  1.1882  0.2671 -0.2548
11711TIP3   OH256623   0.201   1.444  14.153 -0.3616 -0.2777  0.0392
11711TIP3    H156624   0.149   1.367  14.130  0.4216 -0.5405 -0.9042
11711TIP3    H256625   0.288   1.410  14.175  0.0366  0.3409 -0.5285
11712TIP3   OH256626   2.788   4.593  12.559  0.1649 -0.4146  0.0083
11712TIP3    H156627   2.835   4.590  12.476  0.0948 -0.1493 -0.0426
11712TIP3    H256628   2.708   4.642  12.539  0.1317 -0.3822  0.2240
11713TIP3   OH256629   2.723   3.095   5.173  0.0386 -0.3155 -0.1327
11713TIP3    H156630   2.783   3.160   5.136 -1.7556  0.4866 -1.7933
11713TIP3    H256631   2.664   3.146   5.229  0.1273 -0.9090  0.5190
11714TIP3   OH256632   6.353   2.669  12.562 -0.3886 -0.0376 -0.0678
11714TIP3    H156633   6.293   2.600  12.588 -1.8820  1.5933  1.0401
11714TIP3    H256634   6.403   2.688  12.641  2.9225 -2.4485 -1.3186
11715TIP3   OH256635   4.771   6.515   2.654 -0.0224 -0.6469  0.1227
11715TIP3    H156636   4.711   6.587   2.674  0.5147  0.0786 -0.8017
11715TIP3    H256637   4.761   6.455   2.728 -0.0182  0.6736  1.2476
11716TIP3   OH256638   3.660   1.600  13.445  1.2693 -0.0929  0.5395
11716TIP3    H156639   3.645   1.507  13.463  1.8644 -0.1715  0.6481
11716TIP3    H256640   3.712   1.631  13.519 -0.0184  0.6473  1.1722
11717TIP3   OH256641   1.490   5.534  15.885  0.2043 -0.0604  0.7703
11717TIP3    H156642   1.427   5.603  15.867  0.2550  0.0164  0.8835
11717TIP3    H256643   1.472   5.507  15.975  0.7223  0.3820  1.0172
11718TIP3   OH256644   4.430   4.909   0.670  0.5061 -0.1885 -0.2616
11718TIP3    H156645   4.389   4.994   0.683  0.6846 -0.1331 -0.0543
11718TIP3    H256646   4.380   4.869   0.599  0.3898  0.0670 -0.3250
11719TIP3   OH256647   1.481   2.675   2.793 -0.6169 -0.5062 -0.6092
11719TIP3    H156648   1.553   2.649   2.852 -0.3495 -0.0832 -0.7493
11719TIP3    H256649   1.407   2.690   2.852 -0.6185 -1.0254 -0.4713
11720TIP3   OH256650   2.553   4.614  15.300  0.1534  0.3051 -0.6887
11720TIP3    H156651   2.517   4.616  15.389  2.1625 -1.5034  0.2922
11720TIP3    H256652   2.479   4.633  15.243 -2.1789 -2.2682  1.1677
11721TIP3   OH256653   3.916   0.438  11.050 -0.0127 -0.3826  0.2327
11721TIP3    H156654   3.925   0.406  11.140 -1.1582 -1.0923  0.1135
11721TIP3    H256655   3.822   0.442  11.035  0.1614 -0.7488 -1.1015
11722TIP3   OH256656   6.598   3.054  15.989  0.6524 -0.1802 -0.1973
11722TIP3    H156657   6.550   3.070  15.907  0.2208  0.8150  0.2368
11722TIP3    H256658   6.586   2.961  16.006 -0.8686 -0.0076 -0.2627
11723TIP3   OH256659   6.763   0.039  16.543 -0.2190 -0.1956 -0.1117
11723TIP3    H156660   6.758   0.105  16.611  0.6387 -0.0367 -0.1856
11723TIP3    H256661   6.674   0.032  16.509 -0.4904  0.2883  0.4860
11724TIP3   OH256662   0.466   6.107  12.238 -0.0732 -0.3067  0.5374
11724TIP3    H156663   0.544   6.162  12.231 -1.0842  0.9791 -1.9141
11724TIP3    H256664   0.493   6.034  12.294  3.0721 -0.2688 -0.7177
11725TIP3   OH256665   5.133   5.049   4.255 -0.1265 -0.3925  0.1031
11725TIP3    H156666   5.042   5.065   4.231 -0.7753 -1.7879  1.4488
11725TIP3    H256667   5.158   4.973   4.202 -0.1214 -0.7267  0.5844
11726TIP3   OH256668   3.185   5.330   5.181 -0.3703  0.2815 -0.7660
11726TIP3    H156669   3.266   5.373   5.154  0.5514 -1.5807 -1.1374
11726TIP3    H256670   3.139   5.395   5.233  2.5007  0.6622  1.5484
11727TIP3   OH256671   6.450   1.789  14.431 -0.1697  0.4632  0.4798
11727TIP3    H156672   6.531   1.776  14.381 -1.1169 -2.9909 -0.3500
11727TIP3    H256673   6.439   1.885  14.433  1.2324  0.9063 -3.7984
11728TIP3   OH256674   4.725   3.075   4.980  0.9319 -0.2010 -0.2002
11728TIP3    H156675   4.761   2.988   4.994  1.3296 -0.1617 -0.9650
11728TIP3    H256676   4.772   3.131   5.041  1.8676 -0.2260 -0.8890
11729TIP3   OH256677   2.968   6.497  15.373  0.0785 -0.5693  0.0184
11729TIP3    H156678   3.036   6.563  15.361 -0.6176  0.1352 -0.1818
11729TIP3    H256679   2.906   6.538  15.434  0.0802 -1.3968  0.5933
11730TIP3   OH256680   6.364   6.259  12.425 -0.1760 -0.3547  0.0245
11730TIP3    H156681   6.360   6.283  12.518 -0.5697  3.1092 -0.7163
11730TIP3    H256682   6.444   6.302  12.393  0.4502 -2.2617 -1.1038
11731TIP3   OH256683   2.218   3.933  12.152  0.2435 -0.1698  0.2041
11731TIP3    H156684   2.139   3.885  12.132  1.1419 -1.7145  0.2108
11731TIP3    H256685   2.201   3.973  12.238 -0.3021 -0.9687  0.4752
11732TIP3   OH256686   1.527   6.503  16.766 -0.2889 -0.1442 -0.2945
11732TIP3    H156687   1.456   6.535  16.710  0.3882  0.5655 -0.7661
11732TIP3    H256688   1.570   6.435  16.713 -0.2965 -0.2133 -0.2121
11733TIP3   OH256689   2.037   0.273   5.640  0.2201  0.1651  0.3718
11733TIP3    H156690   2.112   0.272   5.580 -1.4031 -1.1139 -1.7953
11733TIP3    H256691   2.047   0.193   5.691  0.2427 -0.1178 -0.0677
11734TIP3   OH256692   0.166   1.043  11.397 -0.2353 -0.0934 -0.2252
11734TIP3    H156693   0.130   0.975  11.454 -0.5366 -0.0034 -0.3118
11734TIP3    H256694   0.234   1.084  11.450 -1.7805  1.2614  0.7906
11735TIP3   OH256695   1.658   3.679  12.221  0.6541  0.4365  0.7706
11735TIP3    H156696   1.570   3.650  12.197  1.4211 -0.8600 -0.6317
11735TIP3    H256697   1.680   3.745  12.156  0.1904  1.8555  2.0018
11736TIP3   OH256698   6.250   0.611   3.718  0.0180  0.2210  0.1934
11736TIP3    H156699   6.194   0.596   3.642 -0.8468 -1.1882  1.0697
11736TIP3    H256700   6.300   0.690   3.696 -1.9407  1.2396 -0.8307
11737TIP3   OH256701   2.206   6.350  14.279 -0.0600  0.3987  0.0736
11737TIP3    H156702   2.111   6.341  14.276 -0.0441 -0.0589  0.6167
11737TIP3    H256703   2.221   6.422  14.341 -0.0637  0.8741 -0.4717
11738TIP3   OH256704   6.470   3.226   6.060 -0.2825 -0.3260  0.0810
11738TIP3    H156705   6.424   3.308   6.045 -1.6298 -1.1045 -0.2804
11738TIP3    H256706   6.474   3.218   6.156  0.3567  0.4087  0.1219
11739TIP3   OH256707   0.924   2.750  13.930 -0.2454 -0.1520 -0.2954
11739TIP3    H156708   1.003   2.801  13.915 -1.1404  1.4598  0.2734
11739TIP3    H256709   0.913   2.749  14.025 -0.6267 -0.8067 -0.3375
11740TIP3   OH256710   0.595   4.938   5.850 -0.3792  1.0568 -0.8142
11740TIP3    H156711   0.557   4.876   5.787  2.0626 -1.6070  0.1425
11740TIP3    H256712   0.540   4.928   5.928 -0.4262  0.6191 -0.8981
11741TIP3   OH256713   0.424   4.685  14.404 -0.4238  0.1002 -0.4907
11741TIP3    H156714   0.357   4.629  14.365  0.0195  0.4766 -1.8594
11741TIP3    H256715   0.381   4.770  14.414 -0.8118 -0.2195  0.7222
11742TIP3   OH256716   4.796   4.754  13.170  0.1490  0.0806 -0.5707
11742TIP3    H156717   4.732   4.818  13.201 -0.8144 -0.9338 -0.3985
11742TIP3    H256718   4.816   4.782  13.080 -0.2630  0.6011 -0.5055
11743TIP3   OH256719   1.164   1.912  15.373 -0.3719  1.3440  0.7347
11743TIP3    H156720   1.220   1.873  15.440 -1.4077  0.6845  1.2424
11743TIP3    H256721   1.137   1.996  15.410 -3.2164 -0.1963  2.4767
11744TIP3   OH256722   3.807   2.039  13.472  0.1637  0.3541  0.6017
11744TIP3    H156723   3.871   2.050  13.401  0.4530  0.7219  0.9165
11744TIP3    H256724   3.860   2.021  13.550  0.0598  2.7563  1.3203
11745TIP3   OH256725   2.492   3.360  11.793 -0.5410  0.0502 -0.0272
11745TIP3    H156726   2.434   3.286  11.775 -0.7730 -0.5738  2.7737
11745TIP3    H256727   2.433   3.429  11.824  0.0614 -0.3125  2.0511
11746TIP3   OH256728   5.508   5.192   1.260  0.3779 -0.4910  0.4464
11746TIP3    H156729   5.532   5.117   1.315 -0.7745 -1.4339 -0.2808
11746TIP3    H256730   5.536   5.167   1.172 -0.0874 -0.1027  0.1844
11747TIP3   OH256731   3.990   6.506  11.563 -0.3011  0.4658 -0.2001
11747TIP3    H156732   4.042   6.442  11.516 -0.4657  0.1514  0.0430
11747TIP3    H256733   3.903   6.468  11.568  0.1993 -0.5378  2.2634
11748TIP3   OH256734   3.332   2.137   2.214 -0.0823  0.1938 -0.3967
11748TIP3    H156735   3.307   2.047   2.193 -0.0999  0.2782 -0.7332
11748TIP3    H256736   3.382   2.167   2.139  1.9974 -0.3268  0.7059
11749TIP3   OH256737   2.754   5.512  14.809 -0.1176  0.0147 -0.3776
11749TIP3    H156738   2.705   5.431  14.798 -0.4096  0.0121  0.8037
11749TIP3    H256739   2.833   5.501  14.756 -0.9408 -0.3554 -1.5595
11750TIP3   OH256740   3.037   1.960  15.956  0.1486 -0.6797 -0.3977
11750TIP3    H156741   3.067   1.893  16.017 -0.3768 -1.8565 -1.3819
11750TIP3    H256742   3.021   1.912  15.875  0.2026  0.7330 -1.2716
11751TIP3   OH256743   2.570   6.583  14.806 -0.2584 -0.2434 -0.5105
11751TIP3    H156744   2.523   6.581  14.890 -0.2448  0.4243 -0.4813
11751TIP3    H256745   2.579   6.491  14.782  2.4220 -0.6940  1.7050
11752TIP3   OH256746   3.125   3.898  15.519  0.4595 -0.2533  0.2718
11752TIP3    H156747   3.173   3.905  15.601 -0.1351 -1.1984  0.7236
11752TIP3    H256748   3.187   3.925  15.451  0.9729  0.4819  1.0220
11753TIP3   OH256749   2.751   2.872   4.403 -0.3109 -0.1128  0.5850
11753TIP3    H156750   2.709   2.788   4.385 -0.8126  0.6332 -2.2658
11753TIP3    H256751   2.681   2.927   4.439 -0.1276 -0.6775  1.8724
11754TIP3   OH256752   5.360   4.280  16.510 -0.0987 -0.1781  0.3462
11754TIP3    H156753   5.455   4.278  16.498 -0.0130  2.0102  0.3857
11754TIP3    H256754   5.330   4.196  16.475  2.0491 -1.9901  2.4993
11755TIP3   OH256755   4.403   3.444  15.135 -0.2696  0.2488  1.0384
11755TIP3    H156756   4.343   3.370  15.141  1.2273 -1.0630  0.6017
11755TIP3    H256757   4.476   3.421  15.194 -0.2273  1.8495  1.6616
11756TIP3   OH256758   0.189   3.296   0.526  0.0510  0.1380 -0.0294
11756TIP3    H156759   0.215   3.208   0.553  0.2728  0.2695  0.1968
11756TIP3    H256760   0.250   3.319   0.456  1.0031  0.6987  0.9340
11757TIP3   OH256761   1.004   6.492   1.383 -0.4327 -0.8029  0.7935
11757TIP3    H156762   1.012   6.446   1.300 -1.4276 -0.8697  0.7263
11757TIP3    H256763   1.095   6.508   1.410 -0.0831 -0.0574 -0.7044
11758TIP3   OH256764   2.741   3.545   5.669 -0.4024  0.2227  0.8140
11758TIP3    H156765   2.646   3.555   5.660 -0.7888 -2.2005  1.6669
11758TIP3    H256766   2.763   3.594   5.748 -0.7913  1.3972  0.2211
11759TIP3   OH256767   5.530   3.076  12.514 -0.3149  0.2382 -0.5903
11759TIP3    H156768   5.572   3.119  12.589 -0.1451  0.1855 -0.6550
11759TIP3    H256769   5.479   3.006  12.553  0.9099 -0.7105 -0.6232
11760TIP3   OH256770   0.861   2.186  14.611 -0.3970 -0.1576 -0.5464
11760TIP3    H156771   0.922   2.185  14.685  0.2881  2.7868 -0.9378
11760TIP3    H256772   0.774   2.181  14.651 -0.0404  1.5709  0.5401
11761TIP3   OH256773   0.676   2.239   4.818 -1.0424 -0.2906  0.2663
11761TIP3    H156774   0.651   2.227   4.909 -1.1564  0.1330  0.2956
11761TIP3    H256775   0.727   2.320   4.817  0.5213 -1.2390  0.2310
11762TIP3   OH256776   1.109   1.920   3.370 -0.0357  0.5702  0.2121
11762TIP3    H156777   1.146   1.898   3.456  0.1232  1.1377  0.2976
11762TIP3    H256778   1.017   1.938   3.387 -0.4603 -1.2072 -0.0610
11763TIP3   OH256779   2.663   1.214  12.266 -0.3068  0.1248  0.3798
11763TIP3    H156780   2.599   1.164  12.216  0.0591 -0.9675  0.9695
11763TIP3    H256781   2.742   1.160  12.266 -0.0977  0.3881  1.5913
11764TIP3   OH256782   3.251   6.582  12.486 -0.0146  0.8483  0.1588
11764TIP3    H156783   3.231   6.503  12.435 -1.2882  1.0787  0.2659
11764TIP3    H256784   3.347   6.582  12.494 -0.0272 -1.3010  1.1293
11765TIP3   OH256785   3.278   5.346  13.895 -0.3086  0.1140 -0.0681
11765TIP3    H156786   3.296   5.421  13.839 -0.6174 -0.5493 -1.0800
11765TIP3    H256787   3.224   5.381  13.966  1.2409  1.2402  0.6051
11766TIP3   OH256788   3.751   5.923   0.413 -0.5990 -0.5574 -0.3945
11766TIP3    H156789   3.678   5.897   0.358 -0.7148 -0.5129 -0.2627
11766TIP3    H256790   3.787   5.840   0.446 -1.2462 -0.5441  0.3834
11767TIP3   OH256791   0.726   0.391  17.113  0.4222 -0.2764 -0.1822
11767TIP3    H156792   0.806   0.349  17.082 -0.1236 -0.0020 -2.1266
11767TIP3    H256793   0.682   0.420  17.033 -0.3956  1.8368  0.9517
11768TIP3   OH256794   2.579   0.741  13.471  0.0167 -0.2283  0.1876
11768TIP3    H156795   2.556   0.788  13.551 -2.3108 -0.9494  0.0057
11768TIP3    H256796   2.576   0.808  13.402 -1.0705 -0.1857  0.2638
11769TIP3   OH256797   1.965   1.271  10.713  0.2391  0.0641 -0.4823
11769TIP3    H156798   1.933   1.182  10.697 -1.0426  0.4395 -0.1823
11769TIP3    H256799   2.021   1.263  10.789  2.1953 -0.8789 -1.9421
11770TIP3   OH256800   4.979   1.968  13.987 -0.2235  0.2889 -0.6664
11770TIP3    H156801   4.950   2.000  13.901 -0.5294  0.0755 -0.6439
11770TIP3    H256802   4.897   1.951  14.034 -0.0550  0.5112 -0.2929
11771TIP3   OH256803   4.785   1.164  12.603 -0.5548  0.4277  0.0875
11771TIP3    H156804   4.702   1.201  12.632 -1.0687 -1.0930  0.6536
11771TIP3    H256805   4.771   1.142  12.510 -0.8867 -0.0588  0.2473
11772TIP3   OH256806   6.392   3.339   2.410  0.3448  0.4239  0.3268
11772TIP3    H156807   6.372   3.433   2.411  1.3384  0.6410  0.0947
11772TIP3    H256808   6.480   3.333   2.446  0.4557 -0.3787 -0.0719
11773TIP3   OH256809   0.541   3.436  10.649 -0.6117  0.2040 -0.1358
11773TIP3    H156810   0.523   3.342  10.636 -0.5574  0.0421  0.8496
11773TIP3    H256811   0.618   3.437  10.705 -1.1043  0.8255  0.5417
11774TIP3   OH256812   5.391   2.322   6.445  0.1261  0.0862  0.0402
11774TIP3    H156813   5.475   2.278   6.457  0.3181  0.2396 -0.7157
11774TIP3    H256814   5.338   2.259   6.396 -0.2388 -0.0447  0.5885
11775TIP3   OH256815   4.865   4.329  15.626 -0.9221  0.2176 -0.7577
11775TIP3    H156816   4.915   4.408  15.649  1.3105 -1.5728  1.0615
11775TIP3    H256817   4.778   4.344  15.663 -0.3039  1.5244  0.2408
11776TIP3   OH256818   6.619   6.614   2.859  0.3074  0.0243 -0.4869
11776TIP3    H156819   6.529   6.582   2.859  0.2482  0.1778  0.1411
11776TIP3    H256820   6.615   6.699   2.902  0.5066  0.7878 -1.9013
11777TIP3   OH256821   4.509   2.677   4.162  0.2136 -0.6358  0.5749
11777TIP3    H156822   4.486   2.633   4.080  2.0245  0.6235 -0.6601
11777TIP3    H256823   4.579   2.624   4.199 -0.0528 -0.7553  0.9170
11778TIP3   OH256824   4.459   2.152   3.961  0.0463 -0.2211  0.1292
11778TIP3    H156825   4.407   2.080   3.926 -0.6011  0.1966  0.2123
11778TIP3    H256826   4.422   2.168   4.048  1.0778 -0.6848  0.6693
11779TIP3   OH256827   2.695   4.121  15.700  0.0780 -0.4323 -0.1628
11779TIP3    H156828   2.722   4.179  15.629 -1.6575 -1.8768 -2.1596
11779TIP3    H256829   2.729   4.035  15.675  0.5866 -0.7413  1.4936
11780TIP3   OH256830   4.240   2.191  15.880  0.4765  0.1560  0.1228
11780TIP3    H156831   4.228   2.241  15.961  1.9550 -0.0230  0.4719
11780TIP3    H256832   4.152   2.161  15.858 -0.1802  1.4346  0.8547
11781TIP3   OH256833   3.850   2.258   0.531  0.2916  0.2814  0.0171
11781TIP3    H156834   3.811   2.282   0.615 -0.3800  0.3761 -0.3187
11781TIP3    H256835   3.944   2.256   0.549  0.2204  1.1551  0.5512
11782TIP3   OH256836   5.629   3.621   3.649  0.2818  0.2973 -0.0339
11782TIP3    H156837   5.677   3.598   3.569 -1.7082 -0.2876 -1.1432
11782TIP3    H256838   5.592   3.707   3.630 -0.8006 -0.1562 -0.0748
11783TIP3   OH256839   2.295   4.980   1.444  0.5040 -0.7201 -0.4952
11783TIP3    H156840   2.337   4.973   1.529  0.3686  0.6061 -0.3063
11783TIP3    H256841   2.262   4.891   1.427  1.3828 -1.2309  0.3717
11784TIP3   OH256842   2.323   4.776  12.131  0.7562  0.4211  0.1317
11784TIP3    H156843   2.342   4.755  12.039 -0.4314 -0.1490  0.0046
11784TIP3    H256844   2.319   4.691  12.175 -0.0069  0.6103  0.4412
11785TIP3   OH256845   5.609   5.350  13.515 -0.4337 -0.6099  0.2958
11785TIP3    H156846   5.656   5.328  13.595 -0.7345  0.6633  0.8344
11785TIP3    H256847   5.520   5.368  13.543 -0.4172  0.3797 -0.2309
11786TIP3   OH256848   0.299   6.226   2.900  0.4433  0.0901  0.0029
11786TIP3    H156849   0.323   6.318   2.887  0.1295  0.0725 -0.7826
11786TIP3    H256850   0.269   6.197   2.814 -0.9375 -0.3064  0.5862
11787TIP3   OH256851   5.715   1.327   2.464 -0.2127  0.0462  0.6424
11787TIP3    H156852   5.670   1.364   2.388 -1.0933 -0.3263  0.9795
11787TIP3    H256853   5.766   1.255   2.429 -0.7679 -0.2471  0.4281
11788TIP3   OH256854   3.785   3.015   3.005 -0.3234  0.3672 -0.5237
11788TIP3    H156855   3.852   3.082   3.015  0.8568 -0.8901  0.5545
11788TIP3    H256856   3.835   2.933   3.003 -1.8283 -0.5957  0.1485
11789TIP3   OH256857   1.326   3.893   5.811  0.8988 -0.5784  0.1660
11789TIP3    H156858   1.255   3.956   5.797  1.3263 -0.4484 -1.5883
11789TIP3    H256859   1.373   3.890   5.727  2.8692 -0.7867  1.2060
11790TIP3   OH256860   1.160   2.278   3.757  0.3609 -0.5639  0.0534
11790TIP3    H156861   1.090   2.325   3.711 -0.6767 -1.0740  1.0636
11790TIP3    H256862   1.181   2.333   3.832  2.2282  0.3883 -1.1042
11791TIP3   OH256863   6.007   3.780   4.270 -0.3156  0.3186  0.2075
11791TIP3    H156864   5.934   3.783   4.332 -1.1943  1.7605 -0.8317
11791TIP3    H256865   5.984   3.711   4.208 -0.7945  0.7421 -0.0933
11792TIP3   OH256866   5.656   6.633  15.812 -0.5386 -0.1315  0.4338
11792TIP3    H156867   5.736   6.636  15.759  0.1185  0.0096  1.4017
11792TIP3    H256868   5.602   6.566  15.769  0.4169 -0.7860  0.1991
11793TIP3   OH256869   1.194   6.268   5.722  0.1846 -0.6099  0.1055
11793TIP3    H156870   1.126   6.227   5.775  0.0654 -1.4522 -0.6738
11793TIP3    H256871   1.147   6.330   5.666  0.3551  0.5641  1.2258
11794TIP3   OH256872   0.563   5.588  11.126 -0.0602  0.1886 -0.6794
11794TIP3    H156873   0.501   5.573  11.055 -0.1304  0.7996 -0.7523
11794TIP3    H256874   0.518   5.649  11.185  0.8284  1.3889 -1.2188
11795TIP3   OH256875   5.316   1.606   6.356  0.2915  0.0120 -0.2755
11795TIP3    H156876   5.226   1.599   6.388  0.2077 -0.3183 -0.5773
11795TIP3    H256877   5.349   1.517   6.359  0.5769  0.1171 -0.2733
11796TIP3   OH256878   3.884   0.908  13.033  0.1721 -0.0250  0.0938
11796TIP3    H156879   3.793   0.877  13.024  0.6709 -1.3696 -0.5226
11796TIP3    H256880   3.937   0.829  13.023  1.4221  0.7668  0.3789
11797TIP3   OH256881   4.654   4.295  11.020 -0.2629 -0.8971 -0.1076
11797TIP3    H156882   4.564   4.302  11.053  0.2369  1.2986  0.9759
11797TIP3    H256883   4.662   4.367  10.957  0.5818 -1.4235 -0.6127
11798TIP3   OH256884   6.323   1.058   0.286 -0.0673 -0.1913 -0.5475
11798TIP3    H156885   6.380   1.123   0.325 -0.0732  0.3754 -1.4520
11798TIP3    H256886   6.234   1.091   0.302 -0.1668 -1.0271  0.7817
11799TIP3   OH256887   6.231   3.544  15.971  0.0454 -0.5906  0.0119
11799TIP3    H156888   6.312   3.575  16.013  1.1184 -0.0414 -2.3127
11799TIP3    H256889   6.259   3.468  15.920 -0.7790 -0.0770 -1.2363
11800TIP3   OH256890   1.365   5.945   1.737 -0.3173  0.1440 -0.9099
11800TIP3    H156891   1.343   5.870   1.681  0.2398 -0.6800 -0.0486
11800TIP3    H256892   1.429   5.995   1.686  1.4580 -1.4852 -0.3901
11801TIP3   OH256893   1.591   0.908  17.114 -0.3522  0.2009 -0.2960
11801TIP3    H156894   1.546   0.895  17.031 -0.5589  0.8209 -0.2841
11801TIP3    H256895   1.667   0.962  17.092  0.1639 -0.4898 -0.2468
11802TIP3   OH256896   4.714   6.642  10.519  0.2541 -0.2497  0.0996
11802TIP3    H156897   4.702   6.578  10.590  0.4309 -0.5704 -0.1597
11802TIP3    H256898   4.806   6.634  10.494  0.3605  0.3440  0.2902
11803TIP3   OH256899   6.753   4.312   1.728 -0.2118 -0.2430  0.2803
11803TIP3    H156900   6.696   4.386   1.708  1.9060  1.3694 -0.1504
11803TIP3    H256901   6.758   4.311   1.824 -1.3490 -0.7540  0.3499
11804TIP3   OH256902   2.780   3.321   4.631 -0.3658 -0.5182 -0.1408
11804TIP3    H156903   2.824   3.236   4.641  3.1063  1.1561  0.1193
11804TIP3    H256904   2.774   3.334   4.537  0.6490 -0.3686 -0.1994
11805TIP3   OH256905   3.486   0.585  14.795 -0.2720 -0.0127  0.1559
11805TIP3    H156906   3.527   0.670  14.776 -0.2721  0.1861  0.9989
11805TIP3    H256907   3.554   0.536  14.841 -0.3287 -0.4060 -0.1843
11806TIP3   OH256908   3.642   2.569  14.478 -0.0916 -0.1782  0.1962
11806TIP3    H156909   3.608   2.651  14.443 -0.7433 -0.5367 -0.0414
11806TIP3    H256910   3.614   2.502  14.415  1.4162 -0.4499 -0.2164
11807TIP3   OH256911   3.866   1.356   0.343  0.3986 -0.4002 -0.2863
11807TIP3    H156912   3.908   1.347   0.429 -1.5334 -1.2366  0.6315
11807TIP3    H256913   3.854   1.266   0.313  0.3604 -0.1322 -1.0985
11808TIP3   OH256914   3.117   4.421  11.369  0.3056  0.1228  0.2547
11808TIP3    H156915   3.066   4.410  11.288  0.6645 -0.5246  0.1138
11808TIP3    H256916   3.085   4.352  11.427 -0.0084  0.6353  0.7037
11809TIP3   OH256917   4.180   0.877  15.123  0.3319 -0.2597  0.7626
11809TIP3    H156918   4.261   0.863  15.074  0.8898  1.0583  1.2685
11809TIP3    H256919   4.115   0.823  15.078  0.8118  0.9363 -1.4687
11810TIP3   OH256920   0.387   1.198  16.059 -0.4664  0.3667  0.5617
11810TIP3    H156921   0.420   1.185  16.148 -1.6777 -1.2585  0.8204
11810TIP3    H256922   0.444   1.145  16.004 -1.0699 -0.4473  0.6923
11811TIP3   OH256923   6.097   0.056   2.263  0.2624 -0.3971  0.1132
11811TIP3    H156924   6.090   0.147   2.233 -0.9340 -0.1279  1.1413
11811TIP3    H256925   6.034   0.049   2.334  1.4461 -1.6208  1.1067
11812TIP3   OH256926   2.706   5.272   2.849  0.3903  0.0810 -0.5236
11812TIP3    H156927   2.713   5.237   2.938  2.8116  1.5146 -0.0397
11812TIP3    H256928   2.795   5.263   2.814 -0.3056  0.4364 -2.4591
11813TIP3   OH256929   1.231   1.497  10.814 -0.5848  0.4466  0.1132
11813TIP3    H156930   1.229   1.501  10.910 -0.7038  2.2650  0.0816
11813TIP3    H256931   1.140   1.478  10.789 -1.3944  3.4659  0.3510
11814TIP3   OH256932   3.938   1.117   4.581 -0.5420 -0.5894 -0.5311
11814TIP3    H156933   4.006   1.151   4.522 -1.3209 -1.3700 -1.9306
11814TIP3    H256934   3.985   1.063   4.644  0.4819  1.3635  0.4740
11815TIP3   OH256935   5.507   2.063  13.935  0.6306 -0.2734  0.0082
11815TIP3    H156936   5.506   2.147  13.979  2.0056 -0.1434 -0.1892
11815TIP3    H256937   5.480   2.000  14.002  0.8226  0.1551  0.4888
11816TIP3   OH256938   3.847   5.325   1.956  0.4240  0.8637 -0.1561
11816TIP3    H156939   3.755   5.323   1.983  0.7324  2.1221  1.0677
11816TIP3    H256940   3.857   5.408   1.909  0.5255 -0.1196 -2.0112
11817TIP3   OH256941   0.054   1.908   6.640 -0.3153 -0.0300  0.1902
11817TIP3    H156942   0.070   1.854   6.563 -0.3537 -0.4071  0.4456
11817TIP3    H256943  -0.002   1.979   6.608  0.5029  0.3841 -0.3477
11818TIP3   OH256944   5.238   6.180  16.844 -0.4972  0.3314  0.1236
11818TIP3    H156945   5.293   6.201  16.919  0.4389  2.1796 -1.0068
11818TIP3    H256946   5.158   6.143  16.882 -0.4777  2.1611  2.1070
11819TIP3   OH256947   6.375   6.474   2.843 -0.2952 -0.4037  0.0892
11819TIP3    H156948   6.346   6.516   2.762  0.8999 -1.3217 -0.8372
11819TIP3    H256949   6.332   6.388   2.843  0.4587 -0.7865 -0.0579
11820TIP3   OH256950   5.849   5.057   3.248 -0.0577  0.5288  0.2629
11820TIP3    H156951   5.903   5.085   3.174 -0.6049  0.0371 -0.3428
11820TIP3    H256952   5.790   5.130   3.265  0.1199  0.6720  0.2537
11821TIP3   OH256953   4.477   1.027   2.535 -0.2362 -0.2001 -0.0028
11821TIP3    H156954   4.392   0.999   2.501 -0.8320 -1.4168  2.2795
11821TIP3    H256955   4.534   0.951   2.523 -0.2769 -0.4085  0.9786
11822TIP3   OH256956   6.302   5.200  14.837 -0.2105 -0.5754  0.4149
11822TIP3    H156957   6.393   5.197  14.810 -0.3503 -1.3633  0.0086
11822TIP3    H256958   6.255   5.229  14.758 -0.2976  0.0217  0.6778
11823TIP3   OH256959   1.399   5.472   0.419 -0.3720 -0.3911 -0.1593
11823TIP3    H156960   1.416   5.559   0.383 -0.3306  0.1475  1.1445
11823TIP3    H256961   1.322   5.441   0.371  1.1362 -0.7637 -2.5125
11824TIP3   OH256962   2.065   6.419  12.388 -0.5486  0.2973  0.1043
11824TIP3    H156963   2.001   6.398  12.455 -0.3832  0.3843  0.2909
11824TIP3    H256964   2.149   6.418  12.433 -0.2456 -1.2704 -0.4462
11825TIP3   OH256965   3.019   6.720   3.132  0.1339 -0.0832 -0.2030
11825TIP3    H156966   3.039   6.811   3.156 -0.4258 -0.0896  0.2945
11825TIP3    H256967   2.976   6.684   3.209 -1.1763 -0.2823 -1.0115
11826TIP3   OH256968   3.870   1.108  10.893  0.3443 -0.8980 -0.6229
11826TIP3    H156969   3.828   1.165  10.829 -1.4385 -1.8857 -0.4086
11826TIP3    H256970   3.855   1.019  10.860  2.5871 -1.3157 -0.6806
11827TIP3   OH256971   5.690   2.783   4.945 -0.2227 -0.4436  0.5232
11827TIP3    H156972   5.734   2.782   5.031 -0.2494 -0.2502  0.5410
11827TIP3    H256973   5.656   2.695   4.934 -0.3028 -0.4412  0.7564
11828TIP3   OH256974   6.811   0.324   6.216  0.7165  0.9744 -0.0968
11828TIP3    H156975   6.896   0.329   6.259  0.9214 -1.4753 -0.0859
11828TIP3    H256976   6.804   0.406   6.166  2.2513  2.0248  1.3150
11829TIP3   OH256977   5.450   4.667   1.906  0.5423 -0.1041  0.3554
11829TIP3    H156978   5.496   4.679   1.989  1.4981  0.3174 -0.2226
11829TIP3    H256979   5.510   4.616   1.853 -0.3118 -0.8876  0.1097
11830TIP3   OH256980   5.353   2.361   2.400  0.5112  0.1330 -0.1258
11830TIP3    H156981   5.438   2.405   2.401  1.1968 -1.0208 -1.9316
11830TIP3    H256982   5.369   2.277   2.443 -0.6128  1.2129  2.6331
11831TIP3   OH256983   6.056   3.474   5.720  0.3406  0.3362 -0.0748
11831TIP3    H156984   6.147   3.499   5.709  0.3538  0.3011 -0.0464
11831TIP3    H256985   6.059   3.385   5.753  0.2915  0.2672 -0.2564
11832TIP3   OH256986   5.817   5.242   3.942  0.0431 -0.8058  0.5212
11832TIP3    H156987   5.740   5.206   3.985  0.0478  0.5895  1.7653
11832TIP3    H256988   5.794   5.244   3.849 -1.7876  0.4282  0.9637
11833TIP3   OH256989   2.841   3.302   5.978 -0.3239  0.6674 -0.4657
11833TIP3    H156990   2.776   3.257   5.925 -0.3394  1.8577 -1.5028
11833TIP3    H256991   2.889   3.357   5.916 -1.7725  3.8200  0.9540
11834TIP3   OH256992   4.431   5.220  16.747  0.4551 -0.5527  0.2284
11834TIP3    H156993   4.520   5.195  16.772  1.1408  1.6298  0.1415
11834TIP3    H256994   4.395   5.263  16.824 -0.0505 -0.2691 -0.1546
11835TIP3   OH256995   5.951   6.368   2.455 -0.3380 -0.6905  0.4655
11835TIP3    H156996   6.014   6.323   2.512  1.6902 -0.3500 -1.3974
11835TIP3    H256997   5.991   6.367   2.368 -2.4264  0.5332 -0.6045
11836TIP3   OH256998   1.450   3.318  14.563  0.3263  0.1415  0.2594
11836TIP3    H156999   1.512   3.391  14.562  1.1502 -0.5153  1.2275
11836TIP3    H257000   1.493   3.249  14.512 -0.3960  0.2774 -0.5565
11837TIP3   OH257001   0.364   6.670  16.449 -0.2552 -0.3568  0.0723
11837TIP3    H157002   0.417   6.739  16.410 -0.4528 -0.3706 -0.2171
11837TIP3    H257003   0.406   6.653  16.534  0.5044 -0.7230 -0.3681
11838TIP3   OH257004   3.556   1.096   0.460  0.2723 -0.4810  0.0850
11838TIP3    H157005   3.498   1.026   0.489 -0.8242 -1.1603 -3.3179
11838TIP3    H257006   3.522   1.175   0.502 -1.9569 -1.1831 -0.3071
11839TIP3   OH257007   3.448   5.668   1.679 -0.4779 -0.1135 -0.0781
11839TIP3    H157008   3.409   5.716   1.751  1.3876  1.3197  0.0378
11839TIP3    H257009   3.481   5.587   1.719 -1.3404 -0.3343  0.2181
11840TIP3   OH257010   3.207   1.823   3.211 -0.2636  0.2947 -0.1894
11840TIP3    H157011   3.144   1.793   3.145 -0.7135 -0.9773  0.7768
11840TIP3    H257012   3.248   1.742   3.243 -1.5232  0.6024  2.5318
11841TIP3   OH257013   2.229   6.647  14.006  0.5817  0.0774 -0.1739
11841TIP3    H157014   2.165   6.707  13.969  0.1275 -0.9341 -1.0782
11841TIP3    H257015   2.268   6.604  13.930  3.8270  2.0517  0.1570
11842TIP3   OH257016   0.071   1.210   4.459 -0.3566 -0.0331 -0.6675
11842TIP3    H157017   0.107   1.122   4.444  2.8577  0.6398  1.8911
11842TIP3    H257018   0.118   1.265   4.398  0.2841  0.3550  0.1572
11843TIP3   OH257019   5.903   2.816  15.476  0.0523  0.3194 -0.1532
11843TIP3    H157020   5.887   2.821  15.570 -1.1048 -0.1092 -0.3133
11843TIP3    H257021   5.938   2.902  15.453 -0.1305  0.5934  0.5810
11844TIP3   OH257022   4.487   0.591  15.285 -0.1566 -0.7863 -0.2261
11844TIP3    H157023   4.449   0.518  15.334 -0.0377  0.4160  1.7903
11844TIP3    H257024   4.494   0.662  15.350  0.0633  0.9022 -1.9996
11845TIP3   OH257025   0.245   4.749   3.491  0.0692 -0.4632 -0.2374
11845TIP3    H157026   0.235   4.659   3.458  0.2990 -0.3924 -0.4998
11845TIP3    H257027   0.290   4.795   3.420  0.8041 -0.3764  0.2847
11846TIP3   OH257028   1.502   2.754  13.551 -0.2001 -0.3936  0.2616
11846TIP3    H157029   1.504   2.835  13.601  0.2162  0.5951 -1.3182
11846TIP3    H257030   1.539   2.688  13.611 -2.0913  0.1576  2.1877
11847TIP3   OH257031   5.288   5.326   0.795  0.2361  0.2176  0.1820
11847TIP3    H157032   5.301   5.347   0.888  0.6938 -4.3306  1.3781
11847TIP3    H257033   5.203   5.283   0.792  0.6728 -0.6080 -1.2735
11848TIP3   OH257034   3.379   4.844  13.832 -0.0389 -0.0372  0.3093
11848TIP3    H157035   3.355   4.843  13.925 -4.4121 -0.2056 -0.6170
11848TIP3    H257036   3.394   4.936  13.813  1.3404 -0.0440  1.2189
11849TIP3   OH257037   1.589   2.685  13.875 -0.0777 -0.2459  0.1188
11849TIP3    H157038   1.636   2.768  13.869 -1.9554  0.8094 -1.0740
11849TIP3    H257039   1.637   2.626  13.816  1.0367  0.0807  0.6727
11850TIP3   OH257040   2.499   6.141  12.757 -0.4956  0.1887 -0.1243
11850TIP3    H157041   2.514   6.235  12.772 -1.4220  0.0305  2.1349
11850TIP3    H257042   2.404   6.134  12.744 -0.5499 -0.5220  0.6135
11851TIP3   OH257043   0.636   1.867   6.514 -0.1604 -0.1459 -0.1533
11851TIP3    H157044   0.706   1.914   6.469 -0.7660  1.0316  0.0977
11851TIP3    H257045   0.621   1.789   6.459  0.9818 -0.1589 -0.4748
11852TIP3   OH257046   0.864   3.320   2.878 -0.1320  0.1592  0.1172
11852TIP3    H157047   0.958   3.321   2.896  0.5705  1.4184 -2.8894
11852TIP3    H257048   0.844   3.230   2.855  0.7695  0.1950 -0.8827
11853TIP3   OH257049   1.526   0.123  16.560 -0.1177  0.2241 -0.1236
11853TIP3    H157050   1.526   0.125  16.464  1.4667 -0.5469 -0.1638
11853TIP3    H257051   1.545   0.032  16.582  0.1439  0.5267  0.9215
11854TIP3   OH257052   1.446   5.695  14.642  0.1658  0.8412  0.5491
11854TIP3    H157053   1.535   5.728  14.647  0.9931 -1.1520  0.1617
11854TIP3    H257054   1.411   5.733  14.561  2.1922 -1.5113 -1.6609
11855TIP3   OH257055   2.198   0.909   2.858 -0.3199 -0.7475  0.4596
11855TIP3    H157056   2.222   0.995   2.890  0.5531 -1.0946  0.7622
11855TIP3    H257057   2.270   0.883   2.801 -1.3580 -0.5775 -0.9996
11856TIP3   OH257058   5.917   4.578   4.482  0.4532 -0.1135  0.4079
11856TIP3    H157059   5.984   4.544   4.422 -0.3722 -0.1667 -0.5038
11856TIP3    H257060   5.899   4.666   4.450  0.8714  0.3179  1.3230
11857TIP3   OH257061   1.817   2.150   2.022  0.3087 -0.2863  0.3549
11857TIP3    H157062   1.860   2.202   1.955 -1.6789 -0.0735 -0.8298
11857TIP3    H257063   1.754   2.096   1.975 -0.7143 -0.6001  1.9788
11858TIP3   OH257064   1.773   1.362  12.537  0.2602  0.2862  0.1825
11858TIP3    H157065   1.739   1.449  12.557 -0.1026 -0.1205  1.4086
11858TIP3    H257066   1.695   1.307  12.531  0.5419 -0.1393  0.3856
11859TIP3   OH257067   5.225   0.887   2.959 -0.1627  0.1345 -0.6013
11859TIP3    H157068   5.309   0.900   2.917  0.0862  1.6341  0.2765
11859TIP3    H257069   5.161   0.917   2.895  0.1060  0.8703 -0.5298
11860TIP3   OH257070   2.147   6.747  12.047 -0.1794  0.0239 -0.5094
11860TIP3    H157071   2.221   6.805  12.062 -0.7429  0.9283 -1.0873
11860TIP3    H257072   2.114   6.726  12.134 -0.5390  1.3567 -0.2929
11861TIP3   OH257073   2.038   5.513   2.745  0.3291  0.2978  0.8456
11861TIP3    H157074   2.077   5.547   2.825  2.5670  1.0390 -0.4620
11861TIP3    H257075   1.975   5.580   2.719  1.1876  1.1394  0.8698
11862TIP3   OH257076   5.879   1.987  11.453 -0.4594 -0.2122 -0.1558
11862TIP3    H157077   5.799   1.941  11.481 -1.0703  0.6382 -0.4467
11862TIP3    H257078   5.938   1.917  11.425 -1.5264 -0.8059 -1.0170
11863TIP3   OH257079   0.493   5.807   1.938  0.2721 -0.3446  0.1300
11863TIP3    H157080   0.460   5.804   1.848 -0.6587  0.9421  0.4012
11863TIP3    H257081   0.552   5.882   1.940 -1.3887  1.0159  1.0796
11864TIP3   OH257082   0.621   0.046   1.987 -0.0435 -0.2782  0.0023
11864TIP3    H157083   0.625   0.040   2.083 -3.2769  2.0966  0.4610
11864TIP3    H257084   0.695   0.102   1.963 -0.2080  0.5735  1.3576
11865TIP3   OH257085   2.263   5.751   2.349 -0.3609 -0.0827 -0.0155
11865TIP3    H157086   2.230   5.800   2.273 -1.1370  0.9885  0.9801
11865TIP3    H257087   2.301   5.672   2.311 -0.4259  0.5777 -1.5553
11866TIP3   OH257088   5.202   2.367  17.003  0.6956 -0.1897  0.9443
11866TIP3    H157089   5.289   2.378  16.963  0.5001 -0.8532  0.3262
11866TIP3    H257090   5.219   2.318  17.083  1.2627  2.2708  2.4642
11867TIP3   OH257091   3.326   0.522  13.924  0.1036 -0.3085 -0.2028
11867TIP3    H157092   3.320   0.450  13.987  2.7111 -0.5497 -0.1298
11867TIP3    H257093   3.282   0.489  13.845  1.0513 -1.9202 -0.0937
11868TIP3   OH257094   4.546   1.229   5.468 -0.5824 -0.3587  0.3360
11868TIP3    H157095   4.540   1.212   5.374 -0.9224 -0.2175  0.3309
11868TIP3    H257096   4.556   1.143   5.508  2.4347 -0.2684 -0.0262
11869TIP3   OH257097   1.215   0.851  11.660  0.4288 -0.4779  0.0931
11869TIP3    H157098   1.283   0.872  11.596  1.3253 -1.2465  0.7561
11869TIP3    H257099   1.234   0.908  11.734 -1.4663  1.4535 -0.8023
11870TIP3   OH257100   6.653   1.683   1.870 -0.4191 -0.3614  0.9887
11870TIP3    H157101   6.679   1.670   1.779 -1.1863  1.6863  0.4191
11870TIP3    H257102   6.725   1.647   1.921  1.1649  0.6021 -0.4664
11871TIP3   OH257103   3.377   0.615   0.405 -0.3784 -0.2647  0.0658
11871TIP3    H157104   3.452   0.583   0.356  0.1150 -1.2598  1.4116
11871TIP3    H257105   3.384   0.572   0.490 -1.8838  0.4562  0.5855
11872TIP3   OH257106   5.836   5.719  14.646  0.2906  0.3274 -0.3116
11872TIP3    H157107   5.895   5.787  14.615 -0.4417  2.1053  1.9127
11872TIP3    H257108   5.859   5.707  14.738 -0.0341 -2.0355 -0.4752
11873TIP3   OH257109   6.437   2.543  11.270 -0.7113 -0.4320  0.2511
11873TIP3    H157110   6.347   2.535  11.238 -0.3677  3.1470 -2.3289
11873TIP3    H257111   6.490   2.500  11.202 -0.3598 -2.7358  1.8750
11874TIP3   OH257112   1.481   6.437   1.349  0.0986  1.0535  0.0290
11874TIP3    H157113   1.542   6.482   1.408  0.4148  0.9380 -0.2080
11874TIP3    H257114   1.534   6.371   1.305 -0.2488  0.8037 -0.0171
11875TIP3   OH257115   0.290   5.717  11.660 -0.6618  1.2774  0.3469
11875TIP3    H157116   0.320   5.672  11.738 -0.3156 -1.8621 -1.4672
11875TIP3    H257117   0.363   5.713  11.599 -1.5784  1.8734 -0.8449
11876TIP3   OH257118   0.450   0.036  12.044 -0.5297  0.1367 -0.0464
11876TIP3    H157119   0.538   0.010  12.072 -0.3520 -1.3340 -1.7479
11876TIP3    H257120   0.448   0.014  11.951 -2.8134 -0.1802  0.0239
11877TIP3   OH257121   3.053   3.938  11.982 -0.0480 -0.2681  0.1832
11877TIP3    H157122   3.143   3.945  11.951  0.5259 -1.1211  1.5243
11877TIP3    H257123   3.009   3.883  11.917  0.6881 -0.6948  0.0351
11878TIP3   OH257124   3.194   5.187   4.881  0.3736 -0.0668  0.1767
11878TIP3    H157125   3.187   5.282   4.887 -0.4978 -0.0592 -0.7441
11878TIP3    H257126   3.250   5.172   4.805 -0.6320 -0.2893 -0.5431
11879TIP3   OH257127   6.813   0.585  13.089 -0.2479 -0.5495  0.4161
11879TIP3    H157128   6.755   0.660  13.077 -0.5424 -0.7941  0.3126
11879TIP3    H257129   6.757   0.508  13.075  0.5122 -0.7875 -1.7092
11880TIP3   OH257130   3.877   1.361   4.742 -0.3745 -0.2047 -0.5092
11880TIP3    H157131   3.934   1.293   4.706 -1.0635 -2.8749  2.9264
11880TIP3    H257132   3.788   1.329   4.726 -0.7716  0.7167 -0.2325
11881TIP3   OH257133   4.621   1.738   3.658  0.0806  0.1331  0.7060
11881TIP3    H157134   4.703   1.716   3.614  0.0002  1.8580 -0.3819
11881TIP3    H257135   4.590   1.817   3.613 -2.5693 -0.9001  0.5943
11882TIP3   OH257136   0.809   6.321  14.672 -0.1269 -0.0434  0.4043
11882TIP3    H157137   0.811   6.263  14.596 -0.4403 -1.9411  1.7472
11882TIP3    H257138   0.796   6.262  14.746  2.1058  1.5073  2.1765
11883TIP3   OH257139   5.175   3.660   1.694  0.2394 -0.4370  0.0027
11883TIP3    H157140   5.128   3.653   1.611 -1.0965  2.2151  0.4380
11883TIP3    H257141   5.136   3.736   1.738  0.4792 -2.0499  3.3436
11884TIP3   OH257142   0.542   3.141  17.036 -0.3419 -0.5010 -0.0657
11884TIP3    H157143   0.541   3.236  17.053 -0.9887 -0.4272 -0.4586
11884TIP3    H257144   0.464   3.108  17.080 -2.2466 -0.2585 -2.9376
11885TIP3   OH257145   6.590   4.612  15.313 -0.3228 -0.3068 -0.0879
11885TIP3    H157146   6.600   4.639  15.222  2.2384  0.7626  0.4358
11885TIP3    H257147   6.560   4.691  15.359 -2.3451 -1.0268 -0.0429
11886TIP3   OH257148   0.800   5.969  11.381 -0.2409 -0.0098 -0.4842
11886TIP3    H157149   0.824   6.021  11.458 -0.4581 -0.9429  0.2379
11886TIP3    H257150   0.746   6.028  11.329 -1.6133  0.1089  0.9684
11887TIP3   OH257151   1.412   2.638   4.905 -0.1465 -0.3327 -0.1459
11887TIP3    H157152   1.381   2.617   4.817  2.8730  0.6936 -1.5915
11887TIP3    H257153   1.445   2.555   4.939  0.0445 -0.4464 -0.6000
11888TIP3   OH257154   4.438   2.640  11.333 -0.9497  0.0254  0.5059
11888TIP3    H157155   4.443   2.594  11.417 -2.1242  1.4468  1.4045
11888TIP3    H257156   4.507   2.600  11.280 -0.6499 -1.4060  1.8880
11889TIP3   OH257157   5.908   3.800  14.348  0.0304  0.2323  0.3732
11889TIP3    H157158   5.827   3.850  14.354  0.9127  2.2559 -2.3242
11889TIP3    H257159   5.968   3.842  14.409 -0.5945 -0.5821  1.5705
11890TIP3   OH257160   2.626   3.987   1.470 -0.2336  0.1885  0.1697
11890TIP3    H157161   2.559   4.053   1.452 -0.8842 -0.1499  1.2871
11890TIP3    H257162   2.584   3.924   1.528  1.0376 -0.0675  0.8574
11891TIP3   OH257163   4.708   5.198   0.445  0.1184  0.6676  0.6138
11891TIP3    H157164   4.690   5.266   0.509 -1.9372 -0.7958  1.6972
11891TIP3    H257165   4.629   5.193   0.392  0.2674 -0.7942  0.4911
11892TIP3   OH257166   4.236   0.616   0.169  0.0365 -0.2063  0.2020
11892TIP3    H157167   4.242   0.710   0.154 -0.2811 -0.2676 -0.3567
11892TIP3    H257168   4.248   0.605   0.263  1.2358  0.2865  0.1240
11893TIP3   OH257169   5.570   4.709   0.636 -0.2045  0.7343  0.4897
11893TIP3    H157170   5.516   4.784   0.608 -0.6182  1.2663  2.5164
11893TIP3    H257171   5.535   4.686   0.722  1.5923 -0.1351  1.0333
11894TIP3   OH257172   1.070   3.120   3.254  0.6358 -0.4369 -0.2444
11894TIP3    H157173   1.020   3.201   3.253  2.5797  0.8289  0.0175
11894TIP3    H257174   1.063   3.088   3.344 -1.2575 -1.3537 -0.6678
11895TIP3   OH257175   5.030   3.143  14.261 -0.2471 -0.4447  1.0427
11895TIP3    H157176   4.949   3.145  14.312 -0.7026 -0.8244  0.3517
11895TIP3    H257177   5.003   3.111  14.175  0.0608  2.3306 -0.2065
11896TIP3   OH257178   3.664   5.036  10.981  0.6943 -0.4060  0.4103
11896TIP3    H157179   3.756   5.008  10.988  0.5804 -0.6463  1.0393
11896TIP3    H257180   3.665   5.105  10.915  1.3717 -0.2481  0.5750
11897TIP3   OH257181   6.117   3.882   5.110 -0.4259  0.6307 -0.9375
11897TIP3    H157182   6.146   3.810   5.054 -1.7527 -0.5533 -0.1937
11897TIP3    H257183   6.196   3.931   5.129  0.2594  0.3150 -2.7677
11898TIP3   OH257184   1.377   0.663   2.753 -0.2051 -0.8561 -0.5255
11898TIP3    H157185   1.435   0.695   2.822 -0.9756  0.5159 -0.4760
11898TIP3    H257186   1.289   0.679   2.786 -0.6377 -2.7804 -0.6670
11899TIP3   OH257187   5.852   6.163  14.401  0.3110 -0.9873  0.3265
11899TIP3    H157188   5.784   6.213  14.356  2.5482  0.5965 -1.5253
11899TIP3    H257189   5.852   6.198  14.491  0.3133  0.8081 -0.3292
11900TIP3   OH257190   2.651   2.631   4.326 -0.0422  0.2168  0.3194
11900TIP3    H157191   2.556   2.629   4.313 -0.4634  1.0423  2.7757
11900TIP3    H257192   2.679   2.542   4.306 -1.6010 -0.5060  1.1533
11901TIP3   OH257193   4.147   0.739   3.782  0.0610 -0.3846 -0.4070
11901TIP3    H157194   4.196   0.671   3.828  1.0165 -0.6556 -1.7888
11901TIP3    H257195   4.173   0.731   3.691  0.7254  2.2650 -0.5223
11902TIP3   OH257196   6.615   2.348  12.276 -0.2187  0.0717  0.4701
11902TIP3    H157197   6.675   2.370  12.205 -0.2087  0.7838  0.6899
11902TIP3    H257198   6.570   2.430  12.296 -0.6199 -0.2496  0.9126
11903TIP3   OH257199   3.220   3.452   6.067  1.0179 -0.4111  0.1528
11903TIP3    H157200   3.191   3.374   6.114  0.9314  0.4616  1.6108
11903TIP3    H257201   3.164   3.456   5.990 -0.6174 -0.5016  1.2897
11904TIP3   OH257202   1.599   0.816  11.362 -0.4518  0.3966 -0.4643
11904TIP3    H157203   1.536   0.773  11.303 -1.2437  0.9119 -0.0124
11904TIP3    H257204   1.682   0.815  11.313 -0.8691 -0.0417 -1.1879
11905TIP3   OH257205   6.670   5.251  11.915  0.0993 -0.5940  0.3289
11905TIP3    H157206   6.732   5.182  11.941  2.9398  1.0140 -1.5864
11905TIP3    H257207   6.657   5.237  11.821  1.3781  1.8247 -0.2777
11906TIP3   OH257208   3.667   4.201   2.459 -0.0943  0.9423  0.7369
11906TIP3    H157209   3.575   4.176   2.471  0.4765 -0.9371  1.3908
11906TIP3    H257210   3.703   4.205   2.547  0.9134 -0.2312  0.4090
11907TIP3   OH257211   6.719   3.931  13.040 -0.1841 -0.0050  0.1491
11907TIP3    H157212   6.648   3.966  12.986 -0.1176  0.3985  0.3193
11907TIP3    H257213   6.794   3.925  12.981 -0.1149  0.4242  0.1931
11908TIP3   OH257214   3.970   2.324  17.040 -0.0748  0.2923  0.1939
11908TIP3    H157215   3.945   2.348  17.130  0.1388 -0.5924  0.5035
11908TIP3    H257216   4.027   2.249  17.051 -0.1364  0.1058 -0.7024
11909TIP3   OH257217   3.699   6.698   3.403 -0.8584  0.3873  0.2997
11909TIP3    H157218   3.652   6.665   3.480 -2.1355  0.8994 -0.2388
11909TIP3    H257219   3.640   6.682   3.330 -0.7266  2.1254 -0.2410
11910TIP3   OH257220   2.205   3.767   5.538  0.1869  0.3325  0.0129
11910TIP3    H157221   2.171   3.817   5.611  1.5767  1.2957  0.0475
11910TIP3    H257222   2.187   3.821   5.461 -0.5501 -0.3012 -0.2683
11911TIP3   OH257223   0.337   0.101  12.441 -0.2309 -0.3023  0.1962
11911TIP3    H157224   0.410   0.101  12.504  0.5391 -0.9494 -0.6557
11911TIP3    H257225   0.364   0.164  12.374 -0.4269 -0.5836 -0.1504
11912TIP3   OH257226   3.991   6.621   0.023 -0.4273  0.9227 -0.2916
11912TIP3    H157227   3.927   6.615   0.094 -1.9911  0.0752 -1.7127
11912TIP3    H257228   3.939   6.614  -0.057  1.3628  1.1366 -1.5265
11913TIP3   OH257229   1.453   5.578  17.050 -0.7379 -0.2521 -0.5261
11913TIP3    H157230   1.462   5.518  17.124 -0.6608 -1.1390 -1.2356
11913TIP3    H257231   1.498   5.657  17.079 -0.1302 -0.8138  0.1365
11914TIP3   OH257232   4.654   1.172  16.143  0.3672  0.0511 -0.5023
11914TIP3    H157233   4.686   1.185  16.053  0.8738 -2.7865 -0.8432
11914TIP3    H257234   4.731   1.144  16.192 -0.1867  0.1804  0.4662
11915TIP3   OH257235   6.334   6.212  13.131  0.3336 -0.2315 -0.1302
11915TIP3    H157236   6.310   6.257  13.211 -0.4253  0.4309 -0.7169
11915TIP3    H257237   6.271   6.140  13.123  1.7974 -1.7169  1.0242
11916TIP3   OH257238   3.187   5.146  17.243 -0.2541  0.0477 -0.1962
11916TIP3    H157239   3.263   5.096  17.217 -1.2123 -1.0591 -0.9575
11916TIP3    H257240   3.181   5.216  17.178 -0.6750 -0.6965 -0.9799
11917TIP3   OH257241   6.461   6.072   5.868  0.1802 -0.0188  0.1847
11917TIP3    H157242   6.496   6.005   5.810  1.3197  1.1729 -0.5509
11917TIP3    H257243   6.369   6.080   5.842  0.0388 -1.2338  0.2488
11918TIP3   OH257244   1.992   3.543  15.945  0.9401  0.4736  0.4184
11918TIP3    H157245   1.995   3.475  15.878 -0.9765 -0.7772  1.5203
11918TIP3    H257246   1.981   3.624  15.896 -0.2533 -0.3855 -0.8074
11919TIP3   OH257247   1.390   0.555  12.192  0.3825 -0.4022  0.0178
11919TIP3    H157248   1.334   0.572  12.116 -1.1306 -2.4470  0.5997
11919TIP3    H257249   1.360   0.619  12.257 -0.2447 -0.4702 -0.1892
11920TIP3   OH257250   0.201   6.776  15.465 -0.1333  0.0972 -0.0247
11920TIP3    H157251   0.279   6.730  15.437  0.4059  0.7807  0.3365
11920TIP3    H257252   0.165   6.722  15.535  0.6878  0.3826  0.6329
11921TIP3   OH257253   0.797   4.576   2.553 -0.1758  0.1864  0.3055
11921TIP3    H157254   0.721   4.521   2.536  0.2002 -1.0836  2.3465
11921TIP3    H257255   0.862   4.516   2.590  1.3506  1.4793 -0.1958
11922TIP3   OH257256   3.017   3.431  17.282  0.3451 -0.0673  0.2613
11922TIP3    H157257   3.109   3.423  17.257 -0.1016 -2.6155 -0.8628
11922TIP3    H257258   2.969   3.430  17.199 -0.8301 -2.4603  0.8758
11923TIP3   OH257259   1.417   4.755   1.617 -0.9667  0.4387  0.1804
11923TIP3    H157260   1.445   4.776   1.528 -0.2126  4.3686  1.1557
11923TIP3    H257261   1.471   4.681   1.643  0.5648  0.8010 -1.7778
11924TIP3   OH257262   1.131   5.165   2.148 -0.7468  0.0478 -0.3140
11924TIP3    H157263   1.130   5.069   2.152  0.2592 -0.0428 -1.5894
11924TIP3    H257264   1.038   5.189   2.141 -1.0003 -0.8452 -0.2314
11925TIP3   OH257265   6.122   0.735   4.934 -0.3198  0.0781  0.2390
11925TIP3    H157266   6.139   0.819   4.977 -1.4887  0.9187 -0.8704
11925TIP3    H257267   6.143   0.670   5.001  0.5077  1.2380  1.1657
11926TIP3   OH257268   1.359   0.027  17.064 -0.6164  0.6679 -0.4535
11926TIP3    H157269   1.401   0.086  17.001  0.1270 -0.0620 -0.6657
11926TIP3    H257270   1.431  -0.005  17.118 -1.0291  0.0554 -0.2606
11927TIP3   OH257271   2.463   1.002   6.252 -0.2410  0.1388  0.0164
11927TIP3    H157272   2.437   1.075   6.308 -1.9147  0.0536 -0.5875
11927TIP3    H257273   2.389   0.941   6.257 -1.9682  1.4521 -4.5677
11928TIP3   OH257274   2.066   2.589   2.656 -0.3152  0.4938 -0.5695
11928TIP3    H157275   2.152   2.551   2.675  0.8023  2.5340 -1.2869
11928TIP3    H257276   2.005   2.534   2.705  1.3743 -1.0659 -0.0984
11929TIP3   OH257277   3.171   5.378  11.823 -0.2888 -0.1804 -0.2236
11929TIP3    H157278   3.197   5.382  11.916  0.6599  0.2617 -0.4958
11929TIP3    H257279   3.136   5.290  11.813 -0.3540 -0.2565  0.5485
11930TIP3   OH257280   3.234   1.329  16.932  0.0472 -0.4411  0.1470
11930TIP3    H157281   3.222   1.307  16.840  0.6408 -1.1926  0.2426
11930TIP3    H257282   3.157   1.381  16.954 -0.6546 -1.1865 -0.4838
11931TIP3   OH257283   2.531   0.264   1.071  0.8754 -0.1352 -0.8589
11931TIP3    H157284   2.605   0.207   1.050  0.5168 -0.8753 -0.1547
11931TIP3    H257285   2.545   0.341   1.017  2.5581  0.0618 -0.2176
11932TIP3   OH257286   4.717   5.746   5.335 -0.1453  0.4991  0.3207
11932TIP3    H157287   4.659   5.801   5.283  0.8751 -0.0336 -1.4673
11932TIP3    H257288   4.804   5.783   5.321  0.3450 -0.6054  0.3836
11933TIP3   OH257289   4.656   3.330   1.538 -0.0534 -0.5116  0.4454
11933TIP3    H157290   4.569   3.363   1.517 -0.0631  0.1961  1.5564
11933TIP3    H257291   4.650   3.236   1.523 -0.8965 -0.4236  0.1737
11934TIP3   OH257292   3.839   4.810  16.620  0.5522 -0.3951  0.1788
11934TIP3    H157293   3.892   4.771  16.550  1.2942 -0.4455  0.7527
11934TIP3    H257294   3.763   4.753  16.627 -0.9430  1.1398 -2.4330
11935TIP3   OH257295   0.648   2.958  13.155 -0.5940  0.0636  0.5032
11935TIP3    H157296   0.720   2.942  13.094 -0.3008  0.6164  0.6995
11935TIP3    H257297   0.691   2.991  13.234 -1.1242  1.2189  0.3210
11936TIP3   OH257298   3.517   3.521   4.752  0.5428  0.4770 -0.3634
11936TIP3    H157299   3.538   3.443   4.701 -0.7936 -1.3918  1.8053
11936TIP3    H257300   3.598   3.542   4.798  1.1093  0.8607 -1.4776
11937TIP3   OH257301   1.256   5.866   5.383 -0.1911  0.4064 -0.5432
11937TIP3    H157302   1.349   5.876   5.407 -0.2687  0.9282 -0.4377
11937TIP3    H257303   1.246   5.773   5.365  0.3285  0.3229 -0.4371
11938TIP3   OH257304   2.490   0.687  12.525  0.1392 -0.0154  0.8600
11938TIP3    H157305   2.438   0.767  12.529  0.5828  0.2288  2.8738
11938TIP3    H257306   2.447   0.633  12.459 -0.9473  1.3370  0.4313
11939TIP3   OH257307   0.936   5.953  14.611  0.0260  0.0296 -0.0192
11939TIP3    H157308   0.861   5.970  14.554 -0.2241 -1.6560 -0.2667
11939TIP3    H257309   0.944   5.857  14.612  1.0600  0.0860  1.4434
11940TIP3   OH257310   4.178   5.177   3.256  0.8337 -0.2612 -0.0170
11940TIP3    H157311   4.263   5.215   3.279  0.6745 -1.1204  2.2346
11940TIP3    H257312   4.127   5.180   3.337 -0.2887 -2.3127 -0.5724
11941TIP3   OH257313   2.535   6.297  14.771  0.5307  0.6796  0.0817
11941TIP3    H157314   2.619   6.267  14.737 -0.4335  0.9659 -2.8636
11941TIP3    H257315   2.492   6.217  14.802  1.5712  0.4473  1.0192
11942TIP3   OH257316   5.716   5.469  10.944 -0.1731  0.5419 -0.7605
11942TIP3    H157317   5.626   5.443  10.962  0.2236  0.5121  1.4107
11942TIP3    H257318   5.763   5.386  10.934 -0.0604  0.5121 -0.0382
11943TIP3   OH257319   4.337   3.522  12.968 -0.7902 -0.2062  0.3471
11943TIP3    H157320   4.402   3.540  13.036  0.0120  0.9925 -0.6954
11943TIP3    H257321   4.323   3.606  12.925 -0.7383 -1.0535 -1.4349
11944TIP3   OH257322   2.873   1.333   1.178 -0.1350 -0.0156 -0.6783
11944TIP3    H157323   2.965   1.309   1.171 -0.6353 -1.6406 -2.3142
11944TIP3    H257324   2.830   1.254   1.212 -1.0938  0.2879 -1.1437
11945TIP3   OH257325   6.410   5.182   4.965  0.2030 -0.1625 -0.2345
11945TIP3    H157326   6.344   5.250   4.978  0.5962  0.3481 -0.8424
11945TIP3    H257327   6.489   5.219   5.003  0.5621 -0.0206 -1.0969
11946TIP3   OH257328   5.798   1.582  14.586  0.6341  0.1265 -0.0158
11946TIP3    H157329   5.782   1.676  14.599  0.1457  0.2041 -1.0728
11946TIP3    H257330   5.852   1.578  14.507  2.4333 -0.3812  1.1915
11947TIP3   OH257331   0.475   2.061   0.295  0.3564  0.3991 -0.4706
11947TIP3    H157332   0.453   2.122   0.366 -0.6343  0.4841 -0.8243
11947TIP3    H257333   0.531   2.112   0.236 -1.6547  1.5377 -1.5404
11948TIP3   OH257334   4.394   3.195   3.891 -0.3809 -0.3373 -0.1141
11948TIP3    H157335   4.461   3.242   3.941 -1.2814  2.6167 -1.4971
11948TIP3    H257336   4.442   3.123   3.849  1.1192 -0.5890  1.8614
11949TIP3   OH257337   3.794   1.562  11.479 -0.1046  0.4627  0.2460
11949TIP3    H157338   3.886   1.542  11.493 -0.1864  1.3663  2.5092
11949TIP3    H257339   3.794   1.637  11.420  0.5082 -0.4736 -0.9949
11950TIP3   OH257340   0.850   3.996   2.389 -0.2217  0.5844  0.9073
11950TIP3    H157341   0.788   4.023   2.322  0.1730  0.8557  0.6435
11950TIP3    H257342   0.936   4.007   2.348 -0.0387 -2.0964  0.4144
11951TIP3   OH257343   3.390   0.355   4.681 -0.5272 -0.3978  0.0995
11951TIP3    H157344   3.425   0.444   4.688  2.3555 -1.4803  0.8685
11951TIP3    H257345   3.345   0.341   4.764  0.4835 -0.1905  0.7048
11952TIP3   OH257346   6.393   5.441  16.569  0.2784  0.4874 -0.3433
11952TIP3    H157347   6.413   5.449  16.663 -0.2161  2.2839 -0.3613
11952TIP3    H257348   6.313   5.388  16.566  0.6294 -0.0849  0.2064
11953TIP3   OH257349   2.648   2.589  14.944  0.1496  0.1719 -0.2057
11953TIP3    H157350   2.559   2.555  14.932  0.1185  0.4066 -0.6743
11953TIP3    H257351   2.659   2.596  15.039  0.0352 -0.8255 -0.1093
11954TIP3   OH257352   0.108   4.097  15.598  0.7985  0.2113  0.0634
11954TIP3    H157353   0.198   4.075  15.624  1.3729  2.2615 -0.0112
11954TIP3    H257354   0.113   4.110  15.504  1.1222  3.0565  0.3882
11955TIP3   OH257355   4.933   5.320   6.681 -0.7010  0.0169  0.4334
11955TIP3    H157356   4.854   5.373   6.672 -1.7017 -1.2061  1.6409
11955TIP3    H257357   4.911   5.255   6.748  1.1442 -0.7036  0.3942
11956TIP3   OH257358   2.725   6.559  14.527 -0.5783  0.0323 -0.5240
11956TIP3    H157359   2.740   6.652  14.511 -1.2867  0.1557 -0.5109
11956TIP3    H257360   2.702   6.523  14.441 -1.5142  0.1185 -0.3200
11957TIP3   OH257361   1.512   4.467   1.934 -0.4547 -0.0618  0.1475
11957TIP3    H157362   1.545   4.492   2.020  3.1948  0.8200 -1.3293
11957TIP3    H257363   1.532   4.373   1.928  3.3987  0.6836 -1.1842
11958TIP3   OH257364   2.046   2.533   4.314  0.4256 -0.1490 -0.2368
11958TIP3    H157365   2.025   2.502   4.402 -0.0379 -0.0064 -0.2990
11958TIP3    H257366   2.003   2.471   4.255  1.5476 -0.8321 -0.3836
11959TIP3   OH257367   0.323   2.075  14.571  0.1573  0.5377 -0.4836
11959TIP3    H157368   0.259   2.041  14.509 -0.2977 -0.3671  0.4518
11959TIP3    H257369   0.386   2.003  14.581  0.4693  0.8429 -0.2424
11960TIP3   OH257370   4.204   4.048  13.604  0.0487 -0.5047 -0.6435
11960TIP3    H157371   4.141   3.976  13.607 -0.3433 -0.1504 -0.2310
11960TIP3    H257372   4.158   4.122  13.643  0.3878  0.0224 -1.2188
11961TIP3   OH257373   0.165   3.872   4.110 -0.2405  0.0748 -0.4860
11961TIP3    H157374   0.124   3.954   4.136  0.9543  0.3820  0.5240
11961TIP3    H257375   0.259   3.891   4.109  0.0025 -1.0411 -1.1055
11962TIP3   OH257376   1.915   4.957  14.106  0.4100 -0.1971 -0.5824
11962TIP3    H157377   1.945   4.993  14.023  2.8745  3.2417  1.5066
11962TIP3    H257378   1.844   5.014  14.134  0.4834 -0.4745  0.2246
11963TIP3   OH257379   0.180   2.416   1.697  0.0933 -0.1236 -0.0729
11963TIP3    H157380   0.160   2.457   1.612 -0.7100  0.7461  0.5171
11963TIP3    H257381   0.214   2.487   1.751  0.9175 -0.7459  0.2378
11964TIP3   OH257382   5.370   1.724   4.234 -0.3891  0.0234 -0.4498
11964TIP3    H157383   5.452   1.763   4.263 -0.5674  0.7987 -0.9835
11964TIP3    H257384   5.329   1.790   4.180 -1.4496 -0.2973 -0.0682
11965TIP3   OH257385   4.392   0.544  11.207  0.0246 -0.5432  0.1095
11965TIP3    H157386   4.314   0.598  11.201 -0.1350 -0.4983  2.1520
11965TIP3    H257387   4.465   0.607  11.211  0.4079 -0.5721 -3.2644
11966TIP3   OH257388   4.118   2.851  14.561  0.5177 -0.4412  0.3250
11966TIP3    H157389   4.136   2.797  14.484 -2.6946 -0.3739 -0.6087
11966TIP3    H257390   4.049   2.911  14.533 -2.4612 -1.8657  3.7552
11967TIP3   OH257391   6.438   0.994  11.228  0.2488  0.3764  0.7310
11967TIP3    H157392   6.461   1.056  11.297 -0.6127  1.1255  0.3625
11967TIP3    H257393   6.344   1.006  11.215  0.1553 -0.6771  0.3188
11968TIP3   OH257394   4.846   4.228  16.704  0.1880 -0.3338  0.1203
11968TIP3    H157395   4.863   4.313  16.743 -0.9250 -0.3946  0.8095
11968TIP3    H257396   4.898   4.167  16.756  2.7209  0.0965 -1.7264
11969TIP3   OH257397   5.940   0.723   5.956  0.4966  0.5432  0.3850
11969TIP3    H157398   5.983   0.744   5.873  0.2109  0.9652  0.3398
11969TIP3    H257399   5.873   0.791   5.966 -0.0011  0.0349  0.5687
11970TIP3   OH257400   1.273   1.336   4.944 -0.2797 -0.0866 -0.3366
11970TIP3    H157401   1.209   1.376   4.886  0.6683  0.1394 -1.2585
11970TIP3    H257402   1.270   1.243   4.925  0.2914  0.0313 -1.0286
11971TIP3   OH257403   5.429   1.414  14.866  0.2062 -0.2819 -0.2994
11971TIP3    H157404   5.389   1.442  14.784  0.7821 -2.0675 -1.2343
11971TIP3    H257405   5.470   1.331  14.846  4.1246  1.2026  0.6792
11972TIP3   OH257406   0.865   3.493   5.382  0.2243  0.4569  0.0290
11972TIP3    H157407   0.821   3.418   5.422  0.4071 -0.2802 -1.1005
11972TIP3    H257408   0.814   3.569   5.409 -1.2051 -0.2877 -0.5078
11973TIP3   OH257409   3.643   5.152  14.435 -0.5727  0.2066 -0.2574
11973TIP3    H157410   3.637   5.237  14.393  1.4273 -0.8524 -2.9881
11973TIP3    H257411   3.564   5.106  14.409 -1.5514  1.0579  1.0459
11974TIP3   OH257412   4.134   3.073   2.825  0.5397  0.3202 -0.3235
11974TIP3    H157413   4.211   3.053   2.878  0.3568  0.0230 -0.1696
11974TIP3    H257414   4.072   3.114   2.885  0.0970 -0.5630 -0.1597
11975TIP3   OH257415   3.796   6.529   3.113  0.6021  0.0777  0.2690
11975TIP3    H157416   3.826   6.438   3.110 -0.4823 -0.2702 -2.4042
11975TIP3    H257417   3.841   6.566   3.189  2.1291 -2.3079  0.6428
11976TIP3   OH257418   0.630   3.235   3.893 -0.2268 -0.0668 -0.4152
11976TIP3    H157419   0.585   3.156   3.923  0.6814 -1.2425 -2.0104
11976TIP3    H257420   0.707   3.243   3.950 -0.3401 -0.3090 -0.2290
11977TIP3   OH257421   5.456   4.577  12.060  0.4896  0.6440 -0.8513
11977TIP3    H157422   5.475   4.566  12.153  1.2625 -1.3255 -1.1921
11977TIP3    H257423   5.365   4.605  12.057 -0.0331 -0.7754  0.4619
11978TIP3   OH257424   3.883   6.289   3.187 -0.1357  0.1667  0.0605
11978TIP3    H157425   3.868   6.198   3.161 -3.1655 -0.1616  2.4013
11978TIP3    H257426   3.881   6.288   3.283 -1.5274  2.8396  0.1615
11979TIP3   OH257427   6.171   5.221  12.112  0.0945  0.1883 -0.4777
11979TIP3    H157428   6.186   5.265  12.029  1.8741  0.1759 -0.1928
11979TIP3    H257429   6.235   5.259  12.172 -1.7777  0.9203  1.2016
11980TIP3   OH257430   2.488   1.318   1.730  0.2965 -0.3778 -0.0232
11980TIP3    H157431   2.470   1.394   1.674 -2.3328 -1.5703 -0.9131
11980TIP3    H257432   2.443   1.338   1.812 -1.5537 -1.4687 -0.7182
11981TIP3   OH257433   5.181   2.234   6.618 -0.3479 -0.2577 -0.7532
11981TIP3    H157434   5.142   2.317   6.648 -1.2229 -0.3730 -1.5468
11981TIP3    H257435   5.242   2.260   6.550 -0.5265 -0.2468 -0.9108
11982TIP3   OH257436   1.901   5.817   5.881 -0.7675  0.3080  0.7271
11982TIP3    H157437   1.995   5.809   5.864 -0.9552  2.6129 -2.2857
11982TIP3    H257438   1.896   5.869   5.961  0.5297  0.4196  0.7602
11983TIP3   OH257439   2.659   5.332  10.685 -0.3112  0.2324  0.3427
11983TIP3    H157440   2.705   5.365  10.762 -0.3752 -0.0727  0.5154
11983TIP3    H257441   2.665   5.236  10.694  0.6382  0.1892 -0.6002
11984TIP3   OH257442   2.140   4.125   0.774 -0.1307 -0.3212 -0.2808
11984TIP3    H157443   2.062   4.121   0.829 -0.4594  2.4253 -0.4466
11984TIP3    H257444   2.200   4.061   0.813 -1.6715 -1.0067  1.0796
11985TIP3   OH257445   2.635   4.067  15.247 -0.0924  0.3578  0.7487
11985TIP3    H157446   2.690   4.121  15.304  1.0711  0.3774 -0.3299
11985TIP3    H257447   2.566   4.127  15.217  0.1414  0.7466  0.9767
11986TIP3   OH257448   5.141   0.472   5.270  0.5189  0.0332  0.3382
11986TIP3    H157449   5.233   0.445   5.263 -0.0424 -1.9949  0.1689
11986TIP3    H257450   5.097   0.398   5.311 -1.4463 -0.0439 -1.7204
11987TIP3   OH257451   5.120   2.986  12.493 -0.0541  0.0356  0.0536
11987TIP3    H157452   5.208   2.961  12.523 -0.6185 -0.7088  1.1437
11987TIP3    H257453   5.098   2.922  12.426  0.2963  0.3357 -0.3573
11988TIP3   OH257454   5.127   5.710   2.567 -0.0251  0.6506  0.0297
11988TIP3    H157455   5.125   5.799   2.602  1.1609  0.1675  1.4243
11988TIP3    H257456   5.037   5.678   2.578  0.0960  0.8176  1.9716
11989TIP3   OH257457   2.939   0.281  11.797  0.0425  0.1861 -0.4504
11989TIP3    H157458   2.948   0.279  11.892 -0.0107  0.4954 -0.4373
11989TIP3    H257459   2.875   0.212  11.778  1.0675 -0.8102 -0.3904
11990TIP3   OH257460   5.089   2.584   0.458  0.1410  0.0549 -0.1035
11990TIP3    H157461   5.179   2.615   0.452  0.4263 -0.9242 -1.3155
11990TIP3    H257462   5.043   2.626   0.385 -0.4939  0.8263  0.7131
11991TIP3   OH257463   0.806   0.626   3.766  0.3802 -0.1990  0.3806
11991TIP3    H157464   0.873   0.678   3.723 -0.0112  1.4288  1.6494
11991TIP3    H257465   0.796   0.666   3.853 -1.4855 -1.0436  0.6055
11992TIP3   OH257466   4.885   4.240  10.795  0.4444 -0.2888 -0.4986
11992TIP3    H157467   4.904   4.331  10.771  1.4484 -0.1667  0.6853
11992TIP3    H257468   4.879   4.195  10.711 -1.3340  1.0855 -1.1679
11993TIP3   OH257469   5.905   1.777  13.659  0.8529  0.2221  0.5992
11993TIP3    H157470   5.860   1.812  13.583  0.9713 -2.3678 -0.7846
11993TIP3    H257471   5.996   1.768  13.631  1.2538  0.8284  1.6561
11994TIP3   OH257472   6.298   5.061  17.212  0.1640 -0.1776 -0.5300
11994TIP3    H157473   6.219   5.017  17.178 -0.8868 -0.1893  1.7683
11994TIP3    H257474   6.351   4.990  17.248  0.6142 -0.0172 -0.8652
11995TIP3   OH257475   3.632   1.282  13.045  0.0858  0.4831 -0.0755
11995TIP3    H157476   3.567   1.264  13.114  0.8831  0.2985  0.6461
11995TIP3    H257477   3.581   1.282  12.964 -0.3493 -3.4239 -0.0041
11996TIP3   OH257478   3.311   6.688  13.557  0.1161 -0.1734  0.4519
11996TIP3    H157479   3.329   6.695  13.463  1.0851  0.2419  0.6560
11996TIP3    H257480   3.308   6.594  13.574  1.0612 -0.2506  0.2065
11997TIP3   OH257481   1.709   1.065   3.152 -0.2375 -0.2325 -0.3562
11997TIP3    H157482   1.696   1.080   3.058  0.3187  0.6954 -0.2975
11997TIP3    H257483   1.804   1.064   3.164 -0.2673  1.7365  0.4752
11998TIP3   OH257484   5.545   1.276   5.443 -0.1785  0.3488 -0.2253
11998TIP3    H157485   5.562   1.200   5.387 -2.9481  0.3068 -1.1335
11998TIP3    H257486   5.602   1.262   5.519 -0.1724 -2.3543 -0.6226
11999TIP3   OH257487   3.070   4.521   1.235  0.1281  0.1086  1.0066
11999TIP3    H157488   3.107   4.435   1.251  1.1293  0.0398 -1.2163
11999TIP3    H257489   2.977   4.511   1.256  0.1982 -1.5577  0.6856
12000TIP3   OH257490   2.346   4.000  12.869 -0.2014 -0.2007  0.5870
12000TIP3    H157491   2.320   4.078  12.919 -1.0696  0.7799 -1.2835
12000TIP3    H257492   2.265   3.969  12.830  0.6302 -0.0424 -1.3768
12001TIP3   OH257493   6.179   0.811  13.638  0.1456 -0.1570  0.0418
12001TIP3    H157494   6.229   0.776  13.711  0.0182 -0.3978  0.0158
12001TIP3    H257495   6.137   0.734  13.599  1.1249 -0.1944 -0.9821
12002TIP3   OH257496   0.183   5.450   0.594  0.1569 -0.0930 -0.4380
12002TIP3    H157497   0.220   5.377   0.543  0.2724 -1.0995  1.0260
12002TIP3    H257498   0.234   5.450   0.675  0.0153  1.5136 -0.3199
12003TIP3   OH257499   3.296   3.294  11.336  0.1027  0.3224  0.1424
12003TIP3    H157500   3.313   3.269  11.245 -0.9636  0.8107 -0.2072
12003TIP3    H257501   3.378   3.276  11.382  0.7032  0.2125 -0.9482
12004TIP3   OH257502   5.824   2.888  16.318  0.5581 -0.0350  0.3677
12004TIP3    H157503   5.918   2.901  16.309  0.1692  1.4789 -2.3252
12004TIP3    H257504   5.798   2.949  16.387  1.5413 -0.8371  1.5166
12005TIP3   OH257505   1.534   4.684   2.716 -0.1371 -0.0596  0.4293
12005TIP3    H157506   1.514   4.718   2.803  0.6746  0.7281  0.3193
12005TIP3    H257507   1.613   4.631   2.728  0.1041  0.2280  0.1383
12006TIP3   OH257508   5.737   6.489  16.037  0.0008  0.0109  0.5749
12006TIP3    H157509   5.677   6.545  15.987 -0.5632 -0.5839  0.5704
12006TIP3    H257510   5.818   6.539  16.041  0.0831  0.0759 -0.9891
12007TIP3   OH257511   3.360   6.226   3.794 -0.2409 -0.7630 -0.1226
12007TIP3    H157512   3.355   6.143   3.842 -0.7890 -0.3587  0.5351
12007TIP3    H257513   3.443   6.265   3.821 -0.6683 -0.4155  0.7124
12008TIP3   OH257514   3.274   5.180   5.659  0.2970 -0.0474 -0.4107
12008TIP3    H157515   3.331   5.211   5.589 -0.2969 -0.1048 -0.9248
12008TIP3    H257516   3.288   5.085   5.661  0.6118  0.0028 -0.1819
12009TIP3   OH257517   2.603   0.180   1.843  0.1452  0.1329 -0.2950
12009TIP3    H157518   2.597   0.216   1.754 -1.7571  1.4797  0.3070
12009TIP3    H257519   2.559   0.245   1.898  1.7012 -0.4343  1.7402
12010TIP3   OH257520   2.676   4.296   4.668 -0.0531 -0.0168 -0.4167
12010TIP3    H157521   2.741   4.226   4.659  0.3833  0.4701 -1.1526
12010TIP3    H257522   2.632   4.299   4.583  0.1872  0.8393 -0.5211
12011TIP3   OH257523   4.637   2.716  16.860 -0.0809 -0.2910 -0.1777
12011TIP3    H157524   4.628   2.755  16.774  0.8303 -2.7210 -1.4725
12011TIP3    H257525   4.590   2.632  16.854  1.2050 -1.1749  1.2059
12012TIP3   OH257526   1.609   0.553   1.834 -0.1489  0.3638 -0.1070
12012TIP3    H157527   1.597   0.501   1.755 -0.9576  1.1640 -0.5281
12012TIP3    H257528   1.524   0.547   1.879 -1.3368  3.6751 -1.6247
12013TIP3   OH257529   0.172   6.516   1.578 -0.3565  0.6510  0.1974
12013TIP3    H157530   0.232   6.578   1.619  0.5698  0.5080 -0.8750
12013TIP3    H257531   0.141   6.562   1.499 -0.0714 -0.0323 -0.3259
12014TIP3   OH257532   5.393   0.242   0.884  0.5749  0.2016 -0.0986
12014TIP3    H157533   5.398   0.335   0.901  0.9409  0.3068 -0.7235
12014TIP3    H257534   5.350   0.235   0.798  3.2392 -0.0163 -1.5259
12015TIP3   OH257535   3.550   5.496  11.512  0.0029  0.1237 -0.5453
12015TIP3    H157536   3.530   5.560  11.580 -1.8850  0.5679 -1.4462
12015TIP3    H257537   3.603   5.430  11.556  1.2739  1.8315  0.6330
12016TIP3   OH257538   3.704   5.769  16.374  0.5473 -0.1243  0.1337
12016TIP3    H157539   3.725   5.680  16.348 -0.8762 -0.5771  0.4668
12016TIP3    H257540   3.659   5.760  16.459 -1.2741  0.7162 -0.6825
12017TIP3   OH257541   3.330   1.124   6.279  0.0434 -0.0105  0.5317
12017TIP3    H157542   3.388   1.197   6.303  0.4613  1.1836 -3.3452
12017TIP3    H257543   3.242   1.161   6.280 -0.0733 -0.2878  1.2149
12018TIP3   OH257544   5.352   2.601   3.674  0.3906  0.3665  0.1536
12018TIP3    H157545   5.266   2.631   3.704  0.0092 -1.5989  1.1954
12018TIP3    H257546   5.363   2.642   3.588 -0.5296  2.5106  0.9723
12019TIP3   OH257547   3.066   5.747   2.478  0.1917  0.0851  0.0554
12019TIP3    H157548   3.012   5.693   2.420  1.0167 -0.0980 -0.5766
12019TIP3    H257549   3.139   5.774   2.422  1.3306 -0.5929  1.1614
12020TIP3   OH257550   0.264   5.147  16.792 -0.1526 -0.3492 -0.0261
12020TIP3    H157551   0.208   5.142  16.715  0.4358 -0.0737 -0.4829
12020TIP3    H257552   0.316   5.227  16.779  2.7811 -2.3121 -1.3395
12021TIP3   OH257553   5.729   2.198   4.146 -0.1066  0.3740  0.3920
12021TIP3    H157554   5.671   2.155   4.209  0.8869 -2.3245 -0.3982
12021TIP3    H257555   5.817   2.180   4.179  0.4603 -1.5339 -1.9059
12022TIP3   OH257556   4.624   6.716  11.248 -0.8458 -0.0733 -0.8234
12022TIP3    H157557   4.652   6.799  11.287 -0.8557  0.2350 -1.4642
12022TIP3    H257558   4.705   6.666  11.236 -0.6828  0.4071 -1.7313
12023TIP3   OH257559   1.028   1.173   5.303  0.6231 -0.2408  0.7647
12023TIP3    H157560   1.060   1.106   5.364 -0.8176 -1.4503  0.2548
12023TIP3    H257561   0.936   1.149   5.288  0.7947  0.3313 -1.4671
12024TIP3   OH257562   6.257   0.464   0.654  0.1164 -0.3266 -0.7660
12024TIP3    H157563   6.209   0.415   0.721 -0.1913 -0.1419 -0.8457
12024TIP3    H257564   6.243   0.414   0.574 -0.3018 -0.0508 -0.8719
12025TIP3   OH257565   0.088   5.453  11.041 -0.1034  0.0605  0.1607
12025TIP3    H157566   0.068   5.431  10.950  0.2164 -2.4685  0.6217
12025TIP3    H257567   0.126   5.541  11.036  0.5107 -0.2514 -2.2308
12026TIP3   OH257568   5.942   5.903  14.502  0.1822  0.2682 -0.0934
12026TIP3    H157569   5.991   5.854  14.436 -0.7217  0.4317 -0.9142
12026TIP3    H257570   5.891   5.966  14.451 -2.0079 -0.8627  0.5549
12027TIP3   OH257571   5.758   3.103   1.456  0.1595  0.3996 -0.3787
12027TIP3    H157572   5.838   3.104   1.403  1.0176  1.4394  0.8875
12027TIP3    H257573   5.780   3.153   1.535 -0.6582 -2.1392  1.5888
12028TIP3   OH257574   6.608   3.736   1.282 -0.1458  0.1852 -0.0896
12028TIP3    H157575   6.587   3.673   1.350  3.3070 -2.2719 -1.0500
12028TIP3    H257576   6.619   3.683   1.203 -0.2752  2.4476 -1.7141
12029TIP3   OH257577   1.546   5.581   5.485 -0.2135 -0.1341  0.2357
12029TIP3    H157578   1.552   5.497   5.440 -1.7261 -0.3988  0.4820
12029TIP3    H257579   1.579   5.564   5.573 -1.5413 -0.7639  0.6293
12030TIP3   OH257580   0.657   6.452   1.932 -0.1712 -0.7867 -0.5216
12030TIP3    H157581   0.712   6.520   1.971 -1.2951  0.4173 -0.9613
12030TIP3    H257582   0.667   6.377   1.991  2.6207 -0.9545 -1.0685
12031TIP3   OH257583   1.120   1.105  14.924  0.3529  0.0844  0.3763
12031TIP3    H157584   1.175   1.079  14.850  1.4532  0.3036  1.0895
12031TIP3    H257585   1.145   1.046  14.995 -0.5592 -0.0049  0.6328
12032TIP3   OH257586   0.637   2.377  17.006  0.3042 -0.1614  0.4439
12032TIP3    H157587   0.668   2.421  16.927  1.3788 -1.0452  0.3415
12032TIP3    H257588   0.544   2.398  17.011  0.4418  0.7309 -0.5023
12033TIP3   OH257589   4.832   3.330   0.189 -0.1872 -0.1214 -0.1267
12033TIP3    H157590   4.903   3.356   0.130  0.9165  0.1472  1.2809
12033TIP3    H257591   4.753   3.338   0.135  0.7519  0.3301 -1.5006
12034TIP3   OH257592   1.809   2.655   6.034  0.0650 -0.2433 -0.5479
12034TIP3    H157593   1.766   2.705   6.104 -0.1839 -0.1511 -0.7649
12034TIP3    H257594   1.863   2.590   6.080 -1.6271 -1.5152 -0.2574
12035TIP3   OH257595   2.138   2.370  14.091  0.1805  0.1165 -0.0204
12035TIP3    H157596   2.199   2.423  14.142 -0.6299  0.7255  0.3494
12035TIP3    H257597   2.190   2.335  14.019  1.4881 -1.2144  1.5043
12036TIP3   OH257598   4.915   5.459   0.868 -0.2318  0.0939 -0.2222
12036TIP3    H157599   4.980   5.507   0.920  0.5721 -1.2943  0.1053
12036TIP3    H257600   4.876   5.525   0.812  1.4765  0.9827 -0.4233
12037TIP3   OH257601   1.281   0.643   0.797  0.5259 -0.3909  0.0344
12037TIP3    H157602   1.336   0.577   0.839 -0.4475 -0.4947  1.2154
12037TIP3    H257603   1.294   0.722   0.850  0.6461 -0.0156 -0.5518
12038TIP3   OH257604   2.781   4.092   5.852 -0.0609 -0.7004  0.8592
12038TIP3    H157605   2.757   4.022   5.912 -0.5656 -0.7333  0.6170
12038TIP3    H257606   2.742   4.171   5.890 -1.5492 -0.9299 -0.1266
12039TIP3   OH257607   4.269   2.759   4.212  0.6333  0.4055  0.0123
12039TIP3    H157608   4.204   2.707   4.258  0.1274  2.4792  1.8123
12039TIP3    H257609   4.352   2.712   4.225  0.0376 -0.5001  0.6091
12040TIP3   OH257610   3.956   6.147  14.487 -0.8347  0.3041  0.5971
12040TIP3    H157611   3.906   6.074  14.523  1.8509 -2.0442 -0.0183
12040TIP3    H257612   3.982   6.118  14.400  0.5903  1.8617  0.4425
12041TIP3   OH257613   6.626   0.484   3.946 -0.3426  0.4371  0.0567
12041TIP3    H157614   6.562   0.416   3.928 -1.5321  1.5833 -0.2077
12041TIP3    H257615   6.632   0.534   3.865  1.4178 -0.0254 -0.1493
12042TIP3   OH257616   6.661   4.284  12.570  0.3233  0.5162  0.0685
12042TIP3    H157617   6.570   4.264  12.549  0.9143 -1.3111 -1.0325
12042TIP3    H257618   6.711   4.248  12.496  1.8953  2.2348  0.2313
12043TIP3   OH257619   4.569   1.709  15.257  0.1798 -0.0772 -0.8119
12043TIP3    H157620   4.504   1.773  15.229  0.4093  1.4107  1.7831
12043TIP3    H257621   4.522   1.626  15.258 -1.1461  0.6453 -0.7692
12044TIP3   OH257622   6.147   2.578   1.754 -0.0597  0.4637  0.5420
12044TIP3    H157623   6.072   2.626   1.719 -0.1394 -0.3991 -0.5505
12044TIP3    H257624   6.156   2.608   1.844 -1.4348  0.9175  0.5498
12045TIP3   OH257625   1.832   2.934  13.652  0.3478  0.5970 -0.3317
12045TIP3    H157626   1.884   2.854  13.647  0.2694  0.4690  0.6683
12045TIP3    H257627   1.756   2.916  13.598  1.2132  0.7041 -1.6367
12046TIP3   OH257628   0.745   3.529  11.653  0.1662  0.2662 -0.3443
12046TIP3    H157629   0.738   3.614  11.611  5.1445  0.7810 -0.7446
12046TIP3    H257630   0.769   3.469  11.583  1.8006 -0.2917  0.6184
12047TIP3   OH257631   1.594   2.328   5.273 -0.2878  0.0729  0.3089
12047TIP3    H157632   1.629   2.273   5.344 -0.6390 -1.7529 -0.8624
12047TIP3    H257633   1.576   2.412   5.315 -3.1995 -1.7067  3.1762
12048TIP3   OH257634   5.903   4.789   4.315  0.5464  0.2049 -0.0586
12048TIP3    H157635   5.932   4.881   4.316 -1.4543  0.8754  0.1137
12048TIP3    H257636   5.940   4.754   4.234  0.5895  1.4373 -0.6040
12049TIP3   OH257637   5.223   5.274   5.482 -0.1701  0.4545 -0.0731
12049TIP3    H157638   5.249   5.320   5.562  1.2239 -1.3520  0.5900
12049TIP3    H257639   5.180   5.194   5.514  0.4864 -0.3431 -1.1060
12050TIP3   OH257640   3.361   3.380  16.947 -0.3459 -0.4446  0.6815
12050TIP3    H157641   3.342   3.365  17.040  0.7102  0.8433  1.1330
12050TIP3    H257642   3.328   3.468  16.930  1.2441  0.1177  0.3756
12051TIP3   OH257643   3.696   3.720   1.461 -0.8787 -0.3759  0.1570
12051TIP3    H157644   3.686   3.798   1.516 -0.2297  0.1062 -0.3940
12051TIP3    H257645   3.771   3.674   1.498 -0.0021  0.3074 -0.7205
12052TIP3   OH257646   0.488   2.400   4.574 -0.5238  0.2292 -0.6563
12052TIP3    H157647   0.472   2.365   4.662  2.0481  0.1057 -0.1632
12052TIP3    H257648   0.414   2.459   4.558 -1.6222 -0.5806  1.1238
12053TIP3   OH257649   4.476   3.775   4.634  0.5273  0.4162 -0.0179
12053TIP3    H157650   4.425   3.856   4.632  0.6480  0.6011  2.1532
12053TIP3    H257651   4.447   3.727   4.556 -1.1203  1.6094 -0.1964
12054TIP3   OH257652   1.592   4.541   1.673  0.9988 -0.0939 -0.3818
12054TIP3    H157653   1.592   4.518   1.766  3.0591 -0.5544 -0.4491
12054TIP3    H257654   1.617   4.459   1.629  4.0055  1.0195 -0.9814
12055TIP3   OH257655   6.071   6.132   4.182 -0.2721  0.3697  0.5032
12055TIP3    H157656   6.149   6.183   4.203  2.0170 -1.5341 -2.5631
12055TIP3    H257657   6.065   6.068   4.252  1.3303  0.1457  0.4725
12056TIP3   OH257658   1.735   2.271   0.547 -0.1445 -0.4097 -0.0953
12056TIP3    H157659   1.660   2.270   0.489 -1.6246 -0.7302  1.7298
12056TIP3    H257660   1.700   2.296   0.633  2.1240  1.2498  0.4753
12057TIP3   OH257661   3.193   3.881   4.602 -0.7579 -0.1217 -0.1852
12057TIP3    H157662   3.140   3.954   4.633 -1.3254 -0.4358 -0.4193
12057TIP3    H257663   3.281   3.901   4.635 -0.9252  0.6089 -0.1507
12058TIP3   OH257664   1.966   6.727  17.179  0.4736 -0.9743 -0.8003
12058TIP3    H157665   2.039   6.789  17.183 -0.8901  0.7146 -0.8649
12058TIP3    H257666   1.953   6.699  17.270 -0.2663  0.5462 -0.4104
12059TIP3   OH257667   5.681   4.447  16.189  0.1927  0.6187  0.3548
12059TIP3    H157668   5.645   4.500  16.118  0.0782  0.6603  0.4433
12059TIP3    H257669   5.710   4.367  16.146 -0.9900  0.1212  0.4310
12060TIP3   OH257670   2.166   6.113  15.816  0.3651  0.0215 -0.4038
12060TIP3    H157671   2.195   6.023  15.803  3.0326  0.8768 -1.1789
12060TIP3    H257672   2.239   6.155  15.861 -0.9577  1.7321  0.2553
12061TIP3   OH257673   2.813   6.743   0.813  0.2368 -0.2534 -0.2927
12061TIP3    H157674   2.838   6.655   0.843 -1.2827 -0.1275  1.5737
12061TIP3    H257675   2.869   6.759   0.738  0.1591 -3.0646 -1.0861
12062TIP3   OH257676   3.574   6.273   3.469  0.1444 -0.1621  0.4042
12062TIP3    H157677   3.614   6.304   3.550 -1.1021  1.5176  0.4232
12062TIP3    H257678   3.562   6.352   3.416  0.6335 -1.1729 -1.3055
12063TIP3   OH257679   0.255   6.549   5.928 -0.1929 -0.3313 -0.1856
12063TIP3    H157680   0.252   6.527   6.021  0.1550 -0.2877 -0.1637
12063TIP3    H257681   0.335   6.507   5.896 -1.3521 -2.1168 -0.9280
12064TIP3   OH257682   2.837   4.644  14.791 -0.2795  0.1647  0.1401
12064TIP3    H157683   2.772   4.707  14.821 -0.6182 -0.8822  1.7177
12064TIP3    H257684   2.913   4.698  14.767 -1.3241  1.3188 -0.7506
12065TIP3   OH257685   3.459   2.965   0.606 -0.4270  0.1672  0.2782
12065TIP3    H157686   3.550   2.984   0.583 -0.1174 -0.7589  0.6866
12065TIP3    H257687   3.407   3.030   0.558  0.3236 -0.3750 -1.2978
12066TIP3   OH257688   4.860   2.054  15.890 -0.2304  0.1717 -0.4722
12066TIP3    H157689   4.904   2.139  15.894  1.4325 -0.4864 -2.9099
12066TIP3    H257690   4.907   2.001  15.955  0.2423  0.4834 -0.5508
12067TIP3   OH257691   4.246   0.561   4.507  0.6975 -0.4113 -0.2837
12067TIP3    H157692   4.209   0.617   4.575  0.8754  1.4406 -1.6268
12067TIP3    H257693   4.172   0.540   4.450  0.7595 -1.0433 -0.1474
12068TIP3   OH257694   3.559   1.534   1.298  0.0936 -0.2223 -0.3600
12068TIP3    H157695   3.553   1.517   1.393  0.2087  0.7193 -0.1742
12068TIP3    H257696   3.478   1.497   1.263 -0.5765  0.5490  0.3006
12069TIP3   OH257697   0.827   2.622   0.578 -0.5700  0.1824  1.3793
12069TIP3    H157698   0.884   2.553   0.612 -1.1111 -0.9137  0.1886
12069TIP3    H257699   0.738   2.591   0.599 -0.8667 -0.0438 -0.0918
12070TIP3   OH257700   3.964   4.141  15.909 -0.4577 -0.1867  0.2090
12070TIP3    H157701   3.994   4.185  15.830 -0.7566  0.0588  0.2291
12070TIP3    H257702   4.040   4.094  15.941 -0.0376  0.6079  0.3903
12071TIP3   OH257703   6.670   1.899  12.191 -0.1169  0.1450 -0.1161
12071TIP3    H157704   6.737   1.886  12.123  0.7179  0.2313  0.6779
12071TIP3    H257705   6.704   1.853  12.267 -1.3119 -0.4281  0.1031
12072TIP3   OH257706   0.875   1.428   2.251  0.5218  0.5068  0.3722
12072TIP3    H157707   0.942   1.365   2.223  0.2503  0.7851 -1.0121
12072TIP3    H257708   0.792   1.382   2.238  0.3729  0.7384  0.4977
12073TIP3   OH257709   0.892   3.207   5.926  0.1665 -0.4787 -0.1245
12073TIP3    H157710   0.930   3.189   5.840 -0.7989  2.0983 -1.1896
12073TIP3    H257711   0.805   3.169   5.921  0.3364 -0.8868 -0.0340
12074TIP3   OH257712   6.585   6.047   6.102  0.0479  0.0696  0.3321
12074TIP3    H157713   6.539   6.055   6.018 -0.3909 -1.0804  0.4347
12074TIP3    H257714   6.526   6.088   6.166 -0.8727 -1.3295  0.4506
12075TIP3   OH257715   4.667   1.460   0.486 -0.1238 -0.5104 -0.0390
12075TIP3    H157716   4.598   1.397   0.504 -0.9139  0.9542  2.6873
12075TIP3    H257717   4.737   1.438   0.547 -0.3053  1.0027  0.7788
12076TIP3   OH257718   3.116   6.102   6.730 -0.0092 -0.2332  0.4863
12076TIP3    H157719   3.030   6.122   6.693  0.5831 -0.8160 -1.3564
12076TIP3    H257720   3.098   6.060   6.814 -1.5237 -0.4965  0.0493
12077TIP3   OH257721   4.845   4.663   2.423  0.6557  0.0122  0.3369
12077TIP3    H157722   4.791   4.629   2.494 -1.0499 -0.9127 -1.3345
12077TIP3    H257723   4.811   4.622   2.344 -1.1867  4.9443 -1.8621
12078TIP3   OH257724   5.551   5.124  16.200 -0.2073  0.3603  0.3864
12078TIP3    H157725   5.639   5.137  16.237 -0.6615  1.5138  1.1081
12078TIP3    H257726   5.564   5.134  16.105  0.2642  1.6824  0.5700
12079TIP3   OH257727   3.372   6.268   0.324 -0.3407 -0.4081 -0.1525
12079TIP3    H157728   3.427   6.308   0.390 -1.8044 -0.8895  1.4213
12079TIP3    H257729   3.305   6.334   0.305 -0.8100 -0.8347 -0.0106
12080TIP3   OH257730   0.065   3.436   3.091 -0.5619 -0.6730 -0.3772
12080TIP3    H157731   0.058   3.527   3.122  0.0835 -0.5906 -0.4809
12080TIP3    H257732   0.110   3.391   3.162  1.0846 -0.4497 -1.2501
12081TIP3   OH257733   0.611   4.397  16.436 -0.1911 -0.1082 -0.4199
12081TIP3    H157734   0.584   4.305  16.430  0.8243 -0.4446  0.0006
12081TIP3    H257735   0.600   4.418  16.529 -1.1198  0.4258 -0.6426
12082TIP3   OH257736   3.358   6.594  17.115 -0.6513  0.4213  0.3303
12082TIP3    H157737   3.317   6.541  17.183  0.5926 -0.3514  0.5206
12082TIP3    H257738   3.308   6.676  17.114 -1.8820 -0.3076  0.8316
12083TIP3   OH257739   5.823   4.700   5.210  0.3826 -0.3140 -0.0865
12083TIP3    H157740   5.906   4.746   5.197 -0.6817  1.5769 -0.6325
12083TIP3    H257741   5.807   4.707   5.304  0.0710  0.7986 -0.2068
12084TIP3   OH257742   4.282   5.367   0.493 -0.7586 -0.1542 -0.1708
12084TIP3    H157743   4.331   5.443   0.524 -0.8613  0.4247 -1.3621
12084TIP3    H257744   4.316   5.294   0.544  2.2937 -0.0326 -1.7991
12085TIP3   OH257745   1.060   4.083   3.032  0.2636 -0.0036  0.3023
12085TIP3    H157746   1.139   4.029   3.042  1.5778  1.8288  0.3117
12085TIP3    H257747   1.082   4.144   2.962 -0.9284  0.9496  0.7274
12086TIP3   OH257748   2.682   5.297   5.918  1.0109  0.1437 -0.1358
12086TIP3    H157749   2.683   5.393   5.923  0.0652  0.1357  0.7003
12086TIP3    H257750   2.723   5.277   5.835  1.1098  1.2885 -0.3843
12087TIP3   OH257751   1.676   2.676   4.784 -0.0736 -0.4447 -0.5477
12087TIP3    H157752   1.627   2.684   4.866  1.9495 -0.6958  0.7783
12087TIP3    H257753   1.705   2.765   4.765  0.3694 -0.5424 -0.3577
12088TIP3   OH257754   2.338   5.789  13.079  0.4243  0.5709  0.1688
12088TIP3    H157755   2.291   5.872  13.066 -1.0389 -0.1908  0.3987
12088TIP3    H257756   2.425   5.805  13.042 -1.0890  0.9263 -3.6128
12089TIP3   OH257757   4.596   1.368  11.908  0.2743  0.6722 -0.5374
12089TIP3    H157758   4.544   1.371  11.988  2.2504  0.3275  0.8635
12089TIP3    H257759   4.684   1.395  11.937  0.9006  1.1400 -2.7334
12090TIP3   OH257760   4.045   3.939   2.971 -0.0909  0.0273 -0.3230
12090TIP3    H157761   3.990   3.893   3.034 -1.3637  1.2681 -0.4785
12090TIP3    H257762   4.134   3.924   3.001 -0.6675  1.1115  2.1868
12091TIP3   OH257763   1.096   1.454   6.168  0.1224  0.0679 -0.4069
12091TIP3    H157764   1.099   1.453   6.263  0.1489 -0.4618 -0.4102
12091TIP3    H257765   1.176   1.499   6.141  0.8689 -1.1151 -0.2071
12092TIP3   OH257766   4.508   0.583  14.984  0.2610  0.4052  0.0321
12092TIP3    H157767   4.512   0.594  15.079  0.0550  1.7467 -0.1003
12092TIP3    H257768   4.528   0.491  14.970 -0.1643  0.0806  1.4093
12093TIP3   OH257769   5.927   5.959   3.375  0.2766  0.3253 -0.3708
12093TIP3    H157770   5.953   5.942   3.466  1.3461 -0.4310 -0.7966
12093TIP3    H257771   6.003   5.932   3.323 -0.4983  0.2925 -1.5238
12094TIP3   OH257772   5.728   4.619   1.983 -0.3895  0.2426 -0.3027
12094TIP3    H157773   5.774   4.575   2.055  0.5923  0.9312 -0.4889
12094TIP3    H257774   5.746   4.564   1.907  0.3797  0.6503 -0.4283
12095TIP3   OH257775   4.253   4.596  14.970  0.7682  0.1913 -0.1321
12095TIP3    H157776   4.240   4.689  14.988  0.6469 -0.1714  1.8365
12095TIP3    H257777   4.311   4.595  14.893 -0.2133  1.8633 -0.9541
12096TIP3   OH257778   6.306   5.831  15.182  0.0799  0.5898 -0.6750
12096TIP3    H157779   6.372   5.762  15.175  0.4396  0.8629 -0.0656
12096TIP3    H257780   6.355   5.912  15.193 -0.2723  1.3204 -3.7232
12097TIP3   OH257781   5.103   0.637   2.675  0.5523  0.4263  0.2403
12097TIP3    H157782   5.018   0.595   2.688 -0.3631  1.7864 -0.9960
12097TIP3    H257783   5.145   0.634   2.761 -0.3862 -1.0185  0.6686
12098TIP3   OH257784   4.758   6.564  16.376  0.0859 -0.4607 -0.0237
12098TIP3    H157785   4.811   6.528  16.447 -1.0785 -1.0535  0.5893
12098TIP3    H257786   4.757   6.495  16.310 -1.8532 -1.5145  0.9996
12099TIP3   OH257787   6.819   2.612   5.493  0.4636 -0.8632 -0.2727
12099TIP3    H157788   6.841   2.696   5.534 -0.4960 -0.6897 -0.0699
12099TIP3    H257789   6.838   2.625   5.400  0.6114 -0.5256 -0.1963
12100TIP3   OH257790   0.723   5.303   5.172  0.3184  0.2624 -0.4498
12100TIP3    H157791   0.654   5.368   5.159 -2.1659 -2.3907 -1.3040
12100TIP3    H257792   0.739   5.305   5.267 -2.0424 -0.0604  0.0185
12101TIP3   OH257793   4.147   4.314   6.171 -0.1934 -0.4910 -0.2027
12101TIP3    H157794   4.173   4.236   6.221 -1.0406 -2.0065 -2.0064
12101TIP3    H257795   4.217   4.325   6.106  0.7032  1.2361  0.9587
12102TIP3   OH257796   2.256   5.879   2.885 -0.3348  0.0965 -0.0584
12102TIP3    H157797   2.314   5.908   2.955  0.3542 -3.3029  0.9536
12102TIP3    H257798   2.213   5.802   2.919  1.2916 -2.8129 -3.7890
12103TIP3   OH257799   1.482   1.879   3.413  0.6496  0.3764 -0.4111
12103TIP3    H157800   1.495   1.955   3.355  0.9157 -0.5318 -1.5948
12103TIP3    H257801   1.397   1.844   3.387  1.1734 -0.5734 -0.9142
12104TIP3   OH257802   6.522   6.596  11.838  0.3368 -0.0199  0.9830
12104TIP3    H157803   6.534   6.690  11.822  0.9579 -0.0983  0.9565
12104TIP3    H257804   6.520   6.557  11.751  0.6221 -0.0951  1.0105
12105TIP3   OH257805   6.655   0.502  13.598  0.1106 -0.2229 -0.1159
12105TIP3    H157806   6.615   0.421  13.564  0.6920 -0.0610 -1.2240
12105TIP3    H257807   6.743   0.476  13.625 -0.4702 -0.4334  1.6979
12106TIP3   OH257808   5.602   5.645  14.496 -0.4571 -0.1045 -0.3566
12106TIP3    H157809   5.657   5.698  14.553  2.6923 -2.3787 -0.9801
12106TIP3    H257810   5.538   5.605  14.555  0.8429 -0.1054  1.1344
12107TIP3   OH257811   1.504   6.603   3.491  0.3791 -0.0304  0.9892
12107TIP3    H157812   1.440   6.533   3.498  0.8706 -0.6801 -0.5247
12107TIP3    H257813   1.585   6.564   3.526  0.4894 -0.0066  0.7639
12108TIP3   OH257814   2.602   2.597  17.063 -0.0661  0.1559 -0.1102
12108TIP3    H157815   2.590   2.558  16.976  2.3930  0.3334 -0.5954
12108TIP3    H257816   2.641   2.528  17.116  0.7451  0.7893  0.1353
12109TIP3   OH257817   5.939   0.629  11.258 -1.0068 -0.5490  0.2360
12109TIP3    H157818   5.929   0.565  11.187 -2.4572  0.1876 -0.2759
12109TIP3    H257819   6.025   0.668  11.244 -1.5615  0.1245 -1.6254
12110TIP3   OH257820   0.954   2.550  11.857  0.6037  0.3335  0.0353
12110TIP3    H157821   1.044   2.568  11.884  0.2527  2.5495 -0.1550
12110TIP3    H257822   0.901   2.571  11.934  0.2735 -2.4237  0.6883
12111TIP3   OH257823   3.323   5.919  11.567  0.5354  0.2628 -0.4415
12111TIP3    H157824   3.372   5.841  11.591 -0.3119 -0.4961 -1.1122
12111TIP3    H257825   3.231   5.891  11.568  0.1849  1.3707 -0.2511
12112TIP3   OH257826   3.675   2.047   0.931 -0.3076  0.2738  0.0145
12112TIP3    H157827   3.612   2.020   0.864 -0.2163  0.9903 -0.3777
12112TIP3    H257828   3.677   2.143   0.924  0.1887  0.3127  0.6054
12113TIP3   OH257829   4.749   2.967  16.059  0.2022 -0.1650  0.1340
12113TIP3    H157830   4.833   3.002  16.027 -0.4277 -0.5685 -2.1777
12113TIP3    H257831   4.707   3.042  16.102  1.1346  0.4548 -0.0068
12114TIP3   OH257832   1.141   0.640  15.276  0.5706  0.4795 -0.1088
12114TIP3    H157833   1.083   0.594  15.336 -0.7692 -0.4206 -1.9839
12114TIP3    H257834   1.214   0.580  15.260  1.3121  1.0166  1.1178
12115TIP3   OH257835   1.968   1.078   3.212  0.3188 -0.3427 -0.2502
12115TIP3    H157836   1.972   1.055   3.305 -3.6727  0.6696  0.3493
12115TIP3    H257837   2.024   1.155   3.205  0.9763 -0.6459  1.2314
12116TIP3   OH257838   6.236   5.201  12.677  0.1896  0.9831  0.2012
12116TIP3    H157839   6.181   5.206  12.755  0.4988  0.6513  0.4445
12116TIP3    H257840   6.202   5.270  12.619 -2.3102 -0.9492 -0.8278
12117TIP3   OH257841   0.557   5.339  12.969  0.6947 -0.9318  0.0051
12117TIP3    H157842   0.601   5.259  12.998  1.7440 -0.1468  0.6648
12117TIP3    H257843   0.496   5.360  13.039 -0.3632 -1.7083 -0.6510
12118TIP3   OH257844   2.459   6.643   6.020  0.6966 -0.3415 -0.0095
12118TIP3    H157845   2.407   6.605   6.091 -1.1493 -0.4749 -1.3736
12118TIP3    H257846   2.546   6.654   6.058  0.1357 -1.7279  1.8284
12119TIP3   OH257847   3.930   3.686   5.229  0.0718 -0.4118  0.9145
12119TIP3    H157848   3.834   3.686   5.230  0.0615 -0.3423  0.1239
12119TIP3    H257849   3.953   3.600   5.193  0.3073 -0.2896  0.7791
12120TIP3   OH257850   3.391   4.180  11.740 -0.1569  0.4904 -0.2458
12120TIP3    H157851   3.391   4.272  11.713 -2.1656  1.4594  2.4996
12120TIP3    H257852   3.303   4.148  11.718  0.6554 -0.9810 -1.5688
12121TIP3   OH257853   2.709   4.437   5.336  0.3247 -0.0516  0.4674
12121TIP3    H157854   2.742   4.512   5.385  0.2777  0.5157 -0.3506
12121TIP3    H257855   2.635   4.471   5.286  0.9895 -0.3644 -0.7717
12122TIP3   OH257856   6.515   3.949  12.856  0.2359 -0.0742 -0.5356
12122TIP3    H157857   6.446   3.968  12.920  0.9748  0.7367  0.0283
12122TIP3    H257858   6.467   3.925  12.776 -0.6978 -0.5098  0.1325
12123TIP3   OH257859   3.917   0.665  11.347 -0.2684  0.4262  0.0904
12123TIP3    H157860   3.910   0.759  11.331  0.3778  0.5867  0.7255
12123TIP3    H257861   3.896   0.654  11.440  1.9374  0.2393  0.6134
12124TIP3   OH257862   6.336   5.895  16.049 -0.0803  0.6819 -0.3635
12124TIP3    H157863   6.252   5.850  16.038  0.6537 -0.7028 -0.5602
12124TIP3    H257864   6.378   5.849  16.121  1.0005  0.5855 -1.0392
12125TIP3   OH257865   1.864   0.966  14.107  0.4079  0.2754 -0.0987
12125TIP3    H157866   1.782   1.003  14.138  0.2556 -1.6891  2.0826
12125TIP3    H257867   1.841   0.924  14.024 -0.6937  0.1602  0.2468
12126TIP3   OH257868   6.655   4.920   2.302 -0.2529 -0.0757  0.0509
12126TIP3    H157869   6.669   4.826   2.290 -0.8879 -0.3840  1.5583
12126TIP3    H257870   6.572   4.927   2.349 -0.0077  1.2189  0.3484
12127TIP3   OH257871   0.201   1.254  11.095 -0.4107 -0.1225  0.3973
12127TIP3    H157872   0.116   1.212  11.108 -0.0639 -0.2118  2.8713
12127TIP3    H257873   0.264   1.186  11.118  0.2183  0.8375  1.6438
12128TIP3   OH257874   6.114   6.686  14.154  0.1312 -0.1214 -0.3141
12128TIP3    H157875   6.169   6.633  14.213  2.1567  0.1621 -1.8445
12128TIP3    H257876   6.027   6.648  14.163  0.6528 -0.9808  1.7853
12129TIP3   OH257877   3.535   4.984   0.121 -0.2322  0.0013  0.3561
12129TIP3    H157878   3.579   5.069   0.126  0.9228 -0.4604 -1.2061
12129TIP3    H257879   3.477   4.991   0.045 -0.3854 -0.4958  0.4238
12130TIP3   OH257880   2.070   6.613  13.464  0.0385 -0.3586  0.1530
12130TIP3    H157881   2.118   6.542  13.421  2.0166  0.2587  1.1847
12130TIP3    H257882   2.096   6.692  13.417  0.0980 -0.0054  0.7679
12131TIP3   OH257883   2.550   2.834  16.742  0.2361  0.2802  0.0109
12131TIP3    H157884   2.537   2.913  16.689  0.1109  0.2163 -0.0548
12131TIP3    H257885   2.635   2.799  16.714 -0.2168 -0.2302 -0.7705
12132TIP3   OH257886   4.724   3.153   3.825  0.0043 -0.0583 -0.0345
12132TIP3    H157887   4.698   3.226   3.882 -0.4327  0.8178 -1.3123
12132TIP3    H257888   4.803   3.118   3.866  0.2045  1.1078  0.6340
12133TIP3   OH257889   5.080   4.999   0.904 -0.0655 -0.2845  0.0957
12133TIP3    H157890   5.001   4.947   0.885 -0.4691 -0.7028  2.5985
12133TIP3    H257891   5.149   4.934   0.915  0.4790  0.0371 -1.3060
12134TIP3   OH257892   0.132   2.757  14.586  0.7269  0.0449  0.1016
12134TIP3    H157893   0.166   2.757  14.497  3.8952  1.1597  1.1568
12134TIP3    H257894   0.121   2.665  14.608  1.5943 -0.3150 -0.8985
12135TIP3   OH257895   1.462   4.652  12.900 -0.8552  0.0171 -0.0005
12135TIP3    H157896   1.410   4.586  12.946 -1.6070  1.2427  0.9666
12135TIP3    H257897   1.399   4.696  12.842 -0.2437 -0.4583 -1.0655
12136TIP3   OH257898   1.656   4.149  13.428 -0.3678  0.2819 -0.1903
12136TIP3    H157899   1.653   4.180  13.337 -0.3067  1.8371  0.2962
12136TIP3    H257900   1.641   4.228  13.480  0.0910 -0.4965  1.1719
12137TIP3   OH257901   1.282   0.943   2.563  0.4429  0.2996 -0.1812
12137TIP3    H157902   1.220   1.015   2.569  1.7896  1.4184  0.8457
12137TIP3    H257903   1.263   0.888   2.639  2.3020  2.0238  1.6499
12138TIP3   OH257904   6.237   3.664   3.065 -0.2002  0.6538 -0.2885
12138TIP3    H157905   6.178   3.598   3.028  0.6066 -1.0718  1.3375
12138TIP3    H257906   6.286   3.696   2.989  0.7111 -2.0459 -0.9763
12139TIP3   OH257907   2.161   6.044   2.341  0.2033  0.7262 -0.1424
12139TIP3    H157908   2.204   6.106   2.400 -0.5851  1.2651 -0.1218
12139TIP3    H257909   2.209   6.050   2.259 -0.1915  1.7829 -0.3180
12140TIP3   OH257910   0.976   5.284  14.018  0.0778  0.1902  0.3543
12140TIP3    H157911   0.959   5.377  14.033 -1.5310  0.1064 -0.7258
12140TIP3    H257912   0.891   5.248  13.993  0.8727 -1.3830 -0.2006
12141TIP3   OH257913   2.354   0.092  13.241 -0.4427 -0.0940  0.2173
12141TIP3    H157914   2.422   0.059  13.299 -0.6823  0.3696  0.7700
12141TIP3    H257915   2.374   0.052  13.156  0.7688  0.3596  0.2629
12142TIP3   OH257916   5.650   6.366   0.053  0.3140 -0.0262 -0.0629
12142TIP3    H157917   5.589   6.369  -0.021  0.3657  1.2254 -0.0658
12142TIP3    H257918   5.601   6.320   0.121 -0.8167  1.2877  0.0576
12143TIP3   OH257919   3.241   2.999   3.881 -0.6992  0.2776  0.2341
12143TIP3    H157920   3.243   3.070   3.945  1.7473  0.1256  0.4212
12143TIP3    H257921   3.195   2.928   3.925 -0.4752  0.7238  1.2216
12144TIP3   OH257922   3.002   5.275   1.513 -0.1088 -0.1550  0.0257
12144TIP3    H157923   3.008   5.334   1.588 -0.5774 -2.8191  2.3211
12144TIP3    H257924   2.909   5.253   1.507  0.0879 -0.8660 -0.5700
12145TIP3   OH257925   0.910   5.451  16.598 -0.3190 -0.2081 -0.5774
12145TIP3    H157926   0.973   5.513  16.561  0.7224 -0.4061  0.7946
12145TIP3    H257927   0.943   5.365  16.572  1.5099 -0.4877  2.1840
12146TIP3   OH257928   2.025   2.724   0.780  0.5340  0.2061  0.6031
12146TIP3    H157929   2.087   2.784   0.738  3.3949 -2.1728  1.0117
12146TIP3    H257930   2.038   2.641   0.732 -1.2337 -0.7891  1.7627
12147TIP3   OH257931   6.736   5.517   5.402 -0.0413 -0.5379 -0.4259
12147TIP3    H157932   6.690   5.433   5.394 -0.7779 -0.2969  1.0190
12147TIP3    H257933   6.760   5.523   5.494  0.2976  0.6939 -0.5751
12148TIP3   OH257934   4.449   6.015   4.526  0.0157  0.4199 -0.2348
12148TIP3    H157935   4.429   5.958   4.453 -1.2652  0.7316 -0.1397
12148TIP3    H257936   4.392   6.091   4.514  1.9721  1.9344 -0.6214
12149TIP3   OH257937   5.048   3.784  13.599 -0.1811 -0.9395 -0.1756
12149TIP3    H157938   4.978   3.718  13.606 -1.5881  0.1200 -2.7096
12149TIP3    H257939   5.002   3.868  13.608  0.8888 -0.2214 -1.1902
12150TIP3   OH257940   0.623   2.925  11.704 -0.0106 -0.0924  0.1424
12150TIP3    H157941   0.703   2.976  11.687  0.0505 -0.0775  0.4757
12150TIP3    H257942   0.572   2.979  11.764 -1.5465  1.1770 -2.1561
12151TIP3   OH257943   2.588   2.169  14.728  0.4870  0.3233 -0.8204
12151TIP3    H157944   2.536   2.242  14.695  0.6018  0.9633  0.3508
12151TIP3    H257945   2.679   2.200  14.723  0.5489  0.2042 -0.4845
12152TIP3   OH257946   4.758   4.587   1.230  0.0876  0.4412 -0.0287
12152TIP3    H157947   4.835   4.631   1.268  0.4378  0.8640 -1.1848
12152TIP3    H257948   4.745   4.630   1.145 -0.7126 -0.4334 -0.3674
12153TIP3   OH257949   0.864   0.337  15.153  0.2493 -0.3035 -0.2649
12153TIP3    H157950   0.866   0.276  15.079  0.9619 -2.1553  1.1888
12153TIP3    H257951   0.815   0.290  15.221  0.3283  0.9940  0.7160
12154TIP3   OH257952   3.722   0.282  15.565  0.3367 -0.1898  0.7716
12154TIP3    H157953   3.809   0.313  15.538  0.7721 -0.8283  1.4210
12154TIP3    H257954   3.739   0.203  15.616 -0.6933 -1.0111 -0.0932
12155TIP3   OH257955   1.554   2.103  14.389 -0.6637  0.5784  0.2870
12155TIP3    H157956   1.610   2.177  14.368  0.5246 -0.0753  1.0156
12155TIP3    H257957   1.534   2.062  14.305 -0.8032  1.3533 -0.0570
12156TIP3   OH257958   1.804   1.375  14.881  0.4973 -0.1274 -0.3052
12156TIP3    H157959   1.764   1.448  14.928 -1.0557 -1.2679  0.2776
12156TIP3    H257960   1.733   1.311  14.872  2.0013 -1.9651  0.0730
12157TIP3   OH257961   3.799   0.135   3.104  0.5115 -0.4795 -0.3120
12157TIP3    H157962   3.803   0.220   3.060 -0.7152 -1.1003 -1.7366
12157TIP3    H257963   3.879   0.090   3.077  0.0067 -0.6629 -1.5832
12158TIP3   OH257964   0.376   2.192   1.978  0.1743 -0.1420 -0.0799
12158TIP3    H157965   0.319   2.180   1.902 -1.0005  0.0563  0.7458
12158TIP3    H257966   0.425   2.272   1.958 -1.8388  1.2796  0.3633
12159TIP3   OH257967   6.017   1.274   4.377  0.1733 -0.1108  0.3381
12159TIP3    H157968   5.944   1.268   4.315  0.8698 -0.3229 -0.4770
12159TIP3    H257969   6.096   1.267   4.322  0.8026 -0.2845  1.2451
12160TIP3   OH257970   4.026   4.408  14.640  0.9079 -0.3181 -0.0361
12160TIP3    H157971   4.115   4.376  14.627  0.8401  0.6050 -4.0597
12160TIP3    H257972   3.970   4.332  14.620  0.8182  0.0847 -1.4091
12161TIP3   OH257973   5.847   6.273   3.714  0.1914 -0.2942  0.4824
12161TIP3    H157974   5.835   6.192   3.765 -1.5920 -1.0900 -1.0454
12161TIP3    H257975   5.811   6.252   3.628 -2.3211  2.7435  0.6189
12162TIP3   OH257976   5.038   5.804  12.044 -0.0987 -0.4746  0.6104
12162TIP3    H157977   5.099   5.757  11.988 -0.4719  0.1427 -0.3416
12162TIP3    H257978   5.092   5.867  12.091  0.2827 -1.2956  1.2886
12163TIP3   OH257979   5.615   4.366   5.466 -0.3042  0.2550 -0.2188
12163TIP3    H157980   5.569   4.450   5.464 -1.0640 -0.1718 -1.1097
12163TIP3    H257981   5.649   4.355   5.377 -1.9078 -1.2797 -0.7013
12164TIP3   OH257982   6.623   0.779   2.006  0.3420  0.7020  0.4883
12164TIP3    H157983   6.600   0.857   1.957 -2.0628  2.3387  3.8090
12164TIP3    H257984   6.700   0.805   2.057  0.9946  0.0450 -0.1392
12165TIP3   OH257985   5.418   3.058  15.407  0.1805  0.5742 -0.6663
12165TIP3    H157986   5.451   3.098  15.488 -0.9446 -0.3536  0.2787
12165TIP3    H257987   5.455   2.969  15.408  0.2203  0.5806 -1.2246
12166TIP3   OH257988   5.689   4.562   3.729 -0.0278 -0.1765 -0.2045
12166TIP3    H157989   5.681   4.656   3.746 -0.7190 -0.4162  0.8791
12166TIP3    H257990   5.707   4.556   3.635 -0.8154  0.9927 -0.4475
12167TIP3   OH257991   0.995   2.889  17.275 -0.0426  0.4009 -0.1547
12167TIP3    H157992   1.054   2.850  17.211 -0.8810 -0.0291 -0.6883
12167TIP3    H257993   0.970   2.816  17.332  0.9873  0.8501  0.9249
12168TIP3   OH257994   1.704   0.954  15.969  0.5889  0.4496  0.3204
12168TIP3    H157995   1.775   0.935  16.030 -0.0143 -0.1448  0.8507
12168TIP3    H257996   1.637   0.997  16.023 -0.7343 -1.7361  0.5175
12169TIP3   OH257997   4.034   5.624   5.655  0.0660 -0.0900  0.0267
12169TIP3    H157998   4.015   5.679   5.731  0.2150  0.3622 -0.2596
12169TIP3    H257999   4.009   5.677   5.580  1.2357  0.0232 -0.3067
12170TIP3   OH258000   0.962   2.817  13.271  0.0968 -0.5717 -0.3691
12170TIP3    H158001   1.016   2.821  13.191  0.9274 -0.0618  0.2016
12170TIP3    H258002   0.928   2.728  13.272 -0.1313 -0.5139 -1.4276
12171TIP3   OH258003   0.142   3.487   5.292 -0.2751  0.1267  0.3582
12171TIP3    H158004   0.209   3.419   5.286 -0.7483 -0.2382 -1.4811
12171TIP3    H258005   0.177   3.550   5.354  0.8093 -1.0902  1.0317
12172TIP3   OH258006   1.943   2.177   3.681  0.2983  0.9823  0.3640
12172TIP3    H158007   1.897   2.260   3.695  0.1853  1.2480 -1.2897
12172TIP3    H258008   1.878   2.121   3.638  1.0760  0.8808 -0.7186
12173TIP3   OH258009   3.605   3.689   3.699  0.5912 -0.2175  0.3811
12173TIP3    H158010   3.558   3.744   3.636 -1.2340 -0.7604  1.1846
12173TIP3    H258011   3.651   3.751   3.756  0.0542  0.4037  0.1540
12174TIP3   OH258012   5.312   6.112  13.823 -0.9011 -0.3816  0.4056
12174TIP3    H158013   5.261   6.167  13.763 -0.6370  0.2850  0.7882
12174TIP3    H258014   5.246   6.070  13.879 -1.0833 -0.1828  0.3423
12175TIP3   OH258015   1.995   3.293   5.114 -0.2590 -0.1875  0.5632
12175TIP3    H158016   1.972   3.207   5.078  0.2300  0.2934 -0.9733
12175TIP3    H258017   1.937   3.303   5.190 -0.4431 -1.7869  0.6799
12176TIP3   OH258018   3.852   3.955  13.721  0.7404 -0.1562 -0.2250
12176TIP3    H158019   3.777   3.895  13.715  1.2768 -0.7689 -1.1569
12176TIP3    H258020   3.823   4.024  13.781 -1.2861  0.6366 -1.9699
12177TIP3   OH258021   6.579   1.106   1.990  0.1429 -0.5348  0.0727
12177TIP3    H158022   6.575   1.192   1.947 -0.6943  0.4535  1.9687
12177TIP3    H258023   6.507   1.057   1.950 -1.7869  0.9798  1.4372
12178TIP3   OH258024   0.257   4.005  11.451  0.1256  0.1784 -0.1563
12178TIP3    H158025   0.280   3.912  11.461  1.2543  0.5299  0.6386
12178TIP3    H258026   0.274   4.044  11.537 -1.4298  0.9162 -0.1497
12179TIP3   OH258027   0.811   6.012   2.943  0.4900 -0.4644  0.5473
12179TIP3    H158028   0.754   6.073   2.989  1.6788  1.3815 -0.3335
12179TIP3    H258029   0.900   6.043   2.960  1.2637 -2.9121  1.3759
12180TIP3   OH258030   0.824   2.669  14.587  0.3158  0.5732  0.1712
12180TIP3    H158031   0.892   2.613  14.626 -1.1519  0.4289  2.8135
12180TIP3    H258032   0.767   2.608  14.540  0.3603  0.2564  0.5221
12181TIP3   OH258033   3.242   4.649   4.850  0.6756  0.1514  0.2120
12181TIP3    H158034   3.218   4.574   4.796 -1.4841  0.7107  0.2880
12181TIP3    H258035   3.200   4.632   4.934 -1.0488  2.0368 -0.1924
12182TIP3   OH258036   4.868   3.055  16.434 -0.3902  0.2961 -0.3554
12182TIP3    H158037   4.881   3.107  16.513  0.2471 -0.3536 -0.0217
12182TIP3    H258038   4.908   3.107  16.364  0.8940 -0.0532  0.0927
12183TIP3   OH258039   1.320   0.461  13.318 -0.5874 -0.1306 -0.0919
12183TIP3    H158040   1.397   0.517  13.307 -0.8896  0.2808 -0.1383
12183TIP3    H258041   1.319   0.407  13.239 -0.4036 -0.0622 -0.1418
12184TIP3   OH258042   4.648   6.240   2.098  0.2188  0.2515  0.0099
12184TIP3    H158043   4.611   6.256   2.185 -0.4744  1.2416 -0.4531
12184TIP3    H258044   4.739   6.269   2.105  0.2700 -0.0112  0.4952
12185TIP3   OH258045   5.993   1.041  11.079 -0.0374  0.3929  0.3439
12185TIP3    H158046   5.943   1.063  11.001  0.1953 -3.4159 -1.0870
12185TIP3    H258047   5.931   1.052  11.151 -1.1555  1.2330 -0.7094
12186TIP3   OH258048   1.615   1.537   0.989  0.6224 -0.0335  0.5281
12186TIP3    H158049   1.621   1.495   1.074  0.2384 -2.6806 -0.6415
12186TIP3    H258050   1.706   1.544   0.959  0.9319  2.6740  1.8641
12187TIP3   OH258051   5.439   5.448   0.488  0.3924 -0.2498 -0.5940
12187TIP3    H158052   5.445   5.353   0.479  0.6712 -0.2839 -0.0974
12187TIP3    H258053   5.392   5.461   0.570  1.9773  0.0324  0.2940
12188TIP3   OH258054   3.361   1.058   2.551  0.0047  0.0513 -0.2740
12188TIP3    H158055   3.440   1.029   2.595 -0.3797  0.1795  0.5086
12188TIP3    H258056   3.311   1.106   2.617 -0.2119  0.9493 -1.0588
12189TIP3   OH258057   1.648   2.679   1.827 -0.2079 -0.0686  0.4189
12189TIP3    H158058   1.679   2.729   1.902  0.6513  1.2347 -0.7622
12189TIP3    H258059   1.589   2.738   1.781 -1.2075 -1.0692  0.3759
12190TIP3   OH258060   1.757   5.657   3.366  0.2213 -0.6908 -0.2441
12190TIP3    H158061   1.751   5.616   3.453 -1.5165 -0.4990 -0.2304
12190TIP3    H258062   1.670   5.644   3.328 -0.1056  2.1056 -0.6434
12191TIP3   OH258063   5.116   6.035   5.026 -0.8872 -0.5003  0.4772
12191TIP3    H158064   5.044   5.980   4.997 -2.3740  0.6019  1.8594
12191TIP3    H258065   5.143   5.996   5.110 -0.1991 -0.6065  0.2141
12192TIP3   OH258066   5.379   1.972  14.157 -0.2461  0.0856  0.1223
12192TIP3    H158067   5.308   1.920  14.195 -0.2102  0.3193  0.5123
12192TIP3    H258068   5.390   2.046  14.217  0.2253  0.1319 -0.0162
12193TIP3   OH258069   5.782   6.129   0.256  0.4316  0.0477 -0.1804
12193TIP3    H158070   5.745   6.065   0.316  0.8747 -0.6252 -0.6117
12193TIP3    H258071   5.781   6.086   0.170 -0.9390  1.2882 -0.8388
12194TIP3   OH258072   4.545   0.482  10.150  0.5514 -0.3318 -0.1368
12194TIP3    H158073   4.452   0.496  10.129  0.2178 -1.8391  0.2021
12194TIP3    H258074   4.563   0.542  10.221  0.1217  0.7151 -0.8831
12195TIP3   OH258075   3.935   1.662   5.902  0.3982 -0.1233  0.0450
12195TIP3    H158076   3.981   1.585   5.937  3.3543  2.2163  1.9047
12195TIP3    H258077   3.872   1.685   5.970 -2.0186 -1.9555 -1.4420
12196TIP3   OH258078   2.607   2.622  14.342  0.2635  0.2739 -0.0701
12196TIP3    H158079   2.701   2.638  14.330  0.9416 -1.6212  1.9761
12196TIP3    H258080   2.580   2.683  14.410  0.5139 -0.4929  0.7366
12197TIP3   OH258081   3.412   6.438  16.908  0.2650  0.3195  0.2492
12197TIP3    H158082   3.384   6.488  16.984 -0.4516  0.5620 -0.1612
12197TIP3    H258083   3.410   6.346  16.937 -3.2664  0.0701 -0.3877
12198TIP3   OH258084   0.518   0.337  14.877 -0.0192  1.3235 -0.2047
12198TIP3    H158085   0.567   0.257  14.895 -0.7619  1.2057  1.5115
12198TIP3    H258086   0.469   0.319  14.797  0.8049  0.5467 -0.5531
12199TIP3   OH258087   3.677   5.287  11.654  0.1847 -0.3613  0.8124
12199TIP3    H158088   3.633   5.278  11.739  0.9133  2.3790  1.5881
12199TIP3    H258089   3.770   5.288  11.675  0.5499 -2.4635 -0.4157
12200TIP3   OH258090   2.960   1.130  14.855 -0.3476 -0.0355 -0.1287
12200TIP3    H158091   2.936   1.180  14.933 -1.1333 -0.8224  0.1499
12200TIP3    H258092   3.029   1.071  14.884 -2.0288 -1.7867  0.5482
12201TIP3   OH258093   1.101   4.356  10.731 -0.2986 -0.9126  0.0594
12201TIP3    H158094   1.108   4.327  10.822  1.6037 -0.5958  0.0482
12201TIP3    H258095   1.099   4.275  10.680 -0.0418 -1.0782  0.3107
12202TIP3   OH258096   4.845   6.775  16.765  0.2106  0.5365 -0.3784
12202TIP3    H158097   4.918   6.714  16.757 -0.3937 -0.2419 -0.1482
12202TIP3    H258098   4.853   6.834  16.690  1.0702  0.4608 -0.3486
12203TIP3   OH258099   0.011   6.112   4.676 -0.6163 -0.0509 -0.1019
12203TIP3    H158100   0.050   6.186   4.629 -1.2280 -0.1605 -0.7905
12203TIP3    H258101   0.084   6.051   4.689  0.3436  1.4480  2.1393
12204TIP3   OH258102   2.413   5.691  11.437 -0.3154 -0.1192 -0.1673
12204TIP3    H158103   2.422   5.748  11.361 -0.2478  1.4518  0.9691
12204TIP3    H258104   2.503   5.665  11.458 -0.3153 -0.3770 -0.4744
12205TIP3   OH258105   3.658   0.217  13.347  0.4351 -0.5116  0.1634
12205TIP3    H158106   3.656   0.306  13.380 -0.6527  0.4164 -2.1834
12205TIP3    H258107   3.567   0.187  13.351  0.8559 -1.7540  1.3966
12206TIP3   OH258108   0.303   1.385  11.345 -0.1605  0.4144 -0.0199
12206TIP3    H158109   0.319   1.450  11.277 -0.4082 -1.0772 -1.5873
12206TIP3    H258110   0.218   1.346  11.321  0.4016 -1.0934  0.3054
12207TIP3   OH258111   1.032   4.402  13.259 -0.4500 -0.4886  0.0783
12207TIP3    H158112   0.953   4.374  13.306  0.0056 -3.8497 -0.8744
12207TIP3    H258113   1.014   4.378  13.168  1.3775 -0.6481 -0.2636
12208TIP3   OH258114   1.384   5.123   2.335 -0.2561 -0.8086  0.6162
12208TIP3    H158115   1.341   5.136   2.251  0.3974  0.0773  0.4085
12208TIP3    H258116   1.325   5.066   2.384  0.1223 -2.7340 -1.0338
12209TIP3   OH258117   6.403   3.022   3.532  0.5669 -0.4529 -0.1320
12209TIP3    H158118   6.394   3.007   3.437 -0.5032 -1.2588  0.0745
12209TIP3    H258119   6.423   3.115   3.540 -0.5260 -0.1104 -1.1074
12210TIP3   OH258120   2.566   6.502  11.416  0.1055 -0.2408  0.0315
12210TIP3    H158121   2.648   6.456  11.394  0.0413 -2.1123  3.0325
12210TIP3    H258122   2.497   6.445  11.382  0.0668 -0.9125  1.1673
12211TIP3   OH258123   6.027   6.295   0.215 -0.1495  0.2788  0.5729
12211TIP3    H158124   5.962   6.225   0.204  0.0665  0.2253 -0.4499
12211TIP3    H258125   5.988   6.370   0.171  0.8077  0.0263 -0.7658
12212TIP3   OH258126   4.139   4.961  16.915 -0.2520  0.2182  1.1883
12212TIP3    H158127   4.233   4.976  16.907 -0.4875  1.3733  0.4683
12212TIP3    H258128   4.109   4.947  16.826 -1.0261  1.4976  1.2359
12213TIP3   OH258129   4.300   3.433   5.272 -0.1258  0.1766 -0.1090
12213TIP3    H158130   4.237   3.481   5.219 -1.6204 -0.0851  1.3472
12213TIP3    H258131   4.266   3.344   5.275  0.6792 -0.1321  0.1724
12214TIP3   OH258132   6.198   4.091   2.888 -0.1819 -0.3247  0.4106
12214TIP3    H158133   6.265   4.066   2.824  0.0597 -1.6556  1.1645
12214TIP3    H258134   6.126   4.123   2.834 -0.1199 -1.7573 -0.5856
12215TIP3   OH258135   5.364   5.912   1.070  0.5406  0.2514 -0.1182
12215TIP3    H158136   5.310   5.975   1.022 -0.2663 -1.0337 -0.9360
12215TIP3    H258137   5.377   5.840   1.009  2.6654  0.2133  0.2907
12216TIP3   OH258138   6.371   0.921   5.223  0.2644  0.1902  0.3269
12216TIP3    H158139   6.378   0.896   5.315 -0.1522 -1.4192 -0.0343
12216TIP3    H258140   6.451   0.888   5.182 -0.4210 -0.8839 -0.2182
12217TIP3   OH258141   4.654   3.020  13.346 -0.1819 -0.0997 -0.6174
12217TIP3    H158142   4.715   2.967  13.396  0.2500 -0.8842 -1.9168
12217TIP3    H258143   4.686   3.110  13.355  0.5114 -0.3679 -0.3738
12218TIP3   OH258144   0.944   2.909   5.227  0.2961 -0.2811 -0.3943
12218TIP3    H158145   0.957   3.003   5.210 -0.2852  0.2690  1.9115
12218TIP3    H258146   0.988   2.866   5.154  3.6475  1.6924  0.2257
12219TIP3   OH258147   1.408   2.184   5.146 -0.0386 -0.0263 -0.2349
12219TIP3    H158148   1.474   2.240   5.187 -1.2078  1.0377  0.2614
12219TIP3    H258149   1.365   2.141   5.220 -0.1566 -0.4190 -0.5301
12220TIP3   OH258150   2.762   0.966  17.196  0.3913 -0.2371  0.1523
12220TIP3    H158151   2.698   0.948  17.126  0.5892 -1.0374  0.1711
12220TIP3    H258152   2.847   0.948  17.155  0.6236  0.9439  0.0919
12221TIP3   OH258153   3.545   3.027   2.825  0.0066  0.2314  0.0075
12221TIP3    H158154   3.550   3.084   2.748  0.6100 -1.8061 -1.5674
12221TIP3    H258155   3.636   3.001   2.841 -0.0819  0.7707  1.5944
12222TIP3   OH258156   2.095   0.657  14.317 -0.6795  0.0768 -0.6088
12222TIP3    H158157   2.002   0.664  14.296 -0.2071  1.9887 -2.3568
12222TIP3    H258158   2.126   0.748  14.318  1.0729 -0.4784  0.5435
12223TIP3   OH258159   1.818   1.799  11.853 -0.1182 -0.6327  0.1019
12223TIP3    H158160   1.770   1.881  11.862  2.2044  0.6208  2.3026
12223TIP3    H258161   1.831   1.789  11.759  0.2199  1.9937 -0.2000
12224TIP3   OH258162   6.248   5.705  13.562  0.0805  0.3205 -0.1654
12224TIP3    H158163   6.318   5.692  13.497  2.1617 -0.6370  2.1152
12224TIP3    H258164   6.167   5.702  13.510  1.6692  2.7246 -3.1167
12225TIP3   OH258165   2.566   2.101   5.441 -0.4220  0.8243  0.9590
12225TIP3    H158166   2.647   2.090   5.491  1.0129 -0.8952 -1.4731
12225TIP3    H258167   2.508   2.151   5.498  1.0529 -0.9304  4.2123
12226TIP3   OH258168   2.913   4.846  14.096 -0.1307  0.2605  0.0097
12226TIP3    H158169   2.970   4.829  14.172  1.7975  1.6118 -1.0252
12226TIP3    H258170   2.965   4.904  14.041 -2.4382  1.2891 -1.2126
12227TIP3   OH258171   4.897   3.999   0.729  0.0759  0.1989  0.4829
12227TIP3    H158172   4.843   4.067   0.768 -1.2210  0.6320 -1.9324
12227TIP3    H258173   4.978   4.043   0.705 -0.0986  0.4885  0.4282
12228TIP3   OH258174   2.554   1.368   5.170 -0.4695 -0.5332  0.2094
12228TIP3    H158175   2.510   1.299   5.121 -2.0255  0.4379  0.1919
12228TIP3    H258176   2.531   1.449   5.125 -0.1790  0.1788  1.2880
12229TIP3   OH258177   5.719   4.622  12.164 -0.0573  0.0247 -0.3024
12229TIP3    H158178   5.706   4.527  12.174  0.7669  0.1047  2.0423
12229TIP3    H258179   5.664   4.645  12.089  1.0932 -2.5833 -2.1367
12230TIP3   OH258180   1.953   6.462   0.328  0.3405  0.2134  0.3526
12230TIP3    H158181   2.040   6.462   0.368  0.2506  0.1081  0.5460
12230TIP3    H258182   1.939   6.372   0.301 -1.1117 -0.5986  3.3646
12231TIP3   OH258183   2.261   6.214   4.204 -0.6749 -0.0296  0.0616
12231TIP3    H158184   2.350   6.212   4.170 -0.4521 -0.6718  0.6716
12231TIP3    H258185   2.208   6.246   4.130  0.5652  4.6663  0.9117
12232TIP3   OH258186   0.094   2.084   3.888  0.8516 -0.3090 -0.0757
12232TIP3    H158187   0.185   2.110   3.874  1.2470 -2.5156 -2.0923
12232TIP3    H258188   0.074   2.024   3.816 -1.2090 -2.3484  2.0121
12233TIP3   OH258189   0.742   2.979  11.338 -0.5405 -0.3729  0.7376
12233TIP3    H158190   0.686   2.908  11.307 -0.1878 -0.2533 -0.2000
12233TIP3    H258191   0.809   2.935  11.392 -1.3801 -0.5369  1.6752
12234TIP3   OH258192   4.922   6.012  14.265  0.0203 -0.7077 -0.1787
12234TIP3    H158193   5.005   6.055  14.285 -0.2686 -1.6577  3.9957
12234TIP3    H258194   4.946   5.930  14.223  1.1811 -0.7353  0.4998
12235TIP3   OH258195   0.322   4.710  13.413 -0.4394 -0.1637 -0.4415
12235TIP3    H158196   0.355   4.786  13.461 -3.9014  1.1665  0.1721
12235TIP3    H258197   0.294   4.649  13.482 -0.3316 -0.7389 -0.8973
12236TIP3   OH258198   2.765   0.136   0.955  0.1119  0.3459  0.2158
12236TIP3    H158199   2.788   0.204   0.893  2.0130  1.1165  1.6795
12236TIP3    H258200   2.767   0.055   0.904  1.7474  0.9338 -0.7158
12237TIP3   OH258201   6.008   0.869  15.635  0.4442 -0.3982  0.0997
12237TIP3    H158202   6.093   0.891  15.597  0.8281 -0.3577  0.9660
12237TIP3    H258203   5.950   0.862  15.560  0.6537  1.9721 -0.3706
12238TIP3   OH258204   4.912   2.393   3.232 -0.1937  0.0496 -0.1402
12238TIP3    H158205   4.876   2.459   3.173  1.2157  2.4799  1.5381
12238TIP3    H258206   4.857   2.399   3.310  1.1281  0.6589  0.7725
12239TIP3   OH258207   3.788   2.225   4.741  0.4740 -0.0480  0.4492
12239TIP3    H158208   3.711   2.205   4.794  1.1653 -1.8839  0.8548
12239TIP3    H258209   3.852   2.157   4.765  1.9820  1.0161 -0.3614
12240TIP3   OH258210   4.386   6.217  11.261 -0.5186 -0.0884  0.1182
12240TIP3    H158211   4.430   6.200  11.344  0.7749 -1.9924 -0.8995
12240TIP3    H258212   4.377   6.313  11.258  1.8460  0.2362  1.2329
12241TIP3   OH258213   3.175   5.318   0.221 -0.4966  0.0010 -0.4704
12241TIP3    H158214   3.261   5.359   0.214 -0.7983  0.5476 -0.9490
12241TIP3    H258215   3.194   5.224   0.218  0.2634  0.0445  1.3300
12242TIP3   OH258216   0.108   6.528   4.164  0.5044  0.1717 -1.1471
12242TIP3    H158217   0.199   6.512   4.138  1.2592 -0.7932  1.6834
12242TIP3    H258218   0.111   6.537   4.259 -2.3585  0.2938 -0.9636
12243TIP3   OH258219   0.810   6.070   1.382  0.8227 -0.1294 -0.0081
12243TIP3    H158220   0.737   6.043   1.439  0.2923 -0.6759 -0.9200
12243TIP3    H258221   0.874   6.108   1.442  0.3140 -0.7604  0.9744
12244TIP3   OH258222   4.355   6.633   4.224  0.2209  0.4304  0.7517
12244TIP3    H158223   4.407   6.654   4.302 -0.1584 -0.2206  1.1872
12244TIP3    H258224   4.380   6.700   4.160  3.5049 -1.2567  0.0415
12245TIP3   OH258225   5.901   1.188  16.406 -0.1256  0.5230 -0.5075
12245TIP3    H158226   5.884   1.150  16.492 -0.0654  0.1941 -0.6386
12245TIP3    H258227   5.952   1.121  16.360 -0.3949  0.5818 -0.8951
12246TIP3   OH258228   2.700   5.493   4.861 -0.3022 -0.4829  0.2586
12246TIP3    H158229   2.670   5.577   4.827 -1.8324 -0.6455  1.1236
12246TIP3    H258230   2.761   5.516   4.931 -1.3307 -0.0459  1.0416
12247TIP3   OH258231   3.291   1.959  14.971 -0.2443 -0.0246 -0.1942
12247TIP3    H158232   3.383   1.958  14.943 -0.3397  1.0071 -0.5918
12247TIP3    H258233   3.278   2.047  15.006 -0.1731 -1.1746  3.0649
12248TIP3   OH258234   4.000   3.605  13.190  0.6357 -0.2614 -0.4275
12248TIP3    H158235   4.015   3.630  13.098  0.6850  0.2332 -0.2863
12248TIP3    H258236   3.913   3.640  13.210  0.8019 -0.0076 -0.1574
12249TIP3   OH258237   1.554   1.851  15.231 -0.0026 -0.5039 -0.2303
12249TIP3    H158238   1.499   1.929  15.225  0.5093 -0.1152  0.0874
12249TIP3    H258239   1.545   1.809  15.145  1.2019  0.8957 -1.0762
12250TIP3   OH258240   2.242   5.524  11.304  0.1005  0.4760 -0.2304
12250TIP3    H158241   2.284   5.510  11.219 -0.2429 -2.7370  0.0046
12250TIP3    H258242   2.308   5.569  11.356  2.7881 -2.8418 -0.4158
12251TIP3   OH258243   6.667   0.757   0.618  0.5376  0.2017  0.0427
12251TIP3    H158244   6.692   0.769   0.527  0.6664  0.1019  0.0654
12251TIP3    H258245   6.600   0.688   0.615 -0.4911  1.1724 -0.1319
12252TIP3   OH258246   3.290   4.350  14.403  0.1933 -0.1069 -0.0804
12252TIP3    H158247   3.227   4.294  14.357  1.3568 -1.0998 -0.5204
12252TIP3    H258248   3.367   4.351  14.347  0.9773  0.1816  0.9662
12253TIP3   OH258249   2.736   1.053   4.049 -0.0541 -0.3911 -0.2201
12253TIP3    H158250   2.801   1.028   4.115 -0.5477 -0.2074  0.3420
12253TIP3    H258251   2.665   0.990   4.060 -1.4345  1.3164  1.3816
12254TIP3   OH258252   0.633   3.898  15.366  0.1489 -0.3434  0.4465
12254TIP3    H158253   0.716   3.857  15.392  1.1367  0.9350 -0.5509
12254TIP3    H258254   0.657   3.957  15.294 -1.3613  1.1433  1.0884
12255TIP3   OH258255   4.676   4.093   2.063  0.2644 -0.2791 -0.2624
12255TIP3    H158256   4.625   4.068   1.986 -0.0270 -2.3904  0.5551
12255TIP3    H258257   4.610   4.100   2.133  0.6762  0.4165  0.0636
12256TIP3   OH258258   4.404   1.451  15.208 -0.6591  0.3720  0.5327
12256TIP3    H158259   4.353   1.475  15.131 -1.1315 -2.9354 -0.3249
12256TIP3    H258260   4.339   1.447  15.279 -0.8584  0.0375  0.3310
12257TIP3   OH258261   5.883   0.130  14.114  0.0569 -0.2367 -0.1707
12257TIP3    H158262   5.836   0.164  14.038 -0.7395 -0.4443  0.2160
12257TIP3    H258263   5.840   0.047  14.134 -0.8677  0.5916  1.5157
12258TIP3   OH258264   3.549   2.409  12.993  0.0246 -0.4984  0.3476
12258TIP3    H158265   3.503   2.478  12.944  1.1327 -0.3773 -0.5373
12258TIP3    H258266   3.626   2.453  13.029  0.8209 -1.2971 -0.3516
12259TIP3   OH258267   3.182   2.588  14.670  0.0380  0.1650 -0.2446
12259TIP3    H158268   3.138   2.635  14.599  1.7223 -0.4473 -1.7511
12259TIP3    H258269   3.174   2.647  14.745 -2.0619  0.6926 -0.8029
12260TIP3   OH258270   1.720   1.005   5.462 -0.3515 -0.3064  0.1747
12260TIP3    H158271   1.664   0.982   5.535 -0.0433 -5.0060 -0.7531
12260TIP3    H258272   1.805   1.025   5.502 -0.7457 -0.5818  1.1696
12261TIP3   OH258273   2.887   4.503  17.277  0.3210  0.1747 -0.4118
12261TIP3    H158274   2.888   4.535  17.186  1.3376  0.0608 -0.4483
12261TIP3    H258275   2.874   4.582  17.330  1.2491  0.4523 -0.5831
12262TIP3   OH258276   4.769   2.603  17.269  0.1146 -0.2710 -0.0270
12262TIP3    H158277   4.718   2.555  17.335  2.6785 -0.6725  1.8327
12262TIP3    H258278   4.828   2.537  17.233  0.2314  0.4418 -1.1601
12263TIP3   OH258279   3.165   3.704  16.210 -0.2527  0.9112 -0.0905
12263TIP3    H158280   3.257   3.693  16.235 -0.5298 -1.9788 -0.0251
12263TIP3    H258281   3.122   3.732  16.291  0.6890  3.6192 -0.4281
12264TIP3   OH258282   3.812   1.358   2.856 -0.4549  0.4280  0.3271
12264TIP3    H158283   3.739   1.353   2.918 -0.6587  1.4159  0.1838
12264TIP3    H258284   3.776   1.404   2.780 -0.1343 -0.5377 -0.4229
12265TIP3   OH258285   1.788   1.369   2.531  0.3884 -0.3996  0.4962
12265TIP3    H158286   1.714   1.350   2.472  1.5449 -2.5045 -0.3807
12265TIP3    H258287   1.759   1.339   2.617 -0.5340  0.7857  0.6342
12266TIP3   OH258288   3.280   4.169   0.860  0.0599  0.1872 -0.1352
12266TIP3    H158289   3.245   4.191   0.773 -1.6244  0.8780  0.6650
12266TIP3    H258290   3.366   4.132   0.843  0.7711  2.4533 -1.9759
12267TIP3   OH258291   4.996   4.584  15.952  0.0688  0.0468 -0.5660
12267TIP3    H158292   4.931   4.517  15.973  1.2218  0.1204  4.2768
12267TIP3    H258293   5.078   4.549  15.987  1.3815  2.6107 -0.9020
12268TIP3   OH258294   4.108   0.292   1.658  0.1731 -0.0667  0.4493
12268TIP3    H158295   4.088   0.209   1.617  0.9077 -1.6019  2.9866
12268TIP3    H258296   4.031   0.313   1.711  0.2590  0.5408  0.3477
12269TIP3   OH258297   1.848   5.086   4.477 -0.6294 -0.2144  0.2770
12269TIP3    H158298   1.839   5.104   4.384 -1.3200  0.0318  0.3855
12269TIP3    H258299   1.922   5.140   4.505 -0.5572 -0.1260 -0.0890
12270TIP3   OH258300   6.561   0.337   3.144 -0.3603  0.5651 -0.0641
12270TIP3    H158301   6.482   0.356   3.093  0.3740 -0.3627 -1.6177
12270TIP3    H258302   6.528   0.296   3.224 -1.4296 -1.3876 -1.4134
12271TIP3   OH258303   3.419   6.237   2.155  0.3604  0.3419  0.1880
12271TIP3    H158304   3.390   6.318   2.198  1.5150  1.0633 -0.3314
12271TIP3    H258305   3.438   6.177   2.228  2.8529  1.7353  0.8395
12272TIP3   OH258306   5.601   4.996  12.983 -0.2221  0.3278  0.4741
12272TIP3    H158307   5.613   4.901  12.973 -1.1611  0.2490 -0.0283
12272TIP3    H258308   5.643   5.033  12.905 -0.4375  0.2817  0.3368
12273TIP3   OH258309   0.449   0.156  16.706  0.3133  0.2876 -0.0062
12273TIP3    H158310   0.360   0.153  16.670  0.4452 -0.4699 -0.2720
12273TIP3    H258311   0.506   0.140  16.631  0.6809  0.6972  0.1798
12274TIP3   OH258312   0.460   3.432   0.923  0.0623 -0.8907  0.1419
12274TIP3    H158313   0.384   3.444   0.866  0.1242 -2.5692 -0.3627
12274TIP3    H258314   0.423   3.415   1.009 -0.0275  2.2808  0.8499
12275TIP3   OH258315   1.991   3.982   1.374  0.1518 -0.0976 -0.6676
12275TIP3    H158316   2.083   4.007   1.369 -0.2725  1.5599 -0.7558
12275TIP3    H258317   1.974   3.972   1.468 -0.3258  2.7477 -0.3847
12276TIP3   OH258318   4.780   6.695  15.192  0.8191  0.1023  0.4359
12276TIP3    H158319   4.802   6.603  15.178 -1.0229 -0.3060 -0.0545
12276TIP3    H258320   4.811   6.714  15.280  2.9607 -0.3998 -0.1460
12277TIP3   OH258321   4.918   2.161   4.214 -0.0252 -0.0165  0.1505
12277TIP3    H158322   4.874   2.150   4.130 -0.4064  0.2534  0.3129
12277TIP3    H258323   4.855   2.130   4.279 -0.3620  1.2617  0.4578
12278TIP3   OH258324   2.118   3.767   4.315 -0.1733  0.4556  0.3679
12278TIP3    H158325   2.063   3.818   4.255 -0.6978  0.3904  0.7806
12278TIP3    H258326   2.184   3.727   4.259  0.4886  1.9003  0.0921
12279TIP3   OH258327   3.203   4.773  14.951  0.0171 -0.7553  0.9089
12279TIP3    H158328   3.171   4.728  14.873  0.3192 -1.6343  1.2719
12279TIP3    H258329   3.144   4.744  15.021  2.3104 -3.5604  1.8949
12280TIP3   OH258330   4.130   0.449  15.325  0.0365  0.0223 -0.2446
12280TIP3    H158331   4.201   0.473  15.385 -0.7067 -0.2822  0.7766
12280TIP3    H258332   4.174   0.397  15.258  1.0040  0.9694 -0.3828
12281TIP3   OH258333   4.601   3.557   2.776 -0.0731  0.3643  0.1379
12281TIP3    H158334   4.689   3.522   2.763 -0.1187 -0.1933  1.1836
12281TIP3    H258335   4.545   3.479   2.779 -0.6209  0.7200 -0.5983
12282TIP3   OH258336   2.142   4.024  11.579 -0.5156  0.3478  0.5766
12282TIP3    H158337   2.103   4.088  11.520 -0.3286  0.7313  0.8672
12282TIP3    H258338   2.107   4.047  11.665 -0.4327  0.0704  0.6858
12283TIP3   OH258339   4.287   3.941   0.879 -0.2176 -0.1584  0.2287
12283TIP3    H158340   4.382   3.950   0.873  0.0491 -1.4245  1.8361
12283TIP3    H258341   4.273   3.850   0.905 -1.8312  0.2484  0.9099
12284TIP3   OH258342   0.245   2.494  16.167  0.1061 -0.1763  0.2978
12284TIP3    H158343   0.302   2.442  16.111  0.0150  0.1398 -0.0949
12284TIP3    H258344   0.156   2.469  16.142  0.0610 -0.9448  1.1703
12285TIP3   OH258345   3.272   3.222   1.316  0.0395 -0.2684  0.0479
12285TIP3    H158346   3.282   3.162   1.390 -1.4210  0.7791  1.1565
12285TIP3    H258347   3.189   3.267   1.333 -0.3754 -0.0166 -2.2583
12286TIP3   OH258348   6.707   4.720   3.297 -0.0170  0.1173 -0.5973
12286TIP3    H158349   6.651   4.677   3.361 -1.5572  1.0973 -1.2046
12286TIP3    H258350   6.701   4.664   3.219  0.9314 -0.4662 -0.2665
12287TIP3   OH258351   4.335   4.492   1.516 -0.3038 -0.3778  0.0026
12287TIP3    H158352   4.259   4.499   1.458 -0.3483 -1.0895 -0.0368
12287TIP3    H258353   4.313   4.420   1.576 -0.5378  0.7608  1.3350
12288TIP3   OH258354   2.364   4.734  16.126  0.9879  0.3883  0.3202
12288TIP3    H158355   2.355   4.742  16.221  1.6379 -0.1509  0.4323
12288TIP3    H258356   2.288   4.781  16.091 -0.1837 -0.8167  1.1484
12289TIP3   OH258357   1.743   2.792  15.957  0.6900 -0.8247 -0.0149
12289TIP3    H158358   1.667   2.834  15.918  0.2169 -1.6328  0.0043
12289TIP3    H258359   1.713   2.704  15.980  0.9635 -0.4373  2.0784
12290TIP3   OH258360   4.954   2.012   5.052 -0.3830 -0.0609 -0.2874
12290TIP3    H158361   4.924   2.102   5.065  2.4681  1.3313 -2.2308
12290TIP3    H258362   5.033   2.005   5.106 -0.0309 -1.0389 -0.8913
12291TIP3   OH258363   1.544   3.373   0.809 -0.1120  0.0321 -0.2381
12291TIP3    H158364   1.622   3.319   0.794 -0.6157 -1.5140  2.1515
12291TIP3    H258365   1.576   3.450   0.855  0.1099 -0.2933  0.1599
12292TIP3   OH258366   0.747   4.771   1.730  0.4529 -0.1411 -0.0591
12292TIP3    H158367   0.801   4.850   1.729  0.6398 -0.2571 -1.7000
12292TIP3    H258368   0.697   4.777   1.811  0.3729  1.7249 -0.2049
12293TIP3   OH258369   6.277   6.067   3.096  0.0360  0.1006  0.4742
12293TIP3    H158370   6.277   6.098   3.186  2.0997  0.6071  0.3623
12293TIP3    H258371   6.370   6.059   3.073 -0.4305 -0.7291 -1.3672
12294TIP3   OH258372   3.307   6.191  13.258  0.2558  0.0950 -0.2799
12294TIP3    H158373   3.398   6.165  13.244  0.2765 -0.7276  1.2563
12294TIP3    H258374   3.268   6.119  13.307 -0.7662  1.2110  0.6065
12295TIP3   OH258375   3.079   3.625  15.455  0.7478  0.1143 -0.1990
12295TIP3    H158376   3.080   3.716  15.427  1.4944  0.7554  1.7192
12295TIP3    H258377   3.136   3.623  15.532  0.0123 -1.7896  0.3654
12296TIP3   OH258378   3.016   2.712  13.046  0.2976  0.8686  0.8731
12296TIP3    H158379   3.039   2.708  12.953 -1.4282  1.6259  0.3782
12296TIP3    H258380   3.098   2.693  13.092  0.7833 -1.5103 -0.7977
12297TIP3   OH258381   6.557   3.813  13.240  0.0980 -0.0263  0.2776
12297TIP3    H158382   6.610   3.823  13.160 -0.0892 -1.1842  0.0015
12297TIP3    H258383   6.529   3.903  13.260  1.0043  0.4227 -0.3624
12298TIP3   OH258384   1.243   2.029  12.121  0.4666 -0.2067  0.2247
12298TIP3    H158385   1.186   2.096  12.083  0.4960  0.3763  1.1799
12298TIP3    H258386   1.268   1.974  12.047 -1.3221 -0.4770 -0.2167
12299TIP3   OH258387   3.051   0.283   2.827 -0.4749  0.5437  0.3779
12299TIP3    H158388   3.065   0.192   2.851 -1.5888  0.1725 -0.2825
12299TIP3    H258389   2.956   0.294   2.828 -0.4275  1.3123 -0.8860
12300TIP3   OH258390   0.548   0.131   1.386 -0.5554 -0.1845 -0.4383
12300TIP3    H158391   0.558   0.226   1.386  2.4969 -0.3466  2.1892
12300TIP3    H258392   0.465   0.115   1.432 -1.4332  1.1573 -1.4879
12301TIP3   OH258393   4.973   0.839   4.491 -0.1716  0.0211  0.3693
12301TIP3    H158394   4.955   0.916   4.438 -0.2148  0.3259  0.8188
12301TIP3    H258395   4.989   0.769   4.428 -0.5214  0.3077 -0.0377
12302TIP3   OH258396   3.879   3.769   3.148  0.2290  0.3651  0.0710
12302TIP3    H158397   3.877   3.731   3.061  1.9823 -1.7159  0.8585
12302TIP3    H258398   3.807   3.727   3.195  0.5248 -0.0078  0.1911
12303TIP3   OH258399   1.418   2.397  15.902  0.0322 -0.5988  0.0945
12303TIP3    H158400   1.459   2.313  15.923  1.3317  0.4953  2.4631
12303TIP3    H258401   1.355   2.410  15.973 -2.9339 -1.1825 -2.2647
12304TIP3   OH258402   6.170   5.910   1.571 -0.2795 -0.5667  0.5882
12304TIP3    H158403   6.250   5.858   1.561 -0.2118 -0.2346 -0.8506
12304TIP3    H258404   6.190   5.993   1.529 -1.9756 -1.1551 -1.5529
12305TIP3   OH258405   2.713   6.101  11.231  0.2984 -0.2627  0.2785
12305TIP3    H158406   2.807   6.094  11.250  0.3456 -0.1313  0.0944
12305TIP3    H258407   2.707   6.091  11.136  0.1243 -0.2838  0.2914
12306TIP3   OH258408   4.561   6.699   1.822  0.4374 -0.3060  0.3041
12306TIP3    H158409   4.637   6.648   1.852 -0.4671 -1.3531  0.8988
12306TIP3    H258410   4.509   6.636   1.772  0.1643  0.5143 -0.4702
12307TIP3   OH258411   4.862   0.472  15.852 -0.0894 -0.5993  0.2757
12307TIP3    H158412   4.870   0.407  15.782 -2.6239 -1.7666  0.9652
12307TIP3    H258413   4.913   0.436  15.925  0.5857 -0.5369 -0.1513
12308TIP3   OH258414   1.196   3.948   6.544  0.7270 -0.5205 -0.3832
12308TIP3    H158415   1.172   4.018   6.484 -0.4938  0.2999  0.9951
12308TIP3    H258416   1.178   3.983   6.631  0.6159 -2.3369  0.3817
12309TIP3   OH258417   6.747   2.482   0.514  0.0763 -0.0834  0.5693
12309TIP3    H158418   6.791   2.534   0.581  0.4024 -0.3456  0.5579
12309TIP3    H258419   6.793   2.398   0.513 -0.2553 -0.2702  0.3784
12310TIP3   OH258420   0.086   3.993   1.486 -0.5709 -0.1200 -0.0590
12310TIP3    H158421   0.099   4.083   1.455  1.1356  0.9369  3.2854
12310TIP3    H258422   0.175   3.960   1.500 -1.1771 -2.3434 -1.0667
12311TIP3   OH258423   2.368   3.288   3.640  0.2630  0.3874  0.2869
12311TIP3    H158424   2.388   3.258   3.551  1.2859  0.4612  0.4831
12311TIP3    H258425   2.298   3.229   3.670 -0.0586  0.3291 -0.5380
12312TIP3   OH258426   3.701   2.277  16.889 -0.1514  0.0191 -0.5745
12312TIP3    H158427   3.642   2.286  16.964 -0.3138 -1.2434 -0.5330
12312TIP3    H258428   3.789   2.284  16.927 -0.2061 -1.4995 -0.1024
12313TIP3   OH258429   2.863   4.454  15.949  0.1377 -0.6104  0.5190
12313TIP3    H158430   2.857   4.500  16.032 -0.0731  0.5339 -0.1135
12313TIP3    H258431   2.829   4.366  15.968  2.1072 -1.0998  2.1334
12314TIP3   OH258432   4.240   1.555   1.076 -0.1066 -0.3201  0.5520
12314TIP3    H158433   4.233   1.645   1.108 -1.5768 -0.4378  0.6143
12314TIP3    H258434   4.202   1.502   1.146 -0.6911 -0.8431 -0.1558
12315TIP3   OH258435   3.207   4.988   3.909 -0.4569 -0.0919 -0.3001
12315TIP3    H158436   3.198   5.078   3.940  0.3883 -0.4559  1.0604
12315TIP3    H258437   3.117   4.959   3.893 -0.7062  1.2771 -1.7002
12316TIP3   OH258438   5.102   4.391   3.486  0.3658  0.5831 -0.0055
12316TIP3    H158439   5.197   4.382   3.491  0.3077 -1.3630 -1.3657
12316TIP3    H258440   5.075   4.327   3.420 -2.2091 -1.2333  2.5680
12317TIP3   OH258441   5.849   4.905  13.252  0.5248  0.0705 -0.0826
12317TIP3    H158442   5.756   4.892  13.268  0.4901  0.6747  0.2472
12317TIP3    H258443   5.885   4.931  13.337  1.3487 -1.9639  0.2382
12318TIP3   OH258444   1.840   4.591   4.151  0.0328  0.0172 -0.2134
12318TIP3    H158445   1.828   4.527   4.082  1.1380  0.2642 -0.6675
12318TIP3    H258446   1.873   4.669   4.106  0.7405  0.1968  0.5783
12319TIP3   OH258447   2.692   5.010   2.126  0.4034 -0.6489 -0.0548
12319TIP3    H158448   2.658   4.958   2.199 -0.5617 -0.7906 -0.5897
12319TIP3    H258449   2.615   5.033   2.075  1.0078 -0.0751 -0.7328
12320TIP3   OH258450   4.062   5.347  14.814  0.2228  0.4004  0.0781
12320TIP3    H158451   4.030   5.432  14.845 -0.8737  0.8932 -2.2225
12320TIP3    H258452   3.984   5.292  14.810  0.9081 -0.7578  1.4588
12321TIP3   OH258453   1.459   1.955  10.336 -0.1449  0.0221 -0.7162
12321TIP3    H158454   1.545   1.912  10.332  0.6725  1.1383  2.1909
12321TIP3    H258455   1.479   2.048  10.346 -1.7596  0.4585 -1.2782
12322TIP3   OH258456   1.171   1.723  12.509  0.2095 -0.5539 -0.4763
12322TIP3    H158457   1.167   1.763  12.596  2.8150 -1.9969  0.4278
12322TIP3    H258458   1.107   1.652  12.512 -0.5058  0.0832 -0.1732
12323TIP3   OH258459   6.378   1.536  16.334 -0.2951  0.0114  0.1748
12323TIP3    H158460   6.367   1.613  16.389 -1.3313 -0.4892  0.6882
12323TIP3    H258461   6.472   1.518  16.336 -0.0168  1.3218 -0.0560
12324TIP3   OH258462   4.517   6.589  13.549 -0.2881  0.1191  0.1938
12324TIP3    H158463   4.498   6.497  13.528 -1.6636  0.5572 -0.6205
12324TIP3    H258464   4.612   6.596  13.539 -0.3060 -0.9089 -1.0189
12325TIP3   OH258465   2.533   4.270  11.617 -0.2288 -0.0376  0.4669
12325TIP3    H158466   2.563   4.358  11.638 -1.1107 -0.0456  1.9338
12325TIP3    H258467   2.483   4.280  11.536  1.3244  0.4351 -0.4715
12326TIP3   OH258468   4.029   1.592  13.683 -0.3189  1.1091 -0.0342
12326TIP3    H158469   4.018   1.518  13.623 -0.9350  1.1000  0.0824
12326TIP3    H258470   4.094   1.561  13.746 -2.4528 -0.3619  1.5753
12327TIP3   OH258471   2.013   0.711   4.000  0.4927 -0.1309 -0.7914
12327TIP3    H158472   2.066   0.658   4.060 -0.4463  1.1533  1.2665
12327TIP3    H258473   1.935   0.658   3.984  0.7322 -0.4705 -0.8455
12328TIP3   OH258474   5.883   2.252  14.745  0.7813  0.4882 -0.7222
12328TIP3    H158475   5.977   2.238  14.743  0.8564  1.0385 -1.0729
12328TIP3    H258476   5.856   2.254  14.653  0.3534 -0.1273 -0.6191
12329TIP3   OH258477   4.746   6.543   0.914 -0.1669  0.2428 -0.4162
12329TIP3    H158478   4.771   6.486   0.986 -1.3065  1.9605  1.4126
12329TIP3    H258479   4.824   6.545   0.858  0.4557 -1.7734  0.2813
12330TIP3   OH258480   3.554   0.111   3.910 -0.3871 -0.3823  0.2052
12330TIP3    H158481   3.600   0.170   3.969  0.1882  0.2450 -0.8234
12330TIP3    H258482   3.588   0.024   3.930  1.4099  0.0814 -0.6245
12331TIP3   OH258483   0.571   3.990   3.541 -0.4472 -0.2413 -0.2533
12331TIP3    H158484   0.567   4.065   3.601  0.4283 -1.9581  2.1070
12331TIP3    H258485   0.615   4.024   3.463 -0.7341  1.8734  0.4378
12332TIP3   OH258486   1.483   4.374   3.328  0.2067 -0.4614  0.4287
12332TIP3    H158487   1.549   4.420   3.277 -1.1484 -0.7358 -1.6673
12332TIP3    H258488   1.426   4.333   3.264 -0.9845 -1.7282  2.1862
12333TIP3   OH258489   0.011   0.229  14.614 -0.4468 -0.6700  0.3143
12333TIP3    H158490   0.087   0.232  14.555  0.3638  1.9729  1.3153
12333TIP3    H258491  -0.065   0.235  14.556  0.3314  2.2754 -0.5726
12334TIP3   OH258492   2.584   1.940  15.276 -0.3301 -0.0280  0.0134
12334TIP3    H158493   2.522   1.971  15.341  1.0218  1.2081  0.7668
12334TIP3    H258494   2.557   1.982  15.194  0.7358  2.2626  0.7698
12335TIP3   OH258495   0.374   3.975   5.171  0.3453  0.2904  0.2789
12335TIP3    H158496   0.349   3.932   5.090 -0.6482  0.4885  0.4679
12335TIP3    H258497   0.458   4.017   5.151  0.8728 -0.9438 -0.1705
12336TIP3   OH258498   6.576   1.427   1.017  0.1298  0.6088  0.4843
12336TIP3    H158499   6.568   1.335   1.041 -0.4446  0.5645  0.1239
12336TIP3    H258500   6.487   1.462   1.024 -0.5207  0.1716 -3.3166
12337TIP3   OH258501   2.622   5.014  15.510  0.4559  0.4397 -0.8006
12337TIP3    H158502   2.536   4.972  15.501 -0.7989  2.6688  0.0542
12337TIP3    H258503   2.610   5.100  15.469  2.1810  0.9456 -0.2923
12338TIP3   OH258504   2.187   4.076   1.711  0.4184  0.2227 -0.5827
12338TIP3    H158505   2.212   3.987   1.685 -0.1637 -0.6993  1.7707
12338TIP3    H258506   2.124   4.063   1.782  0.1482  2.5350 -0.3382
12339TIP3   OH258507   3.466   1.240  13.879  0.5350 -0.1518  1.0535
12339TIP3    H158508   3.465   1.320  13.932 -0.7732  0.5322  0.0629
12339TIP3    H258509   3.552   1.240  13.837 -0.7086  2.9457 -2.0096
12340TIP3   OH258510   1.353   3.081  15.517 -0.8958 -0.5356 -0.3893
12340TIP3    H158511   1.290   3.115  15.581  0.6263  2.3820 -0.3013
12340TIP3    H258512   1.308   3.086  15.433 -1.0304  1.0293 -0.2565
12341TIP3   OH258513   2.683   0.683  17.275 -0.2535  0.4863 -0.3489
12341TIP3    H158514   2.735   0.753  17.237  0.3211  0.4909  0.4103
12341TIP3    H258515   2.634   0.725  17.346  0.3683  0.0754  0.3493
12342TIP3   OH258516   0.718   6.314   3.137  0.5858  0.8397  0.0973
12342TIP3    H158517   0.634   6.268   3.139  0.4750  1.0489  0.7773
12342TIP3    H258518   0.756   6.293   3.052  0.2840 -0.0524  0.1711
12343TIP3   OH258519   6.497   5.101   6.241  0.2645 -0.3750 -0.4682
12343TIP3    H158520   6.544   5.059   6.313  1.7941  1.1779 -0.4908
12343TIP3    H258521   6.524   5.193   6.246 -0.3445 -0.0495 -2.4473
12344TIP3   OH258522   0.671   4.472  15.657 -0.0211 -0.0535  0.4654
12344TIP3    H158523   0.748   4.495  15.708  0.4697  0.3178 -0.4180
12344TIP3    H258524   0.693   4.388  15.616 -0.6094 -0.6067  1.2323
12345TIP3   OH258525   4.874   2.824   5.062 -0.0424 -0.0919 -0.0719
12345TIP3    H158526   4.934   2.765   5.109 -0.4556 -0.3764  0.0985
12345TIP3    H258527   4.905   2.822   4.972  0.2368 -0.1994  0.0253
12346TIP3   OH258528   2.505   0.450  16.383 -0.6933 -0.0670  0.0491
12346TIP3    H158529   2.542   0.440  16.295  0.1418  0.4326  0.3259
12346TIP3    H258530   2.433   0.512  16.371 -1.0583 -0.5674 -0.4013
12347TIP3   OH258531   5.006   0.744  12.795  0.2203  0.3550 -0.6842
12347TIP3    H158532   4.935   0.728  12.857  0.4324  1.3128 -0.1725
12347TIP3    H258533   5.035   0.834  12.813  2.0694 -0.2572 -0.3508
12348TIP3   OH258534   2.750   0.207   3.663  0.5720 -0.3674  0.3390
12348TIP3    H158535   2.669   0.183   3.708  1.3168 -0.3162  1.7746
12348TIP3    H258536   2.726   0.281   3.607 -0.6891 -1.3288 -0.4551
12349TIP3   OH258537   4.582   4.560   5.961 -0.5179  0.2410 -0.1596
12349TIP3    H158538   4.639   4.610   6.019 -0.2303 -0.5495  0.2532
12349TIP3    H258539   4.520   4.625   5.926  0.5608  1.0859 -0.5335
12350TIP3   OH258540   2.872   0.364  16.995  0.2681 -0.3434 -0.5892
12350TIP3    H158541   2.778   0.363  16.977 -0.0103 -0.6520  0.7672
12350TIP3    H258542   2.913   0.349  16.910 -0.9119 -0.3924 -1.1660
12351TIP3   OH258543   5.722   3.914   4.062 -0.4492  0.0483  0.3832
12351TIP3    H158544   5.818   3.914   4.070 -0.3869 -0.6615 -0.2622
12351TIP3    H258545   5.705   3.929   3.969 -0.9517 -0.3900  0.4003
12352TIP3   OH258546   0.617   4.172   2.308 -0.5699  0.4440  0.3670
12352TIP3    H158547   0.546   4.115   2.337 -1.2516  1.9735  1.8925
12352TIP3    H258548   0.575   4.237   2.251  0.1524 -0.3709 -1.1640
12353TIP3   OH258549   4.471   5.776   4.211 -0.1166 -0.4208  0.1014
12353TIP3    H158550   4.423   5.856   4.192 -0.8476 -1.3435 -2.1222
12353TIP3    H258551   4.560   5.794   4.181  0.4624  0.4834  2.1659
12354TIP3   OH258552   1.579   6.322   2.659  0.2431 -0.2060  0.0896
12354TIP3    H158553   1.533   6.405   2.670  1.3264  0.6748 -1.5035
12354TIP3    H258554   1.528   6.259   2.709 -1.2400  1.2008  0.4366
12355TIP3   OH258555   5.488   6.476  16.294  0.1995  0.1937  0.3427
12355TIP3    H158556   5.551   6.531  16.341 -0.2960  2.1215 -1.0832
12355TIP3    H258557   5.410   6.476  16.349 -0.1413  1.8388 -0.0783
12356TIP3   OH258558   3.105   3.343   5.676  0.1858  0.3737 -0.0375
12356TIP3    H158559   3.151   3.282   5.734 -1.0381 -0.8395 -0.2739
12356TIP3    H258560   3.075   3.413   5.734  0.4653  0.0645  0.4922
12357TIP3   OH258561   1.380   1.129   5.870 -0.2535  0.1918 -0.6345
12357TIP3    H158562   1.325   1.204   5.891 -0.8084 -0.8217  1.8249
12357TIP3    H258563   1.424   1.107   5.952  1.9447 -0.5784 -1.9265
12358TIP3   OH258564   3.901   5.005   2.913  0.3727  0.0588  0.0985
12358TIP3    H158565   3.856   5.072   2.965 -0.0165 -0.5824  0.5956
12358TIP3    H258566   3.965   4.967   2.973  1.4268  0.7834 -0.5285
12359TIP3   OH258567   1.357   2.451  15.612  0.1115  0.5641 -0.1731
12359TIP3    H158568   1.436   2.417  15.571 -1.4243 -2.1106 -1.1175
12359TIP3    H258569   1.357   2.414  15.700  0.7039  1.9625  0.4532
12360TIP3   OH258570   4.146   3.154   3.769  0.0543  0.1147  0.0485
12360TIP3    H158571   4.231   3.178   3.807 -0.2367 -1.2406  1.6758
12360TIP3    H258572   4.094   3.124   3.843 -0.7087 -2.2264 -1.3302
12361TIP3   OH258573   5.196   5.450   3.451  0.1041  0.0181 -0.3394
12361TIP3    H158574   5.260   5.456   3.521 -0.7563 -0.1857  0.4834
12361TIP3    H258575   5.130   5.515   3.472  0.9435  1.5963 -2.2014
12362TIP3   OH258576   0.709   2.072  10.714 -0.3483 -0.6595 -0.3018
12362TIP3    H158577   0.790   2.026  10.731 -0.1656 -0.8026 -1.4627
12362TIP3    H258578   0.657   2.012  10.661 -0.8521 -0.2344 -0.3079
12363TIP3   OH258579   4.180   3.607  12.568  0.1117 -0.0720  0.2403
12363TIP3    H158580   4.182   3.512  12.562  1.3680 -0.1271  1.1658
12363TIP3    H258581   4.227   3.627  12.649 -0.0798  1.3420  0.0297
12364TIP3   OH258582   4.382   3.734   0.047  0.5269 -0.2973  0.4873
12364TIP3    H158583   4.305   3.701   0.000  0.1224  1.4885 -0.1752
12364TIP3    H258584   4.426   3.655   0.079 -0.4760 -1.4563 -0.8649
12365TIP3   OH258585   0.076   1.780  16.543  0.1645 -0.0064  0.6144
12365TIP3    H158586   0.123   1.770  16.627  0.4753 -0.7291  0.3670
12365TIP3    H258587   0.093   1.870  16.517  1.2084 -0.1669  0.6723
12366TIP3   OH258588   4.836   2.243  14.094  0.2440 -0.5722 -0.0721
12366TIP3    H158589   4.806   2.290  14.172 -1.4569 -2.2100  0.3155
12366TIP3    H258590   4.925   2.214  14.116  1.4945  2.5589 -0.4353
12367TIP3   OH258591   3.421   2.644  17.080 -0.1678  0.0165  0.7659
12367TIP3    H158592   3.413   2.571  17.142 -2.2553 -0.9609 -0.5397
12367TIP3    H258593   3.503   2.627  17.034 -0.4339 -1.3321  0.7470
12368TIP3   OH258594   4.616   1.647  16.122 -0.3600 -0.1555  0.0805
12368TIP3    H158595   4.551   1.611  16.061 -2.1980 -0.4794  2.1212
12368TIP3    H258596   4.628   1.738  16.093  0.3005 -0.7886 -1.8661
12369TIP3   OH258597   4.694   2.911  15.643  0.0362 -0.2555 -0.0373
12369TIP3    H158598   4.734   2.827  15.667 -0.8598 -0.4302  0.8970
12369TIP3    H258599   4.647   2.893  15.561 -0.6599 -0.8269  0.4805
12370TIP3   OH258600   3.115   3.528  11.233  0.3536  0.1143  0.4166
12370TIP3    H158601   3.192   3.477  11.259 -0.3827 -0.5879  1.2441
12370TIP3    H258602   3.041   3.469  11.245 -0.3774  0.9448  0.0901
12371TIP3   OH258603   2.044   3.413   1.089  0.1996  0.2938  0.1398
12371TIP3    H158604   1.976   3.475   1.112 -0.5527 -0.3595 -0.2737
12371TIP3    H258605   2.028   3.393   0.997  0.1730 -0.8168  0.3698
12372TIP3   OH258606   1.400   3.299   1.081  0.6994 -0.2160  0.3331
12372TIP3    H158607   1.306   3.314   1.076  0.5801 -1.0405 -0.1153
12372TIP3    H258608   1.428   3.292   0.989  0.7205 -2.6876  0.4764
12373TIP3   OH258609   2.601   5.077   4.037  0.3008 -0.2513 -0.1787
12373TIP3    H158610   2.626   5.150   4.094 -2.7363  0.4353  0.4791
12373TIP3    H258611   2.630   5.104   3.950 -0.7924  1.8497  0.0244
12374TIP3   OH258612   0.103   1.919   1.909 -0.6507  0.4721  0.3573
12374TIP3    H158613   0.021   1.967   1.898 -0.4780  0.5433 -0.6940
12374TIP3    H258614   0.102   1.891   2.001 -2.1152 -0.0264  0.2147
12375TIP3   OH258615   1.161   2.309   4.073  1.0270  0.4721  0.0267
12375TIP3    H158616   1.134   2.243   4.009  1.7378 -0.2062  0.4096
12375TIP3    H258617   1.256   2.312   4.065  1.0280  1.1783  0.2902
12376TIP3   OH258618   1.163   3.357  14.612 -0.0721  0.3940  0.1318
12376TIP3    H158619   1.242   3.338  14.562  0.2122  0.1888  0.6577
12376TIP3    H258620   1.177   3.444  14.648 -0.5646  0.8282 -0.6943
12377TIP3   OH258621   3.702   0.276  10.731  1.0650 -0.0983 -0.3469
12377TIP3    H158622   3.618   0.231  10.738  0.4144  1.2974  1.2025
12377TIP3    H258623   3.708   0.301  10.639  0.7058 -1.8897 -0.8960
12378TIP3   OH258624   5.608   3.746  12.304 -0.6809 -0.7505 -0.6872
12378TIP3    H158625   5.537   3.809  12.288  0.1534  0.2695 -0.5191
12378TIP3    H258626   5.681   3.800  12.334  0.1914 -1.7692 -0.9249
12379TIP3   OH258627   4.224   6.197  16.326 -0.4848 -0.1800 -0.0238
12379TIP3    H158628   4.292   6.143  16.288 -1.3484 -0.8652 -0.6289
12379TIP3    H258629   4.270   6.275  16.357  0.3158  0.2501 -2.1309
12380TIP3   OH258630   1.741   5.313   3.343  0.1049  0.1592  0.2621
12380TIP3    H158631   1.786   5.349   3.266  1.7077 -1.5009  0.3593
12380TIP3    H258632   1.650   5.302   3.315  0.3931  0.7878 -0.9648
12381TIP3   OH258633   3.887   2.444  14.063 -0.4135 -0.5725 -0.4705
12381TIP3    H158634   3.848   2.436  13.976  1.8088  0.0537 -1.5829
12381TIP3    H258635   3.933   2.528  14.062 -0.6590 -0.3596  1.4622
12382TIP3   OH258636   4.801   2.915  15.281 -0.1743  0.4320 -0.0425
12382TIP3    H158637   4.753   2.944  15.204 -0.2867 -1.3179 -0.6706
12382TIP3    H258638   4.885   2.961  15.276 -0.5252  1.0262 -0.6853
12383TIP3   OH258639   0.798   4.599   1.200 -0.4111  0.2686 -0.1561
12383TIP3    H158640   0.833   4.563   1.118  0.3775 -2.0026  1.0921
12383TIP3    H258641   0.721   4.547   1.219 -0.3105  0.4349  0.7863
12384TIP3   OH258642   0.665   4.018  16.224  0.1817  0.5288  0.2417
12384TIP3    H158643   0.649   4.090  16.163  0.4138  0.9248  0.6504
12384TIP3    H258644   0.580   3.974  16.231  0.1152  0.5705 -0.2447
12385TIP3   OH258645   2.593   3.446   5.015 -0.1665 -0.7461 -0.4108
12385TIP3    H158646   2.518   3.434   5.072  0.2175 -1.7475 -0.0948
12385TIP3    H258647   2.645   3.515   5.056  0.1022 -1.4496  0.4641
12386TIP3   OH258648   0.280   3.628  11.757  0.1213  0.5246  0.1071
12386TIP3    H158649   0.367   3.621  11.794 -0.4910 -0.8633  1.3627
12386TIP3    H258650   0.221   3.600  11.827 -1.3097  0.9791 -0.8615
12387TIP3   OH258651   6.305   6.346  15.184  0.4821  0.0255 -0.4881
12387TIP3    H158652   6.312   6.322  15.276  0.5057  1.4136 -0.0927
12387TIP3    H258653   6.383   6.399  15.167 -0.2100  0.9398 -0.9134
12388TIP3   OH258654   1.586   2.198  16.769  0.3711 -0.3264  0.5290
12388TIP3    H158655   1.528   2.151  16.829 -0.6029 -1.5962 -1.2872
12388TIP3    H258656   1.668   2.148  16.771 -0.0511 -1.0675 -0.0286
12389TIP3   OH258657   5.331   4.803   5.471 -0.2368 -0.0935 -0.6206
12389TIP3    H158658   5.264   4.868   5.494  0.2196 -0.1935  1.0852
12389TIP3    H258659   5.303   4.723   5.515 -0.1609 -0.7658 -1.7395
12390TIP3   OH258660   1.370   5.824   2.409  0.5943  0.3939  0.2099
12390TIP3    H158661   1.290   5.791   2.369  1.4700 -0.1125 -1.2141
12390TIP3    H258662   1.353   5.821   2.504 -0.6781 -0.6764 -0.0259
12391TIP3   OH258663   3.201   0.838  11.421  0.1175 -0.6015 -0.3387
12391TIP3    H158664   3.247   0.882  11.492  0.5790 -0.5229 -0.6800
12391TIP3    H258665   3.123   0.892  11.406 -0.4712 -1.1327  0.7246
12392TIP3   OH258666   4.713   5.607   0.211  0.1781  0.1625  0.3519
12392TIP3    H158667   4.645   5.584   0.274 -0.1423 -1.5334 -0.5432
12392TIP3    H258668   4.686   5.691   0.174 -1.4173 -0.4631  0.0473
12393TIP3   OH258669   4.710   5.753  12.278  0.7132  0.5264  1.0893
12393TIP3    H158670   4.684   5.685  12.340  0.0040  0.8520  1.1635
12393TIP3    H258671   4.650   5.741  12.204 -0.3387  1.8953  1.6691
12394TIP3   OH258672   0.487   4.899   3.851  0.2751  0.1636  0.1269
12394TIP3    H158673   0.572   4.887   3.808  0.0732  0.6233 -0.4173
12394TIP3    H258674   0.434   4.945   3.787 -0.0102  0.9457  0.8988
12395TIP3   OH258675   3.443   3.930   1.840  0.6664  0.3083 -0.1855
12395TIP3    H158676   3.498   3.994   1.796 -0.9143  1.5430 -0.4537
12395TIP3    H258677   3.379   3.903   1.774  1.0919 -1.3264  0.0210
12396TIP3   OH258678   0.693   6.684  15.684  0.8103  0.5107 -0.1701
12396TIP3    H158679   0.769   6.630  15.706  0.4376 -0.1548 -0.4623
12396TIP3    H258680   0.715   6.723  15.599  0.4995 -0.3473 -0.6607
12397TIP3   OH258681   4.060   3.509   4.576  0.2171 -0.1724 -0.5487
12397TIP3    H158682   4.132   3.546   4.524  0.3267 -1.2641 -1.2166
12397TIP3    H258683   4.076   3.415   4.573 -0.2014 -0.3018  0.8760
12398TIP3   OH258684   0.815   5.138  10.980  0.2373 -0.2230 -0.0825
12398TIP3    H158685   0.776   5.220  11.011  0.9787 -0.1566  0.7327
12398TIP3    H258686   0.897   5.166  10.938 -0.3972 -0.3865 -1.4915
12399TIP3   OH258687   0.575   2.082   0.680 -0.5317  0.0337 -0.1659
12399TIP3    H158688   0.518   2.004   0.683 -0.3731 -0.1058 -0.6283
12399TIP3    H258689   0.530   2.141   0.619 -0.4532  0.1452 -0.1145
12400TIP3   OH258690   3.815   1.313  13.540  0.0143  0.4983  0.4383
12400TIP3    H158691   3.799   1.287  13.631 -0.6871  1.2426  0.5455
12400TIP3    H258692   3.771   1.246  13.488  0.0361  0.3117  0.6591
12401TIP3   OH258693   5.873   2.482  17.184 -0.2261  0.2567 -0.0640
12401TIP3    H158694   5.946   2.542  17.168  0.7953 -0.7649  0.5776
12401TIP3    H258695   5.829   2.476  17.099  0.8939  0.3183 -0.6719
12402TIP3   OH258696   1.626   0.676  16.854 -0.2822  0.7494 -0.4858
12402TIP3    H158697   1.688   0.725  16.801 -0.3622  1.1708 -0.1949
12402TIP3    H258698   1.602   0.601  16.800  1.1578  0.0935 -0.2659
12403TIP3   OH258699   1.596   2.322   2.945 -0.2953 -0.1827 -0.3310
12403TIP3    H158700   1.662   2.254   2.953  1.5697  1.6360  0.7101
12403TIP3    H258701   1.636   2.389   2.890 -1.5134  0.6913 -0.2020
12404TIP3   OH258702   0.853   0.162  16.138 -0.4360  0.1836  0.2959
12404TIP3    H158703   0.945   0.136  16.141  0.0897  1.7013 -0.8893
12404TIP3    H258704   0.837   0.202  16.223  0.1181  0.2609  0.3734
12405TIP3   OH258705   5.095   4.974  13.089 -0.6398 -0.7379  0.2736
12405TIP3    H158706   5.002   4.977  13.111 -0.4603  0.0435  0.9693
12405TIP3    H258707   5.115   5.061  13.057 -0.0095 -0.7096  0.7291
12406TIP3   OH258708   3.059   1.802   0.340 -0.4358  0.6621  0.2061
12406TIP3    H158709   3.088   1.796   0.431 -0.7508 -0.2519  0.2600
12406TIP3    H258710   3.017   1.717   0.323 -4.3217  2.2979  0.5713
12407TIP3   OH258711   6.569   0.943  16.811  0.2741 -0.1676 -0.6910
12407TIP3    H158712   6.661   0.933  16.834  0.3048  1.6313  0.1236
12407TIP3    H258713   6.548   0.865  16.759  1.8745 -1.2589  0.2464
12408TIP3   OH258714   4.940   4.220  15.401  0.2179  0.0441 -0.1628
12408TIP3    H158715   4.918   4.235  15.493  1.5237 -0.5116  0.2683
12408TIP3    H258716   4.993   4.296  15.377 -0.3682  0.3349 -0.5563
12409TIP3   OH258717   1.591   3.490   1.490 -0.1617  0.4021 -0.1570
12409TIP3    H158718   1.680   3.462   1.467  0.6481  1.9228  0.9367
12409TIP3    H258719   1.548   3.409   1.518  1.5854 -0.0854  1.3801
12410TIP3   OH258720   5.136   1.649   2.484 -0.1877  0.0696 -0.1312
12410TIP3    H158721   5.095   1.730   2.516 -1.5916 -0.5361 -0.3604
12410TIP3    H258722   5.132   1.589   2.558 -1.1283 -0.4983 -0.6352
12411TIP3   OH258723   2.149   1.348   5.509  0.1552  0.2343  0.6096
12411TIP3    H158724   2.054   1.360   5.513 -0.4489 -2.1486 -2.5434
12411TIP3    H258725   2.177   1.405   5.437  0.3888 -1.8700 -1.0632
12412TIP3   OH258726   2.538   6.602   5.494  0.0550  0.5464 -0.1031
12412TIP3    H158727   2.623   6.558   5.497 -0.2073 -0.2109 -1.9579
12412TIP3    H258728   2.502   6.592   5.582  1.6967  0.5182  0.5906
12413TIP3   OH258729   4.416   4.810   3.789 -0.2976 -0.5590  0.4265
12413TIP3    H158730   4.429   4.744   3.858  0.3186 -0.3283  0.5378
12413TIP3    H258731   4.428   4.761   3.707 -1.0746 -0.8434  0.4748
12414TIP3   OH258732   1.112   1.307   5.556  0.3790 -0.6459  0.3913
12414TIP3    H158733   1.050   1.379   5.567 -0.3448 -0.5927 -2.9186
12414TIP3    H258734   1.065   1.230   5.589  0.6794  0.1198  2.7827
12415TIP3   OH258735   5.772   4.325   5.240 -0.1984 -0.0660 -0.1287
12415TIP3    H158736   5.816   4.241   5.250  0.2234  0.1902  0.2190
12415TIP3    H258737   5.840   4.390   5.257 -0.3484  0.3616 -1.0865
12416TIP3   OH258738   0.211   3.937   5.670 -0.7992 -0.1433  0.0096
12416TIP3    H158739   0.278   3.879   5.708  0.7253  2.4749  1.6073
12416TIP3    H258740   0.247   3.962   5.585 -0.6698 -0.1923  0.0495
12417TIP3   OH258741   0.121   2.522  14.988 -0.3901 -0.0284  0.0247
12417TIP3    H158742   0.157   2.595  15.037  0.8172 -0.3680 -0.3252
12417TIP3    H258743   0.193   2.459  14.982 -1.6367 -1.6558  1.0812
12418TIP3   OH258744   5.036   0.639  15.258  0.5558 -0.4396 -0.2624
12418TIP3    H158745   4.996   0.656  15.172 -0.6791 -1.0337  0.1829
12418TIP3    H258746   5.051   0.726  15.295 -0.3158 -0.2075 -0.4463
12419TIP3   OH258747   2.632   1.871  13.995  0.2861 -0.3160 -0.0629
12419TIP3    H158748   2.667   1.842  13.911  0.2961  0.2371 -0.2530
12419TIP3    H258749   2.538   1.859  13.988  0.2257  0.3045 -0.3850
12420TIP3   OH258750   1.751   2.758   0.802  0.4531 -0.0618 -0.1870
12420TIP3    H158751   1.756   2.796   0.890 -0.4038  0.8734 -0.5189
12420TIP3    H258752   1.842   2.747   0.775  0.7225 -0.5791  0.9080
12421TIP3   OH258753   3.075   0.019   0.916  0.0165  0.1478 -0.1790
12421TIP3    H158754   3.035  -0.067   0.909 -0.2941  0.4162 -2.1153
12421TIP3    H258755   3.078   0.036   1.010 -3.1527 -0.4589  0.1326
12422TIP3   OH258756   4.779   6.412  17.249  0.7369 -0.0421 -0.1828
12422TIP3    H158757   4.818   6.328  17.274  1.1785  0.3122  0.3470
12422TIP3    H258758   4.823   6.436  17.168  3.1975  1.3393  1.4238
12423TIP3   OH258759   4.435   0.658   1.328 -0.9072  0.5508  0.7253
12423TIP3    H158760   4.412   0.565   1.333 -1.0501  0.5504  0.1572
12423TIP3    H258761   4.358   0.699   1.287 -1.8077  1.2832  2.9927
12424TIP3   OH258762   1.735   1.107   0.118 -0.0421 -0.3443 -0.7163
12424TIP3    H158763   1.662   1.054   0.087 -0.8676  0.6741 -0.5511
12424TIP3    H258764   1.757   1.164   0.045 -0.3024  0.2826 -0.3099
12425TIP3   OH258765   4.507   3.037   2.477  0.8364 -0.3055 -0.3434
12425TIP3    H158766   4.586   3.068   2.432  0.2130  0.8430 -0.6738
12425TIP3    H258767   4.517   2.942   2.479  0.4524 -0.5361 -3.7693
12426TIP3   OH258768   5.603   5.933   0.349 -0.2910 -0.2556 -0.2478
12426TIP3    H158769   5.689   5.896   0.365  0.7274  1.9647 -0.2559
12426TIP3    H258770   5.546   5.857   0.337  1.1575 -1.8406  2.0930
12427TIP3   OH258771   1.724   4.439   1.090  0.5460  0.2079  0.1467
12427TIP3    H158772   1.726   4.525   1.131  1.9878  0.2087  0.0986
12427TIP3    H258773   1.813   4.424   1.059  0.5294 -1.6540  0.8956
12428TIP3   OH258774   5.197   1.610  13.359 -0.6773  0.2922  0.1611
12428TIP3    H158775   5.233   1.597  13.447 -1.3915  0.6267  0.5090
12428TIP3    H258776   5.260   1.667  13.315  0.1356 -0.5915  0.1489
12429TIP3   OH258777   1.901   5.322  16.533  0.1734 -0.1879 -0.1542
12429TIP3    H158778   1.915   5.233  16.565  0.4448 -0.4652 -1.0177
12429TIP3    H258779   1.987   5.351  16.503  0.0234  0.2544 -0.1732
12430TIP3   OH258780   5.168   5.806   1.707  0.3381 -0.3206 -0.7143
12430TIP3    H158781   5.260   5.821   1.684  0.3859  0.5630 -0.0477
12430TIP3    H258782   5.162   5.713   1.725  1.1394 -0.3683 -0.6599
12431TIP3   OH258783   2.448   3.558   5.637 -0.4709  0.6821 -0.7206
12431TIP3    H158784   2.456   3.581   5.544 -1.0953  0.0402 -0.9413
12431TIP3    H258785   2.441   3.463   5.638 -0.7116  0.7012 -0.0309
12432TIP3   OH258786   1.841   1.188  10.991 -0.2924 -0.6167  0.7021
12432TIP3    H158787   1.779   1.218  10.924  0.1162  0.4989  0.8021
12432TIP3    H258788   1.900   1.129  10.945 -0.5641 -0.5662  0.2879
12433TIP3   OH258789   5.609   5.331   0.676  0.3780 -0.2230  0.2580
12433TIP3    H158790   5.682   5.311   0.735 -0.3049  0.9518  1.5750
12433TIP3    H258791   5.610   5.427   0.669  0.9007 -0.3594 -2.3128
12434TIP3   OH258792   3.509   4.202   1.695  0.0131 -0.0691 -0.0346
12434TIP3    H158793   3.427   4.245   1.671  0.1939 -0.0293 -0.6056
12434TIP3    H258794   3.519   4.220   1.789 -1.6483 -1.8122  0.5218
12435TIP3   OH258795   5.992   1.579  12.903  0.1438  0.2253 -0.0463
12435TIP3    H158796   5.916   1.520  12.904 -0.4794  1.0192 -0.0210
12435TIP3    H258797   6.028   1.569  12.816  1.2744 -1.7182  0.5670
12436TIP3   OH258798   5.170   0.298  15.035 -0.1985  0.5568  0.3497
12436TIP3    H158799   5.170   0.214  15.081 -0.0192  1.2422  1.6741
12436TIP3    H258800   5.261   0.329  15.042 -0.3280  0.9917  0.1340
12437TIP3   OH258801   1.833   0.991  12.597 -0.2183  0.0330  0.1142
12437TIP3    H158802   1.825   0.953  12.685  0.1460  0.0730  0.1631
12437TIP3    H258803   1.831   1.086  12.612 -0.2941  0.0397  0.0648
12438TIP3   OH258804   5.083   2.092   4.441 -0.2185  0.3878 -0.2205
12438TIP3    H158805   5.041   2.119   4.360  0.9743  1.2462 -0.5720
12438TIP3    H258806   5.040   2.145   4.509  0.2546  1.2128 -0.5655
12439TIP3   OH258807   1.220   0.100   2.633  0.2841  0.2336 -0.3872
12439TIP3    H158808   1.281   0.085   2.705  0.5458  4.0698  0.3997
12439TIP3    H258809   1.134   0.075   2.668  0.7597 -0.7152  0.1482
12440TIP3   OH258810   3.135   2.774  14.145  0.4517 -0.3636 -0.1540
12440TIP3    H158811   3.131   2.866  14.118  1.2390 -0.1330  0.4633
12440TIP3    H258812   3.218   2.767  14.194 -0.2230 -1.0995  0.9250
12441TIP3   OH258813   6.518   6.274  13.585 -0.7242 -0.7600  0.4171
12441TIP3    H158814   6.603   6.289  13.545 -1.7960  0.0943 -1.6733
12441TIP3    H258815   6.475   6.210  13.528 -2.9041  1.6771 -0.8488
12442TIP3   OH258816   3.488   2.099   0.344  0.2021 -0.7546  0.2045
12442TIP3    H158817   3.554   2.032   0.327  1.3617  0.7585 -1.6392
12442TIP3    H258818   3.416   2.051   0.384  1.0991 -3.0433 -0.7240
12443TIP3   OH258819   1.623   5.949   6.686 -0.2457  0.2724 -0.2266
12443TIP3    H158820   1.598   5.918   6.599  2.8814  0.1487 -1.1816
12443TIP3    H258821   1.621   5.871   6.742 -0.0417 -0.0970 -0.7335
12444TIP3   OH258822   1.369   0.379  16.940 -0.3610 -0.3206 -0.1009
12444TIP3    H158823   1.433   0.361  16.870  0.1156  1.3570 -0.1296
12444TIP3    H258824   1.382   0.307  17.002  3.1722  1.0471  1.0058
12445TIP3   OH258825   1.839   3.110   5.658  0.1753 -0.0626 -0.0535
12445TIP3    H158826   1.922   3.154   5.676  0.2406 -0.7959  1.6769
12445TIP3    H258827   1.773   3.178   5.671  0.4622  0.4964 -1.3326
12446TIP3   OH258828   0.197   4.028   0.602  0.0822  0.1684 -0.0357
12446TIP3    H158829   0.243   4.017   0.519 -0.3563 -0.9116 -0.1467
12446TIP3    H258830   0.220   3.951   0.653 -0.1948  0.4914  0.5929
12447TIP3   OH258831   2.859   4.902  11.730 -0.0390  0.3874 -0.1555
12447TIP3    H158832   2.826   4.849  11.803 -0.2383 -0.0785 -0.5817
12447TIP3    H258833   2.780   4.940  11.691 -0.0254 -0.1971 -0.7669
12448TIP3   OH258834   6.504   5.575  17.194 -0.4908 -0.0129  0.5997
12448TIP3    H158835   6.483   5.567  17.101 -1.0601 -0.0495  0.7259
12448TIP3    H258836   6.502   5.485  17.226 -1.2190  0.0763  0.8326
12449TIP3   OH258837   5.460   1.391   3.018 -0.1666 -0.4093  0.0365
12449TIP3    H158838   5.458   1.366   2.925 -0.3122 -1.2926  0.2699
12449TIP3    H258839   5.392   1.456   3.027 -0.0337 -0.1875 -0.5167
12450TIP3   OH258840   6.523   3.807   3.430 -0.0342 -0.5623 -0.7652
12450TIP3    H158841   6.516   3.841   3.341 -0.5563  0.3200 -0.3979
12450TIP3    H258842   6.616   3.783   3.438  0.3503  0.7381 -1.0638
12451TIP3   OH258843   5.203   6.359   0.259  0.4309 -0.1244 -0.2016
12451TIP3    H158844   5.112   6.381   0.236  0.4766  0.5328  0.2473
12451TIP3    H258845   5.241   6.329   0.176  0.0412  0.3934 -0.5785
12452TIP3   OH258846   1.236   3.748  12.442  0.2183  1.1833  0.2721
12452TIP3    H158847   1.180   3.793  12.379  1.7096  1.3889 -0.9688
12452TIP3    H258848   1.308   3.809  12.458  1.7983 -0.3220 -0.7264
12453TIP3   OH258849   4.819   5.736  12.609  0.6176 -0.1830 -0.2551
12453TIP3    H158850   4.847   5.820  12.574  0.9422 -0.4081 -0.5468
12453TIP3    H258851   4.888   5.675  12.583  1.5496 -0.1295  1.8633
12454TIP3   OH258852   1.277   2.863  11.780  0.3437 -0.1104 -0.2597
12454TIP3    H158853   1.190   2.900  11.762  0.3176  0.0398  0.1582
12454TIP3    H258854   1.301   2.819  11.699  0.4988  1.0675 -0.8869
12455TIP3   OH258855   6.300   1.667   5.324  0.0077 -0.4202  0.0219
12455TIP3    H158856   6.311   1.597   5.388 -2.1770  0.2286  1.1938
12455TIP3    H258857   6.389   1.700   5.310  0.4461  1.4127  5.1114
12456TIP3   OH258858   5.712   0.189   4.450  0.1256  0.8251  0.2413
12456TIP3    H158859   5.740   0.121   4.512 -1.6128  0.9723  1.2410
12456TIP3    H258860   5.791   0.207   4.398  1.2150 -0.4067  1.3720
12457TIP3   OH258861   4.963   5.219   5.387 -0.2134  0.6083 -0.2597
12457TIP3    H158862   5.058   5.218   5.378  0.0321  0.8324  1.9050
12457TIP3    H258863   4.941   5.132   5.421 -0.7881  0.5605 -0.7389
12458TIP3   OH258864   6.442   3.972  16.003 -0.6352 -0.3906  0.1628
12458TIP3    H158865   6.476   3.916  16.072 -0.2397 -1.3703 -0.7895
12458TIP3    H258866   6.347   3.958  16.004 -0.4854 -1.5835 -0.4574
12459TIP3   OH258867   3.168   2.302   2.018  0.1672  0.2976  0.4036
12459TIP3    H158868   3.258   2.319   2.044 -0.5200  1.9180  1.9289
12459TIP3    H258869   3.133   2.246   2.086 -0.1165  0.0402  0.0528
12460TIP3   OH258870   5.195   5.519   2.338 -0.5189  0.0783  0.3963
12460TIP3    H158871   5.110   5.496   2.375 -0.6961  1.3037  0.8066
12460TIP3    H258872   5.175   5.545   2.248 -0.3653 -0.9679  0.0426
12461TIP3   OH258873   1.506   1.439  13.285 -0.3329 -0.1397 -0.2906
12461TIP3    H158874   1.456   1.520  13.296  0.6616  0.1929  2.5327
12461TIP3    H258875   1.542   1.445  13.196 -1.6466  1.6929 -0.7524
12462TIP3   OH258876   4.482   4.634  12.904  0.0843 -0.2569 -1.0010
12462TIP3    H158877   4.567   4.597  12.927 -0.0660  0.3932  0.7846
12462TIP3    H258878   4.502   4.723  12.876 -0.0491  0.2901  0.5087
12463TIP3   OH258879   1.323   3.196  12.790 -0.0520  0.5083 -0.1980
12463TIP3    H158880   1.249   3.205  12.851 -1.2205 -1.4515 -1.2059
12463TIP3    H258881   1.380   3.131  12.831  0.4559  1.0305 -0.0580
12464TIP3   OH258882   5.598   3.502  16.284 -0.5633  0.6029 -0.1546
12464TIP3    H158883   5.661   3.572  16.303  1.5218 -0.8011 -1.4432
12464TIP3    H258884   5.637   3.424  16.323 -2.0819 -0.1331 -0.0552
12465TIP3   OH258885   0.883   5.479   2.378  0.4296 -0.3308 -0.3348
12465TIP3    H158886   0.827   5.440   2.445  0.5575  1.1150  0.6610
12465TIP3    H258887   0.825   5.538   2.330  1.1303  1.5218  0.9966
12466TIP3   OH258888   2.971   0.569  16.529 -0.2466 -0.5061  0.4421
12466TIP3    H158889   2.924   0.641  16.571 -0.6837  0.3400 -1.4011
12466TIP3    H258890   2.913   0.493  16.541 -0.0710 -0.4497  1.8503
12467TIP3   OH258891   2.216   1.373   0.801 -0.4232  0.1294 -0.0001
12467TIP3    H158892   2.286   1.436   0.780  0.0477 -0.7375 -1.1273
12467TIP3    H258893   2.242   1.336   0.885  0.0643  0.3714 -0.0370
12468TIP3   OH258894   3.802   2.811   2.704 -0.0926 -0.2308  0.6620
12468TIP3    H158895   3.848   2.848   2.779  1.8731  1.2600 -1.1484
12468TIP3    H258896   3.871   2.776   2.648 -1.6215 -3.0307  0.3497
12469TIP3   OH258897   4.041   2.543   1.445 -0.7109  0.5415 -0.1871
12469TIP3    H158898   4.129   2.575   1.425  0.0328 -1.0858  0.2938
12469TIP3    H258899   3.996   2.619   1.482  0.1767  1.6520 -1.3164
12470TIP3   OH258900   6.321   0.699  17.131 -0.3100 -0.5850 -0.4572
12470TIP3    H158901   6.277   0.618  17.156 -1.5417  0.3477  0.5368
12470TIP3    H258902   6.295   0.763  17.198 -0.1639  0.8905 -1.7353
12471TIP3   OH258903   0.645   3.224  13.790 -0.1058  0.4949 -0.3800
12471TIP3    H158904   0.567   3.181  13.826  0.4533  0.3888  0.7673
12471TIP3    H258905   0.684   3.268  13.866 -0.0229  2.0559 -1.2801
12472TIP3   OH258906   1.614   3.892   1.420  0.2590  0.1621  0.1164
12472TIP3    H158907   1.539   3.951   1.418  0.3213  0.2598  0.7392
12472TIP3    H258908   1.581   3.810   1.382 -0.1724  0.1918  0.4211
12473TIP3   OH258909   0.067   6.748   0.474 -0.1010  0.2413 -0.4629
12473TIP3    H158910  -0.003   6.706   0.425 -1.4573 -0.2702  1.7653
12473TIP3    H258911   0.137   6.683   0.477 -0.3509 -0.0511 -0.9152
12474TIP3   OH258912   2.147   2.222   4.469 -0.0905  0.1804 -0.3258
12474TIP3    H158913   2.161   2.253   4.380  0.8037 -1.2024 -0.6996
12474TIP3    H258914   2.176   2.131   4.468  0.7514  0.3676  1.5881
12475TIP3   OH258915   3.713   0.564  14.321 -0.3300  0.3391  0.2660
12475TIP3    H158916   3.623   0.585  14.297 -0.6614  1.4262  2.1762
12475TIP3    H258917   3.724   0.472  14.297 -1.8244  0.2974 -0.3644
12476TIP3   OH258918   1.467   3.702   0.804 -0.3628 -0.2376 -0.1249
12476TIP3    H158919   1.400   3.690   0.871  1.5011  1.0195  2.1434
12476TIP3    H258920   1.549   3.683   0.849  0.8607 -3.0717 -3.1419
12477TIP3   OH258921   4.401   0.277  17.058 -0.0220 -0.4912  0.2333
12477TIP3    H158922   4.481   0.227  17.045  0.1769 -0.3238  0.7772
12477TIP3    H258923   4.408   0.350  16.997  0.2047 -0.5154  0.2289
12478TIP3   OH258924   2.188   5.182  16.689  0.6548  0.4833  0.1268
12478TIP3    H158925   2.168   5.090  16.707 -0.1349  0.6939  0.3775
12478TIP3    H258926   2.282   5.190  16.705  0.8999 -0.4673 -0.7331
12479TIP3   OH258927   2.321   6.809   0.171  0.0875  0.1669  0.2211
12479TIP3    H158928   2.411   6.841   0.167 -0.0921  0.8234  1.1435
12479TIP3    H258929   2.310   6.782   0.262 -0.8338  0.6242  0.2486
12480TIP3   OH258930   4.839   1.947  14.968 -0.0048  0.0548 -0.1689
12480TIP3    H158931   4.820   1.866  15.015 -0.6917  0.7358  0.7634
12480TIP3    H258932   4.812   2.017  15.028  0.7482  0.9837 -0.8724
12481TIP3   OH258933   3.653   5.308  12.176 -0.0768  0.5926 -0.0772
12481TIP3    H158934   3.748   5.300  12.189 -0.4047 -1.4255  1.6757
12481TIP3    H258935   3.634   5.251  12.101 -0.3580 -2.8312  2.3818
12482TIP3   OH258936   6.246   2.277  13.918  0.1941 -0.1407  0.1727
12482TIP3    H158937   6.313   2.224  13.963  0.6416 -0.0875 -0.4107
12482TIP3    H258938   6.216   2.221  13.846  0.3035  0.1972 -0.1402
12483TIP3   OH258939   1.644   0.805   2.255 -0.3723 -0.9357 -0.4796
12483TIP3    H158940   1.684   0.720   2.237 -0.6723 -1.4432  1.0979
12483TIP3    H258941   1.570   0.785   2.313 -0.4067  0.4087 -0.0200
12484TIP3   OH258942   2.402   4.497  13.524 -0.1419 -0.0155  0.4034
12484TIP3    H158943   2.344   4.549  13.469 -1.1896 -0.7313  0.7891
12484TIP3    H258944   2.369   4.511  13.613  0.0215 -0.7535  0.5841
12485TIP3   OH258945   6.283   1.145  16.010 -0.1840 -0.2693  0.0940
12485TIP3    H158946   6.187   1.147  16.013 -0.1833  0.7112 -0.1825
12485TIP3    H258947   6.310   1.203  16.080  0.1802  0.7591 -0.8777
12486TIP3   OH258948   0.702   3.528   2.746  0.3788  0.1919 -0.6737
12486TIP3    H158949   0.633   3.472   2.710 -0.1180  1.2450 -1.3884
12486TIP3    H258950   0.773   3.467   2.765 -0.5339 -0.8446 -0.4161
12487TIP3   OH258951   3.515   1.313  12.798  0.4903 -0.0030  0.1293
12487TIP3    H158952   3.430   1.358  12.802  0.2508 -0.3758 -0.5970
12487TIP3    H258953   3.572   1.373  12.749 -0.4594 -1.4010 -2.9018
12488TIP3   OH258954   6.338   2.947   0.355  0.3181  0.2102 -0.3437
12488TIP3    H158955   6.370   3.037   0.342  2.2557 -0.1358  1.2969
12488TIP3    H258956   6.404   2.908   0.413 -1.1168 -1.9055 -0.0485
12489TIP3   OH258957   4.316   2.412   5.047 -0.0988  0.1833 -0.0321
12489TIP3    H158958   4.349   2.429   5.135 -0.1200 -0.6726  0.1417
12489TIP3    H258959   4.254   2.340   5.058 -0.0620  0.0375 -0.7567
12490TIP3   OH258960   5.931   1.451  11.483  0.3179 -0.4925  0.4287
12490TIP3    H158961   5.917   1.392  11.557  1.0834  0.1079  1.0681
12490TIP3    H258962   5.878   1.414  11.412 -1.9981 -0.0228  1.8215
12491TIP3   OH258963   5.492   0.732   4.543  0.1457 -0.9545 -0.4280
12491TIP3    H158964   5.567   0.791   4.533 -2.0792  2.4287  1.1877
12491TIP3    H258965   5.517   0.673   4.614  1.2983  0.0773  0.0565
12492TIP3   OH258966   0.269   2.291   0.864 -0.0424 -0.1629 -0.7092
12492TIP3    H158967   0.178   2.315   0.846  0.0612  0.6940 -0.1396
12492TIP3    H258968   0.267   2.251   0.950  0.1894  0.3401 -0.4650
12493TIP3   OH258969   3.873   2.612   1.716 -0.3404  0.1085 -0.3386
12493TIP3    H158970   3.806   2.598   1.782  1.5290  0.4566  1.7418
12493TIP3    H258971   3.852   2.697   1.678 -2.0295 -0.5652 -0.9885
12494TIP3   OH258972   0.858   6.003   0.999 -0.3898 -0.1540  0.8164
12494TIP3    H158973   0.910   5.947   1.057  1.2300  2.5303  2.1828
12494TIP3    H258974   0.828   6.074   1.055  0.4972  2.1293 -1.4067
12495TIP3   OH258975   4.611   0.720  15.691  0.5022  0.2872 -0.0495
12495TIP3    H158976   4.612   0.663  15.614  1.8373  0.2335 -0.0121
12495TIP3    H258977   4.641   0.664  15.762 -0.2187  0.4824  0.4141
12496TIP3   OH258978   4.835   4.632  12.405  0.3877 -0.3261 -0.5301
12496TIP3    H158979   4.821   4.579  12.483 -0.0150  0.8610  0.2247
12496TIP3    H258980   4.753   4.680  12.393  0.6674 -0.0150 -1.3131
12497TIP3   OH258981   0.397   4.231  11.300  0.4896 -0.1341  0.3827
12497TIP3    H158982   0.372   4.215  11.209  2.0865 -0.0154 -0.1045
12497TIP3    H258983   0.339   4.175  11.351 -1.5466  0.9940 -0.5729
12498TIP3   OH258984   1.170   2.726  16.185  0.4374 -0.1128 -0.3701
12498TIP3    H158985   1.094   2.671  16.166  0.7288 -1.4430  1.9770
12498TIP3    H258986   1.140   2.785  16.255  0.9943  0.7544 -0.8446
12499TIP3   OH258987   6.248   5.560   0.614 -0.1196 -0.3778  0.1720
12499TIP3    H158988   6.282   5.648   0.630 -0.5036 -0.2433  0.2478
12499TIP3    H258989   6.213   5.564   0.525  0.6851 -0.7127 -0.1701
12500TIP3   OH258990   3.713   5.443  17.016 -0.0118 -0.2206  0.3331
12500TIP3    H158991   3.752   5.442  16.928 -0.2067  0.9182  0.2264
12500TIP3    H258992   3.768   5.502  17.066  0.1362 -0.9187  1.0150
12501TIP3   OH258993   0.483   1.362  14.128 -0.2330 -0.6476 -0.3627
12501TIP3    H158994   0.488   1.354  14.033  0.5487 -0.3936 -0.3505
12501TIP3    H258995   0.531   1.286  14.161  1.8045  0.6365 -0.2051
12502TIP3   OH258996   5.553   0.604  12.140  0.0384 -0.1632  0.3637
12502TIP3    H158997   5.462   0.576  12.133  0.7128 -2.5862  0.6498
12502TIP3    H258998   5.569   0.612  12.234  0.1375  0.2625  0.3141
12503TIP3   OH258999   5.872   2.421  16.123 -0.1937 -0.1342 -0.0255
12503TIP3    H159000   5.783   2.448  16.101 -0.3504 -0.1260  0.5924
12503TIP3    H259001   5.893   2.470  16.202  1.1199  1.4001 -1.2411
12504TIP3   OH259002   0.938   6.011   5.205  0.8341 -0.1088  0.3916
12504TIP3    H159003   0.974   6.095   5.235  1.9014 -0.7086  0.8712
12504TIP3    H259004   0.868   6.034   5.145  1.4625  1.1362  0.1065
12505TIP3   OH259005   4.841   2.631   2.400 -0.5379  0.0283  0.4625
12505TIP3    H159006   4.907   2.576   2.356 -0.4330  1.4667 -1.2654
12505TIP3    H259007   4.758   2.590   2.378 -0.3750 -0.2576  0.3681
12506TIP3   OH259008   1.176   1.821   3.605  0.2839 -0.4412  0.2178
12506TIP3    H159009   1.106   1.819   3.671 -1.6259 -0.1161 -1.7052
12506TIP3    H259010   1.226   1.741   3.621 -0.9567 -1.0661  1.1795
12507TIP3   OH259011   2.008   0.797  11.571  0.6241  0.0580  0.9891
12507TIP3    H159012   2.015   0.884  11.611  1.2786  0.3212  0.3126
12507TIP3    H259013   1.914   0.781  11.566  0.4848 -0.4330  3.5687
12508TIP3   OH259014   3.957   3.329   2.486  0.0930 -0.5365 -0.0817
12508TIP3    H159015   3.957   3.265   2.415  1.5921  1.4254 -1.9735
12508TIP3    H259016   3.864   3.340   2.507 -0.2868 -2.2417 -0.6844
12509TIP3   OH259017   6.569   0.003   3.473  0.2514  0.0908 -0.1652
12509TIP3    H159018   6.512   0.016   3.549  1.0729 -0.1845  0.5163
12509TIP3    H259019   6.568   0.087   3.427  0.8383  0.7127  0.9252
12510TIP3   OH259020   0.050   1.614   2.486 -0.1715 -0.1683  0.2070
12510TIP3    H159021   0.081   1.541   2.432 -1.3784  0.5230 -1.5356
12510TIP3    H259022  -0.000   1.669   2.425 -0.3000  1.4982  1.7192
12511TIP3   OH259023   4.503   0.466   4.452  0.2356  0.0468 -0.0012
12511TIP3    H159024   4.418   0.492   4.486  0.5418  1.0112  0.0765
12511TIP3    H259025   4.494   0.373   4.432 -0.1613 -0.4251  2.0956
12512TIP3   OH259026   5.111   3.093   1.897  0.2980  0.0261  0.1745
12512TIP3    H159027   5.058   3.067   1.822  1.0875  1.6687 -1.0115
12512TIP3    H259028   5.058   3.158   1.943  0.6601  0.6061 -0.2046
12513TIP3   OH259029   5.832   4.021  11.677  0.0512  0.1851  0.3410
12513TIP3    H159030   5.770   3.992  11.610 -1.3268  2.2164  0.6569
12513TIP3    H259031   5.845   3.943  11.732 -2.7274 -0.2179  0.6200
12514TIP3   OH259032   0.265   0.360  16.684 -0.1820 -0.3756  0.1608
12514TIP3    H159033   0.184   0.319  16.716 -0.6660  1.0635  0.8931
12514TIP3    H259034   0.335   0.306  16.720 -0.8046 -1.2985  0.0183
12515TIP3   OH259035   5.496   1.448   4.291 -0.3222  0.0470 -0.4807
12515TIP3    H159036   5.448   1.517   4.246  0.4313 -1.7301 -4.3895
12515TIP3    H259037   5.471   1.367   4.246  1.4840 -1.8125  1.5785
12516TIP3   OH259038   4.931   3.648  11.424 -0.1063 -0.0448  0.5251
12516TIP3    H159039   4.910   3.716  11.487  3.5637  0.2923  1.6000
12516TIP3    H259040   4.965   3.696  11.348  1.8672 -0.5618  1.0286
12517TIP3   OH259041   3.317   6.482   2.020  0.2981  0.6241 -0.3564
12517TIP3    H159042   3.358   6.503   1.937  0.1530 -1.6277 -1.0605
12517TIP3    H259043   3.227   6.514   2.011  0.6786  1.7165 -0.4564
12518TIP3   OH259044   2.832   1.004  14.178 -0.1294  0.4686 -0.1842
12518TIP3    H159045   2.895   0.942  14.214 -0.1304  0.5956  0.0427
12518TIP3    H259046   2.771   0.951  14.128 -1.2756  0.0204  1.5759
12519TIP3   OH259047   2.966   5.124   5.193 -0.0372  0.0818 -0.5332
12519TIP3    H159048   3.033   5.191   5.208 -0.9276  1.1375 -1.0998
12519TIP3    H259049   2.975   5.102   5.100  0.1567 -0.4941 -0.3826
12520TIP3   OH259050   0.352   5.693  15.472  0.0644 -0.3599  0.3508
12520TIP3    H159051   0.263   5.662  15.455 -0.0476  0.7720 -1.2873
12520TIP3    H259052   0.404   5.613  15.473 -0.7462 -0.9173 -0.2381
12521TIP3   OH259053   2.350   5.811  14.942  0.1195 -0.8330 -0.5364
12521TIP3    H159054   2.411   5.745  14.908 -1.4967 -3.2440  0.8885
12521TIP3    H259055   2.361   5.807  15.037 -0.1647  0.8800 -0.4009
12522TIP3   OH259056   4.892   3.567   2.070  0.1271 -0.0977 -0.3855
12522TIP3    H159057   4.898   3.562   2.166 -0.4692  3.7769 -0.0027
12522TIP3    H259058   4.799   3.579   2.053  0.1661 -1.2703 -1.5614
12523TIP3   OH259059   3.525   5.837  13.201  0.5542  0.1388  0.3329
12523TIP3    H159060   3.459   5.848  13.269  0.6164  1.6873  0.1820
12523TIP3    H259061   3.549   5.926  13.176  1.6464 -0.3953 -0.6434
12524TIP3   OH259062   0.366   4.965  15.731  0.0238 -0.3457  0.1015
12524TIP3    H159063   0.285   4.923  15.704 -0.7367  0.4639  1.0410
12524TIP3    H259064   0.431   4.936  15.667 -1.1153 -0.5861 -0.9778
12525TIP3   OH259065   2.621   6.444  12.291 -0.1967 -0.1153  0.5220
12525TIP3    H159066   2.535   6.453  12.250 -0.6855 -1.1531  1.2742
12525TIP3    H259067   2.650   6.534  12.306 -0.5744  0.2780 -0.8822
12526TIP3   OH259068   5.802   1.201   0.381  0.0296  0.4881  0.1779
12526TIP3    H159069   5.733   1.187   0.316 -0.7805  3.4225  0.2537
12526TIP3    H259070   5.762   1.177   0.464  0.8572 -2.6530 -0.2143
12527TIP3   OH259071   5.724   2.483   3.442 -0.0284 -0.6911  0.5212
12527TIP3    H159072   5.634   2.512   3.425  0.6038  1.5169  0.5889
12527TIP3    H259073   5.725   2.464   3.536 -0.5164 -1.1411  0.4419
12528TIP3   OH259074   0.274   0.131  10.683  0.6217  0.2712 -0.3955
12528TIP3    H159075   0.232   0.076  10.618  0.3158  0.6399 -0.5172
12528TIP3    H259076   0.256   0.221  10.653  1.0406  0.4346 -0.1609
12529TIP3   OH259077   5.678   1.867   0.055 -0.5732 -0.4455 -0.6922
12529TIP3    H159078   5.735   1.851   0.130  0.1329 -0.5224 -1.2326
12529TIP3    H259079   5.671   1.781   0.012  1.5424  0.1262 -2.4327
12530TIP3   OH259080   0.391   5.959   1.201  0.4840  0.0158 -0.0336
12530TIP3    H159081   0.429   5.871   1.207  0.4800 -0.1034 -1.5742
12530TIP3    H259082   0.303   5.949   1.239  0.6359 -0.5397  0.1841
12531TIP3   OH259083   0.213   0.211   0.924 -0.2946 -0.2336  0.7069
12531TIP3    H159084   0.186   0.277   0.988  1.0650  0.8481  0.2240
12531TIP3    H259085   0.257   0.144   0.976 -2.2862 -1.1571  1.2864
12532TIP3   OH259086   0.461   0.108  16.379  0.1640  0.4511  0.5114
12532TIP3    H159087   0.549   0.086  16.347 -0.0879  0.4352 -0.1693
12532TIP3    H259088   0.416   0.145  16.304  0.8586  4.2730  1.7673
12533TIP3   OH259089   3.756   0.879  12.563 -0.5596 -0.7904  0.0606
12533TIP3    H159090   3.832   0.836  12.601  0.3901  0.1436 -0.6991
12533TIP3    H259091   3.738   0.954  12.620 -0.3888 -0.5398 -0.2100
12534TIP3   OH259092   6.226   1.542  14.148 -0.5782 -0.3841 -0.1490
12534TIP3    H159093   6.200   1.464  14.099 -1.3807 -1.9804  2.5961
12534TIP3    H259094   6.158   1.607  14.127 -0.6786 -0.8589 -1.3794
12535TIP3   OH259095   6.759   0.823   5.162  0.6881  0.0742  0.4410
12535TIP3    H159096   6.832   0.770   5.130  2.0765  1.3025  1.4085
12535TIP3    H259097   6.742   0.886   5.092  0.5751 -0.1970  0.2248
12536TIP3   OH259098   5.711   5.734   0.770 -0.4761  0.3442  0.2681
12536TIP3    H159099   5.768   5.677   0.718  2.3255  0.2140  3.1705
12536TIP3    H259100   5.662   5.673   0.826  0.2371  0.6020  1.2022
12537TIP3   OH259101   1.810   5.157  13.490 -0.2414  0.0689  0.0537
12537TIP3    H159102   1.809   5.229  13.428 -1.5741  0.2720  0.2933
12537TIP3    H259103   1.792   5.079  13.438  0.7996 -0.0621 -0.1387
12538TIP3   OH259104   3.178   1.716  16.875 -0.4632 -0.5358  0.0300
12538TIP3    H159105   3.175   1.810  16.889  2.2315 -0.3241 -0.4298
12538TIP3    H259106   3.234   1.682  16.945 -0.0420 -1.5666 -0.7776
12539TIP3   OH259107   1.667   1.565  10.623 -0.5375 -0.2708 -0.2929
12539TIP3    H159108   1.656   1.502  10.552  0.1116 -1.8634  0.9353
12539TIP3    H259109   1.581   1.571  10.664  0.2314 -3.9099  2.3086
12540TIP3   OH259110   2.187   1.992   3.165 -0.3272  0.4244  0.4413
12540TIP3    H159111   2.188   1.903   3.202  0.0022  0.9596  1.7577
12540TIP3    H259112   2.094   2.012   3.154 -0.4250 -0.9942 -2.2319
12541TIP3   OH259113   5.199   3.234   2.996  0.4755  0.2350  0.6432
12541TIP3    H159114   5.145   3.215   3.073 -0.6918 -1.3246 -0.4973
12541TIP3    H259115   5.271   3.171   3.001  1.3686  1.2516  1.2992
12542TIP3   OH259116   2.918   1.805  12.517  0.5533 -0.4439  0.8919
12542TIP3    H159117   3.011   1.783  12.517  0.4552 -0.8965 -0.0897
12542TIP3    H259118   2.891   1.798  12.425 -0.0671  1.3362  0.9101
12543TIP3   OH259119   1.676   4.547  12.381 -0.4427  0.0290 -0.4265
12543TIP3    H159120   1.626   4.608  12.327  1.9565  1.2007 -1.4889
12543TIP3    H259121   1.722   4.604  12.444 -0.6570 -1.0225  0.7170
12544TIP3   OH259122   5.835   6.033  13.474 -0.6858  0.1330 -0.1304
12544TIP3    H159123   5.792   5.957  13.436  0.0079  0.1975 -1.0687
12544TIP3    H259124   5.911   5.998  13.520 -0.8530  0.1766  0.1836
12545TIP3   OH259125   2.005   2.602  14.229  0.3493 -0.0880 -0.4837
12545TIP3    H159126   2.054   2.545  14.170 -0.4360  1.2538 -2.5280
12545TIP3    H259127   1.943   2.544  14.273  3.4836 -1.8180  2.0724
12546TIP3   OH259128   3.692   2.516   5.436  0.0166  0.2808 -0.5332
12546TIP3    H159129   3.769   2.544   5.485  0.5694  0.3982 -1.4461
12546TIP3    H259130   3.708   2.547   5.347 -1.0584  0.2532 -0.7520
12547TIP3   OH259131   1.014   4.972  14.473  0.3353  0.1425  0.0498
12547TIP3    H159132   1.068   4.915  14.418  0.3801  0.9984 -0.8158
12547TIP3    H259133   1.069   4.991  14.549  0.5811 -0.4045  0.0107
12548TIP3   OH259134   4.112   5.002  11.491 -0.1007  0.2908 -0.2348
12548TIP3    H159135   4.171   5.078  11.484 -1.7554  1.5528 -1.1667
12548TIP3    H259136   4.122   4.956  11.408 -0.2602  0.3885 -0.3090
12549TIP3   OH259137   1.277   5.330   5.941  0.4162 -0.5018  0.2254
12549TIP3    H159138   1.335   5.405   5.957 -0.0778  0.4158 -1.8625
12549TIP3    H259139   1.197   5.369   5.906 -0.2442 -1.9520  0.0416
12550TIP3   OH259140   3.937   2.645   5.579 -0.5262  0.1735 -0.1140
12550TIP3    H159141   3.991   2.724   5.576  0.3766 -0.4054  0.1063
12550TIP3    H259142   3.861   2.669   5.630 -0.0008  0.7556  0.4137
12551TIP3   OH259143   4.068   5.987  15.993  0.3439 -0.2724 -0.5923
12551TIP3    H159144   4.030   5.905  15.960  1.2231 -0.7403 -0.4789
12551TIP3    H259145   4.115   5.961  16.072 -0.9826  0.6843  0.5361
12552TIP3   OH259146   4.398   5.738  13.500  0.1952 -0.2471 -0.3985
12552TIP3    H159147   4.353   5.656  13.523  0.8960 -0.4127  0.4490
12552TIP3    H259148   4.483   5.709  13.467  1.2020  0.1583  1.6552
12553TIP3   OH259149   3.008   3.335   2.241  0.8207  0.1654  0.1410
12553TIP3    H159150   3.036   3.410   2.294 -0.4519  0.1952  0.8021
12553TIP3    H259151   3.074   3.267   2.259  1.4411  0.7963  0.2916
12554TIP3   OH259152   1.931   5.682   4.626 -0.1859 -0.3627 -0.6502
12554TIP3    H159153   1.966   5.746   4.564  0.5880  0.5641  0.6840
12554TIP3    H259154   1.963   5.712   4.711 -2.3056 -0.8246  0.3705
12555TIP3   OH259155   0.536   0.299  11.818  0.3758 -0.0118  0.0058
12555TIP3    H159156   0.456   0.274  11.771 -0.2767  0.7744  0.6631
12555TIP3    H259157   0.552   0.226  11.878  0.9846 -0.8330 -1.1157
12556TIP3   OH259158   2.785   2.897  12.872  0.9672  0.1655  0.5847
12556TIP3    H159159   2.762   2.822  12.927 -1.1782 -0.2419 -0.7341
12556TIP3    H259160   2.850   2.863  12.811  0.1605 -0.5859  0.1272
12557TIP3   OH259161   0.348   2.778   3.752  0.2139 -0.0887 -0.0461
12557TIP3    H159162   0.384   2.865   3.735  0.7761 -0.5095 -1.1419
12557TIP3    H259163   0.366   2.729   3.672 -0.4879 -1.0893  0.3859
12558TIP3   OH259164   0.927   3.251  13.690 -0.7386 -0.1900  0.4226
12558TIP3    H159165   0.930   3.194  13.767  0.1502 -0.3219  0.3024
12558TIP3    H259166   0.838   3.284  13.688 -0.8777 -0.4886  1.2919
12559TIP3   OH259167   4.281   0.467   5.617 -0.0792  0.0278  0.4980
12559TIP3    H159168   4.353   0.489   5.557 -0.0293 -0.6258  0.3174
12559TIP3    H259169   4.254   0.552   5.653  0.9398  0.2597  0.7570
12560TIP3   OH259170   5.742   5.371   3.520 -0.1615 -0.2254  0.4576
12560TIP3    H159171   5.818   5.428   3.507 -0.6380  0.0475 -1.4129
12560TIP3    H259172   5.694   5.376   3.437 -2.1659 -0.4916  1.5520
12561TIP3   OH259173   2.166   5.263   5.848 -0.1531 -0.0081  0.6923
12561TIP3    H159174   2.163   5.342   5.903  2.3556 -0.3177  1.3798
12561TIP3    H259175   2.171   5.191   5.911  0.7154 -0.4931  0.0798
12562TIP3   OH259176   6.280   5.885  16.724  0.1394 -0.4526  0.7447
12562TIP3    H159177   6.332   5.895  16.803  1.2108 -1.7648  0.2346
12562TIP3    H259178   6.261   5.975  16.696  2.1687  0.0655  0.9275
12563TIP3   OH259179   2.665   4.017  16.793 -0.0874  0.5324  0.3532
12563TIP3    H159180   2.684   3.965  16.715  0.5490  0.5463  0.4964
12563TIP3    H259181   2.569   4.020  16.796 -0.1244  0.6459 -0.5003
12564TIP3   OH259182   3.477   4.746  13.281 -0.0451  0.2271  0.4745
12564TIP3    H159183   3.472   4.657  13.316  0.4481  0.2513  0.6176
12564TIP3    H259184   3.464   4.736  13.187  0.6951 -0.0779  0.4001
12565TIP3   OH259185   2.667   4.740   3.208  0.5347  0.1492  0.5155
12565TIP3    H159186   2.594   4.706   3.157  0.4302  1.3260 -0.1590
12565TIP3    H259187   2.708   4.805   3.150  2.8163 -1.2740  0.4163
12566TIP3   OH259188   4.019   5.511  15.175  0.5377  0.1643  0.2045
12566TIP3    H159189   3.931   5.476  15.188  0.9659 -0.7729  0.7353
12566TIP3    H259190   4.017   5.552  15.089 -0.7821  1.3265  0.7479
12567TIP3   OH259191   4.553   1.774   0.511 -0.6074  0.2637 -0.7018
12567TIP3    H159192   4.495   1.723   0.567  1.9782 -1.6124  0.4909
12567TIP3    H259193   4.527   1.751   0.422 -2.6436  0.7063 -0.2675
12568TIP3   OH259194   0.468   0.358   0.766  0.2632  0.9535 -0.4104
12568TIP3    H159195   0.487   0.296   0.695  0.6509  0.4066  0.1574
12568TIP3    H259196   0.412   0.309   0.826 -1.4172  1.9328 -1.1105
12569TIP3   OH259197   3.592   5.623   2.197 -0.5789  0.4958  0.2053
12569TIP3    H159198   3.631   5.579   2.272  0.1975  2.4511  1.0051
12569TIP3    H259199   3.556   5.552   2.144  0.4607 -1.0691  1.4969
12570TIP3   OH259200   4.524   4.263   0.726  0.5097  0.3032 -0.1887
12570TIP3    H159201   4.545   4.357   0.723  0.2156  0.4324  1.1891
12570TIP3    H259202   4.466   4.250   0.651  0.1570  1.3410 -0.1170
12571TIP3   OH259203   4.917   3.857   4.696 -0.3969 -0.4936  0.0772
12571TIP3    H159204   4.964   3.843   4.778  1.7187 -1.7004 -1.2400
12571TIP3    H259205   4.909   3.952   4.689  1.0487 -0.2813  0.8404
12572TIP3   OH259206   5.346   4.804   3.621 -0.5815 -0.0699  0.2162
12572TIP3    H159207   5.279   4.758   3.571  0.5576 -1.6799  0.0697
12572TIP3    H259208   5.363   4.884   3.571 -1.9009  0.0435 -0.0845
12573TIP3   OH259209   0.306   5.954   0.854 -0.7129 -0.6360 -0.4724
12573TIP3    H159210   0.289   5.883   0.917 -1.3864  0.1150  0.2205
12573TIP3    H259211   0.231   6.013   0.865  2.7285  3.6789  3.7661
12574TIP3   OH259212   3.872   5.949  11.514 -0.4053 -0.2043  0.1238
12574TIP3    H159213   3.968   5.942  11.512 -0.2669  1.3484  0.5229
12574TIP3    H259214   3.851   6.011  11.445 -1.2527 -1.4184 -0.7533
12575TIP3   OH259215   5.234   3.684  11.770  0.3371 -0.3001  0.1724
12575TIP3    H159216   5.326   3.684  11.798  0.3855 -0.1404  0.0211
12575TIP3    H259217   5.214   3.776  11.754 -0.2523 -0.1748  1.4768
12576TIP3   OH259218   0.862   2.995   3.073 -0.5702  0.2536  0.5319
12576TIP3    H159219   0.922   3.034   3.137  1.6160 -3.0139  0.6850
12576TIP3    H259220   0.801   2.943   3.126 -0.2534 -0.5699  0.0946
12577TIP3   OH259221   1.066   1.830   0.392 -0.0292 -0.1830  0.9554
12577TIP3    H159222   1.123   1.764   0.352 -1.2035  0.1644 -1.4433
12577TIP3    H259223   0.981   1.817   0.350 -0.6223  2.0213  1.3477
12578TIP3   OH259224   4.299   6.400  16.002 -0.5074 -0.1084  0.1134
12578TIP3    H159225   4.278   6.329  15.941  1.6473 -0.1111 -0.6846
12578TIP3    H259226   4.215   6.443  16.018 -1.4522 -1.3454 -1.2706
12579TIP3   OH259227   6.772   5.979   5.519  0.3784 -0.8195 -0.8028
12579TIP3    H159228   6.847   5.924   5.540 -0.3729 -2.3470 -1.8776
12579TIP3    H259229   6.798   6.027   5.440  1.3203  1.0304  0.5714
12580TIP3   OH259230   2.514   4.240  13.758  0.2030  0.1804  0.5458
12580TIP3    H159231   2.536   4.315  13.813  0.5284  0.2110  0.3765
12580TIP3    H259232   2.518   4.165  13.817 -0.1872  0.3046  0.7296
12581TIP3   OH259233   5.600   2.505  16.155 -0.1002 -0.1886  0.2373
12581TIP3    H159234   5.611   2.582  16.100 -0.1693  0.2590  0.8356
12581TIP3    H259235   5.594   2.432  16.094  0.1994  0.2535 -0.3276
12582TIP3   OH259236   0.853   4.726  11.642  0.4651  0.3032 -0.0957
12582TIP3    H159237   0.764   4.761  11.647  0.5525  0.4369  0.6218
12582TIP3    H259238   0.865   4.703  11.549 -1.1278 -1.8167  0.1313
12583TIP3   OH259239   4.835   4.511  15.142  0.1873 -0.0970 -0.1424
12583TIP3    H159240   4.858   4.594  15.184 -1.7996  1.3127 -1.6329
12583TIP3    H259241   4.858   4.524  15.050 -0.6501 -0.9738 -0.4932
12584TIP3   OH259242   0.909   0.877   6.171  0.2048  0.1110 -0.3691
12584TIP3    H159243   0.964   0.927   6.232  0.1213 -0.6690  0.3690
12584TIP3    H259244   0.876   0.805   6.224  0.8035 -1.0607 -1.5561
12585TIP3   OH259245   6.100   0.427   5.896  0.2276  0.1977 -0.1461
12585TIP3    H159246   6.075   0.500   5.841  2.5292  0.2734 -1.1790
12585TIP3    H259247   6.017   0.383   5.917 -1.0307  2.1610 -0.7658
12586TIP3   OH259248   4.520   3.567   2.186 -0.0812 -0.6790  0.3351
12586TIP3    H159249   4.553   3.542   2.272 -0.3833 -1.5445  0.2052
12586TIP3    H259250   4.536   3.491   2.130  0.4717  0.0093 -0.4835
12587TIP3   OH259251   4.715   6.482   2.375  0.2597  0.2341  0.2119
12587TIP3    H159252   4.735   6.478   2.468  1.3768  2.5806  0.1512
12587TIP3    H259253   4.623   6.456   2.369  0.4395 -0.8938  1.8248
12588TIP3   OH259254   3.465   1.792  11.773  0.1497  0.6815  0.3150
12588TIP3    H159255   3.458   1.738  11.694  0.5326 -0.6600  1.1830
12588TIP3    H259256   3.438   1.879  11.744 -2.1937 -0.3146 -0.7058
12589TIP3   OH259257   2.651   2.861   5.610 -0.0984  0.5532  0.1008
12589TIP3    H159258   2.702   2.847   5.690  0.1433  2.0021  0.2364
12589TIP3    H259259   2.701   2.927   5.561 -1.7632  1.9751  0.2087
12590TIP3   OH259260   5.936   6.530  11.578 -0.0703 -0.1247 -0.1329
12590TIP3    H159261   6.020   6.507  11.536 -0.0586  2.7201 -1.9784
12590TIP3    H259262   5.961   6.576  11.657  0.0607 -0.4227  0.0021
12591TIP3   OH259263   2.210   3.978   6.336 -0.0250 -0.4298  0.9352
12591TIP3    H159264   2.215   3.900   6.281 -1.2118 -0.6356  1.1083
12591TIP3    H259265   2.177   3.946   6.420 -1.6169  0.4224  0.6553
12592TIP3   OH259266   3.345   3.142   0.411  0.3740  0.0824  0.0101
12592TIP3    H159267   3.344   3.141   0.315 -0.3625  0.4514  0.0014
12592TIP3    H259268   3.405   3.214   0.433  0.0614  0.4123 -0.1909
12593TIP3   OH259269   4.792   6.674  13.693 -0.5563 -0.1550 -0.2687
12593TIP3    H159270   4.767   6.709  13.778 -1.4023 -0.6810 -0.2917
12593TIP3    H259271   4.772   6.745  13.631  0.5683  0.4335  0.0131
12594TIP3   OH259272   1.416   2.625   6.966  0.0141  0.1963  0.0707
12594TIP3    H159273   1.350   2.582   7.021  0.1133 -1.8535 -1.3083
12594TIP3    H259274   1.374   2.706   6.938 -1.6657 -0.6850 -0.1368
12595TIP3   OH259275   1.605   4.920  13.492 -0.0077  0.2631 -0.0834
12595TIP3    H159276   1.603   4.981  13.565  3.5759 -0.0636  0.4693
12595TIP3    H259277   1.585   4.835  13.532  1.8306  0.1019  0.6116
12596TIP3   OH259278   6.816   4.610   1.631  0.1211  0.0320  0.5994
12596TIP3    H159279   6.880   4.592   1.699  0.7559 -2.8201 -0.6242
12596TIP3    H259280   6.849   4.565   1.554 -0.5276  3.1694 -1.7146
12597TIP3   OH259281   5.063   1.529   6.541 -0.0289  0.3107  0.2689
12597TIP3    H159282   5.009   1.600   6.576  1.1918  1.3192  0.1783
12597TIP3    H259283   5.140   1.526   6.598  0.5327 -0.0885 -0.4841
12598TIP3   OH259284   4.398   6.037   4.249 -0.5522  0.5204  0.3920
12598TIP3    H159285   4.304   6.029   4.262 -0.7028  0.6339 -0.5301
12598TIP3    H259286   4.419   6.126   4.276 -1.3150  1.6818 -2.4543
12599TIP3   OH259287   1.558   0.370  15.529 -0.2011  0.0121  0.2395
12599TIP3    H159288   1.500   0.351  15.603  0.7234 -1.3196  0.6582
12599TIP3    H259289   1.558   0.289  15.477 -0.4465  0.7586 -0.9653
12600TIP3   OH259290   2.019   3.444  16.598  0.0360  0.1738  0.6831
12600TIP3    H159291   2.004   3.516  16.538 -0.3325  0.1827  0.7822
12600TIP3    H259292   1.931   3.408  16.615  0.3521 -1.3326 -0.6430
12601TIP3   OH259293   1.366   0.530   5.792  0.5876 -0.1831 -0.6778
12601TIP3    H159294   1.276   0.559   5.807 -0.8532 -2.8561 -3.3095
12601TIP3    H259295   1.414   0.561   5.869 -2.5109  1.4116  0.7815
12602TIP3   OH259296   0.580   1.357   2.413 -0.3652  0.3145  0.0185
12602TIP3    H159297   0.664   1.326   2.446 -0.3638  1.3896  1.1143
12602TIP3    H259298   0.522   1.355   2.490 -0.2322  3.4381  0.3417
12603TIP3   OH259299   4.737   5.447   5.402 -0.3739 -0.5723  0.1230
12603TIP3    H159300   4.802   5.391   5.444  0.0011 -0.6330 -0.5255
12603TIP3    H259301   4.788   5.515   5.359 -0.7994  0.0029  0.5069
12604TIP3   OH259302   0.404   6.732   3.807 -0.0687 -0.1026 -0.2639
12604TIP3    H159303   0.391   6.739   3.901 -2.7252 -2.1410 -0.3492
12604TIP3    H259304   0.492   6.697   3.797 -0.0212 -0.5568  1.5192
12605TIP3   OH259305   3.170   6.017   5.982 -0.2667 -0.8399  0.3524
12605TIP3    H159306   3.100   5.953   5.999  0.3687 -1.0203  2.5567
12605TIP3    H259307   3.149   6.091   6.038 -0.0262  0.1951 -0.8692
12606TIP3   OH259308   5.749   4.161   6.592  0.2668 -0.0083 -0.5324
12606TIP3    H159309   5.815   4.209   6.542  1.2016 -0.4412  0.2553
12606TIP3    H259310   5.797   4.123   6.666 -1.1241  0.8597  0.8739
12607TIP3   OH259311   4.004   6.345  12.317 -0.2237  0.3348  0.0628
12607TIP3    H159312   3.936   6.407  12.293  0.0801  0.2378 -1.0956
12607TIP3    H259313   3.997   6.337  12.413 -0.9884  1.2906  0.0983
12608TIP3   OH259314   5.954   0.302  12.836 -1.0643  0.0151  0.3551
12608TIP3    H159315   5.991   0.214  12.825 -0.7796  0.0115  1.2766
12608TIP3    H259316   6.007   0.357  12.779 -1.2447 -0.4055 -0.2356
12609TIP3   OH259317   2.430   4.020  14.599  0.0687  0.5018  0.0544
12609TIP3    H159318   2.353   4.076  14.585  1.8364  2.3573 -3.5684
12609TIP3    H259319   2.486   4.072  14.657  0.1390  0.8437 -0.3135
12610TIP3   OH259320   2.377   0.827   5.270 -0.4156  0.1869 -0.1836
12610TIP3    H159321   2.338   0.745   5.241 -0.8887  1.2124 -2.6618
12610TIP3    H259322   2.398   0.874   5.189  2.3581  1.3808  1.0805
12611TIP3   OH259323   2.975   4.238  14.736 -0.5314  0.1641  0.2025
12611TIP3    H159324   2.986   4.319  14.686  0.1707  0.7684  1.2802
12611TIP3    H259325   2.911   4.262  14.804  1.8340  0.7681  2.3635
12612TIP3   OH259326   5.715   5.116  16.606  0.7495 -0.4620 -0.0880
12612TIP3    H159327   5.730   5.210  16.618 -0.7583 -0.1987 -0.1001
12612TIP3    H259328   5.724   5.079  16.694 -0.1444 -0.0653  0.1824
12613TIP3   OH259329   4.564   6.237  14.633 -0.2099 -0.3819 -0.7851
12613TIP3    H159330   4.612   6.254  14.713 -0.1752 -0.8232 -0.7139
12613TIP3    H259331   4.619   6.177  14.583 -0.3683 -0.3434 -1.0104
12614TIP3   OH259332   1.647   5.080   2.660 -0.1114 -0.0890  0.0776
12614TIP3    H159333   1.630   5.130   2.580 -1.4462 -0.8229 -0.1391
12614TIP3    H259334   1.579   5.109   2.721  0.4031 -0.1210  0.6756
12615TIP3   OH259335   4.810   3.163   5.603  0.1052  1.1715 -0.0517
12615TIP3    H159336   4.766   3.140   5.521  0.5123  0.5232 -0.1039
12615TIP3    H259337   4.757   3.233   5.641 -1.1650  0.1880  0.0564
12616TIP3   OH259338   4.975   2.788  14.959 -0.1961  0.6460  0.2908
12616TIP3    H159339   5.028   2.742  14.893  1.5469  0.2110  1.8891
12616TIP3    H259340   4.923   2.719  15.000  2.8846 -0.2615  3.1265
12617TIP3   OH259341   4.960   1.272  14.288 -0.2317 -0.5390 -0.1801
12617TIP3    H159342   4.938   1.307  14.375  0.5376  0.1447 -0.2489
12617TIP3    H259343   4.888   1.301  14.232 -0.2167 -0.1149  0.0195
12618TIP3   OH259344   0.418   6.262  14.220 -0.4308  0.2089 -0.6466
12618TIP3    H159345   0.470   6.259  14.140 -0.1493 -0.2376 -0.4518
12618TIP3    H259346   0.360   6.337  14.209  1.0130  1.3995 -0.4004
12619TIP3   OH259347   5.897   5.279   4.646 -0.6179  0.3168 -0.0727
12619TIP3    H159348   5.908   5.302   4.738  1.3049  1.8908 -0.6249
12619TIP3    H259349   5.939   5.193   4.637 -3.1161 -1.1020  0.9628
12620TIP3   OH259350   4.713   3.465   3.512  0.2077 -0.0468 -0.3524
12620TIP3    H159351   4.766   3.532   3.556  1.5612 -1.6768  0.6698
12620TIP3    H259352   4.643   3.445   3.574  1.6104 -1.7140  0.8274
12621TIP3   OH259353   3.890   5.549   1.812  0.2643 -0.2367 -0.0162
12621TIP3    H159354   3.859   5.633   1.844 -1.3279 -0.3258 -1.2147
12621TIP3    H259355   3.850   5.539   1.726  0.5971 -2.1195 -0.0093
12622TIP3   OH259356   5.709   6.654   0.448 -0.0207 -0.2721  0.4708
12622TIP3    H159357   5.730   6.566   0.419  0.2672  0.5866 -2.1653
12622TIP3    H259358   5.618   6.649   0.477 -0.3937 -1.1855 -0.8036
12623TIP3   OH259359   6.741   1.504  11.314  0.8409 -0.2778  0.0392
12623TIP3    H159360   6.781   1.574  11.365  0.3895  1.5173 -1.9320
12623TIP3    H259361   6.782   1.424  11.347  2.6706  1.0514  1.1770
12624TIP3   OH259362   0.660   4.634  11.373 -0.5886 -0.2356 -0.0738
12624TIP3    H159363   0.641   4.726  11.356  1.4418 -0.1203 -2.0997
12624TIP3    H259364   0.754   4.624  11.356 -0.3808 -2.3457  1.7667
12625TIP3   OH259365   4.709   5.809   3.365  0.2463  0.1400 -0.5438
12625TIP3    H159366   4.697   5.865   3.442  0.2065 -0.4406 -0.1146
12625TIP3    H259367   4.622   5.773   3.349  0.1236  0.7397 -1.2463
12626TIP3   OH259368   3.683   4.560  15.915 -0.4224  0.0297  0.4739
12626TIP3    H159369   3.757   4.601  15.870  0.0245  0.1648  1.3172
12626TIP3    H259370   3.672   4.476  15.870 -0.7320  0.6376 -0.6392
12627TIP3   OH259371   1.517   0.906   2.909 -0.3330 -0.4779  0.2587
12627TIP3    H159372   1.567   0.978   2.872  1.4324 -1.9735 -0.4799
12627TIP3    H259373   1.583   0.851   2.951 -1.8570 -0.6854  2.5477
12628TIP3   OH259374   5.036   3.151   0.984 -0.0600  0.1996 -0.0353
12628TIP3    H159375   5.030   3.063   1.022  1.0691  0.9558  2.0480
12628TIP3    H259376   5.122   3.153   0.942  0.3049  0.5476  0.6940
12629TIP3   OH259377   3.324   2.646   3.967  0.2813  0.3188 -0.0801
12629TIP3    H159378   3.353   2.663   4.056  3.7822  0.4561 -1.1180
12629TIP3    H259379   3.240   2.691   3.960 -0.8047 -0.8706  3.4845
12630TIP3   OH259380   1.541   4.829  16.353  0.4524  0.2310  0.0506
12630TIP3    H159381   1.468   4.816  16.414  0.3083 -1.7958 -0.4622
12630TIP3    H259382   1.522   4.769  16.281  1.6734  1.0716 -1.0216
12631TIP3   OH259383   5.298   2.146   2.953 -0.1822  0.6452 -0.4868
12631TIP3    H159384   5.227   2.209   2.969 -0.7750 -0.1588  0.1500
12631TIP3    H259385   5.364   2.168   3.019  0.1269  1.3238 -1.0084
12632TIP3   OH259386   3.400   6.615   3.865 -0.3517  1.0825 -0.3193
12632TIP3    H159387   3.435   6.526   3.867 -0.7899  0.9201  1.1639
12632TIP3    H259388   3.436   6.653   3.785  1.1658  0.1037 -0.1465
12633TIP3   OH259389   4.207   3.922   4.679 -0.5361  0.8379 -0.0288
12633TIP3    H159390   4.241   3.927   4.768 -0.1542  0.4159 -0.1507
12633TIP3    H259391   4.125   3.873   4.687  2.0831 -4.2309 -0.5718
12634TIP3   OH259392   3.776   0.561   4.392 -0.0683  0.2933 -0.1716
12634TIP3    H159393   3.816   0.511   4.462 -0.5457  0.8300  0.5020
12634TIP3    H259394   3.691   0.519   4.378  0.7454 -0.9469 -1.7103
12635TIP3   OH259395   2.105   5.583  16.222  0.0099 -0.5407  0.2699
12635TIP3    H159396   2.052   5.507  16.199  0.1717 -0.8705  0.9810
12635TIP3    H259397   2.048   5.636  16.278 -0.4908  0.4132 -1.0671
12636TIP3   OH259398   5.989   3.052  11.941 -0.5972  0.0499  0.3933
12636TIP3    H159399   5.905   3.039  11.986 -0.8965 -0.0898 -0.1996
12636TIP3    H259400   6.018   3.138  11.970 -1.6567  0.7350 -0.5228
12637TIP3   OH259401   6.165   6.209  15.703 -0.0167 -0.0841 -0.2717
12637TIP3    H159402   6.144   6.134  15.759 -1.6674  0.7415  0.2989
12637TIP3    H259403   6.147   6.179  15.614 -0.6223 -0.3888 -0.0503
12638TIP3   OH259404   1.062   1.491   3.822 -0.5374  0.0473 -0.3516
12638TIP3    H159405   1.100   1.480   3.735  0.6547  3.2778 -0.3674
12638TIP3    H259406   1.045   1.585   3.829 -1.4354 -0.2336  2.5969
12639TIP3   OH259407   3.318   1.542  11.197 -0.8567  0.0189 -0.0467
12639TIP3    H159408   3.334   1.634  11.218 -1.9987  0.3489 -0.5424
12639TIP3    H259409   3.406   1.504  11.187 -0.3552  0.8006  1.1570
12640TIP3   OH259410   0.629   4.620  14.608  0.0996 -0.5834  0.8673
12640TIP3    H159411   0.672   4.545  14.567 -0.9583 -0.8538  0.2109
12640TIP3    H259412   0.579   4.660  14.537  0.7704  0.8580  1.1700
12641TIP3   OH259413   5.221   3.396  16.755 -0.1732 -0.0641  0.3104
12641TIP3    H159414   5.289   3.448  16.796 -0.1458 -1.4833  2.2027
12641TIP3    H259415   5.144   3.407  16.811 -0.5368 -1.0088  0.0309
12642TIP3   OH259416   1.433   4.278   0.236 -0.4374  0.2524  0.6487
12642TIP3    H159417   1.432   4.251   0.144 -0.3787  0.4785  0.5811
12642TIP3    H259418   1.388   4.207   0.282  1.8502 -1.2142  0.8124
12643TIP3   OH259419   1.289   1.588  16.202  0.0275 -0.0882  0.0660
12643TIP3    H159420   1.293   1.662  16.262  2.9901  1.0871 -1.3692
12643TIP3    H259421   1.221   1.531  16.238 -1.1045  2.4356  2.2269
12644TIP3   OH259422   3.424   0.924   5.631  0.0643 -0.1722  0.1996
12644TIP3    H159423   3.398   0.842   5.673 -1.0207 -0.2046 -0.4783
12644TIP3    H259424   3.430   0.902   5.538 -1.5670  0.7839 -0.1741
12645TIP3   OH259425   5.764   4.470   1.748  0.1836  0.2475  0.0448
12645TIP3    H159426   5.785   4.476   1.655  0.7556  0.6569  0.2019
12645TIP3    H259427   5.823   4.403   1.782 -0.1783 -0.0609  0.0702
12646TIP3   OH259428   3.037   6.222  15.788 -0.1112  0.0033 -0.2935
12646TIP3    H159429   3.054   6.150  15.727 -0.1559 -0.1567 -0.1158
12646TIP3    H259430   3.077   6.298  15.746  2.2555 -0.5992  0.7049
12647TIP3   OH259431   6.019   3.627   4.708  0.1602  0.6436  0.0570
12647TIP3    H159432   6.009   3.722   4.710 -0.5726  0.6658 -2.0916
12647TIP3    H259433   5.943   3.595   4.658  0.0134 -1.1494  1.3201
12648TIP3   OH259434   0.473   6.440  14.469  0.0774  0.0894 -0.2730
12648TIP3    H159435   0.435   6.352  14.474 -1.6944  0.7839 -0.7773
12648TIP3    H259436   0.463   6.475  14.557  0.7886 -0.2159 -0.0709
12649TIP3   OH259437   2.609   4.823  14.953 -0.6421 -0.2303  0.3621
12649TIP3    H159438   2.545   4.867  15.008 -0.9661 -0.6066  0.2859
12649TIP3    H259439   2.693   4.859  14.981 -0.7906 -0.5373  1.2028
12650TIP3   OH259440   0.037   3.995  16.253  0.7673  0.0282 -0.0647
12650TIP3    H159441   0.078   3.909  16.237 -1.7782 -1.1653 -0.6147
12650TIP3    H259442   0.030   4.035  16.167  2.0484  0.9043  0.2027
12651TIP3   OH259443   4.439   6.679  13.791  0.0357  0.6635  0.5064
12651TIP3    H159444   4.446   6.649  13.700  1.8043  2.8599 -0.1677
12651TIP3    H259445   4.525   6.662  13.828 -0.9201 -1.0288  2.1340
12652TIP3   OH259446   1.626   6.031  11.968  0.6190 -0.6726  0.1008
12652TIP3    H159447   1.688   5.960  11.950  0.7310 -0.6471  0.3731
12652TIP3    H259448   1.670   6.084  12.034 -0.0643 -1.1611  0.9787
12653TIP3   OH259449   3.241   6.472   0.041 -0.4481 -0.0586 -0.4950
12653TIP3    H159450   3.191   6.391   0.035 -1.1552  0.4433 -1.6317
12653TIP3    H259451   3.209   6.514   0.121 -0.9622 -0.3207 -0.5595
12654TIP3   OH259452   5.729   3.921   0.227 -0.0627 -0.3485  0.0768
12654TIP3    H159453   5.774   3.996   0.267  0.8229  0.3213 -2.0340
12654TIP3    H259454   5.636   3.943   0.234  0.1714  0.8426 -0.2442
12655TIP3   OH259455   4.862   3.258   5.119  0.0631  0.1153  0.0232
12655TIP3    H159456   4.872   3.282   5.027  1.2772 -1.0046 -0.1722
12655TIP3    H259457   4.824   3.335   5.161  3.0463  2.1657 -0.6821
12656TIP3   OH259458   1.320   5.839  11.502  0.5458  0.0093  0.2428
12656TIP3    H159459   1.372   5.848  11.581 -0.5910  0.9373  0.9077
12656TIP3    H259460   1.371   5.781  11.446  1.4727 -0.4704  1.5550
12657TIP3   OH259461   5.765   0.817  16.465  0.1486  0.0337  0.8843
12657TIP3    H159462   5.694   0.881  16.473  1.0415  0.9982  1.3444
12657TIP3    H259463   5.759   0.786  16.374  0.6315  1.9237  0.1568
12658TIP3   OH259464   1.868   5.897  11.944  0.0005  0.6223 -0.5756
12658TIP3    H159465   1.883   5.951  11.866 -1.5228 -1.1804 -2.2308
12658TIP3    H259466   1.866   5.807  11.911  0.1708 -0.2882  1.7139
12659TIP3   OH259467   5.290   2.174  15.566 -0.2874  0.6736  0.3340
12659TIP3    H159468   5.371   2.123  15.559 -0.9943 -0.6502  1.4663
12659TIP3    H259469   5.220   2.110  15.552 -1.2073  1.2662  2.0333
12660TIP3   OH259470   6.539   3.790   6.467  0.5412  0.5793  0.1417
12660TIP3    H159471   6.597   3.865   6.474  1.6813 -0.0613 -1.9526
12660TIP3    H259472   6.473   3.816   6.403 -1.5823  1.2831  2.4500
12661TIP3   OH259473   0.222   6.322  15.833  0.0646 -0.2219 -0.4636
12661TIP3    H159474   0.148   6.302  15.775  0.4669  1.1694 -1.5076
12661TIP3    H259475   0.186   6.382  15.898 -0.0647 -0.7190 -0.0706
12662TIP3   OH259476   3.788   2.824   1.247 -0.1026  0.4336  0.2604
12662TIP3    H159477   3.854   2.802   1.182 -1.1824 -2.7130  0.0563
12662TIP3    H259478   3.828   2.802   1.331 -0.3281  0.0510  0.2685
12663TIP3   OH259479   5.013   0.631   5.021  0.1804 -0.0102 -0.5214
12663TIP3    H159480   5.077   0.590   5.079  1.0023 -0.0369 -1.4262
12663TIP3    H259481   5.058   0.707   4.986  0.6506 -1.3484 -3.0594
12664TIP3   OH259482   4.060   4.885   0.599 -0.4321 -0.0967 -0.2004
12664TIP3    H159483   4.028   4.797   0.620 -0.3043 -0.0920  0.0115
12664TIP3    H259484   4.146   4.890   0.640  0.0853 -0.3072 -1.2470
12665TIP3   OH259485   2.110   1.363  16.538 -0.0605  0.4094  0.3422
12665TIP3    H159486   2.122   1.387  16.447  0.3233 -0.6506  0.0935
12665TIP3    H259487   2.036   1.415  16.568  0.3845  1.4414 -0.3082
12666TIP3   OH259488   3.962   6.071   6.026  0.3250  0.1358  0.1749
12666TIP3    H159489   3.866   6.068   6.028  0.3210 -0.5396 -0.6722
12666TIP3    H259490   3.986   6.116   6.107 -0.6902 -0.1902  0.6741
12667TIP3   OH259491   5.405   5.984   5.461  0.0532 -0.1640 -0.1743
12667TIP3    H159492   5.430   6.049   5.527 -0.2813  0.2787 -0.4759
12667TIP3    H259493   5.466   5.998   5.389 -0.3843  0.2183 -0.4805
12668TIP3   OH259494   3.795   5.745   3.368 -0.3668 -0.6835 -0.1114
12668TIP3    H159495   3.760   5.663   3.333  0.8519 -1.4226  0.3479
12668TIP3    H259496   3.884   5.724   3.397 -0.3262  0.5917  0.8174
12669TIP3   OH259497   3.913   3.647  14.611 -0.7527  0.1219 -0.9360
12669TIP3    H159498   3.996   3.600  14.623 -0.2664  0.9361 -1.0226
12669TIP3    H259499   3.894   3.637  14.518 -0.1057  0.9532 -1.1725
12670TIP3   OH259500   1.180   1.504  11.083 -0.0825 -0.0695 -0.6157
12670TIP3    H159501   1.220   1.429  11.128  0.3163  1.3140  1.4712
12670TIP3    H259502   1.087   1.496  11.101 -0.1066 -0.3190 -0.8353
12671TIP3   OH259503   2.485   0.671   2.118  0.5341  0.2395  0.3094
12671TIP3    H159504   2.459   0.636   2.033  1.1844 -0.6929  0.4820
12671TIP3    H259505   2.466   0.765   2.112 -0.2211  0.0446 -0.5505
12672TIP3   OH259506   1.925   5.736  17.069 -0.6081  0.0653  0.2013
12672TIP3    H159507   1.939   5.645  17.098 -2.6091 -0.2785  0.1960
12672TIP3    H259508   1.931   5.788  17.149  2.9992  0.3596 -0.0595
12673TIP3   OH259509   2.323   2.831  13.630 -0.2368 -0.0601 -0.4938
12673TIP3    H159510   2.353   2.748  13.666 -0.6543 -0.0513 -0.1154
12673TIP3    H259511   2.403   2.881  13.614 -0.0072 -0.3814 -0.3471
12674TIP3   OH259512   2.724   1.303   0.325 -0.0502  0.1422 -0.4023
12674TIP3    H159513   2.737   1.217   0.365 -0.3804 -0.0808 -0.7733
12674TIP3    H259514   2.719   1.286   0.231  0.4855  0.6407 -0.5288
12675TIP3   OH259515   4.365   6.322   0.506 -0.1465 -0.0725  0.6473
12675TIP3    H159516   4.378   6.399   0.450 -4.2684  1.4051  1.3908
12675TIP3    H259517   4.438   6.327   0.569  1.8234  0.9881 -1.5380
12676TIP3   OH259518   1.274   0.486  13.910 -0.1710 -0.0406  0.0873
12676TIP3    H159519   1.182   0.459  13.912 -0.2195  0.1329  1.8101
12676TIP3    H259520   1.289   0.516  13.821 -1.9158  0.3649 -0.0978
12677TIP3   OH259521   5.430   4.248  16.150  0.0127  0.1742 -0.0437
12677TIP3    H159522   5.476   4.331  16.135 -0.6255  0.4622 -0.4213
12677TIP3    H259523   5.436   4.234  16.245 -1.5447  1.6366  0.3148
12678TIP3   OH259524   3.685   5.901   0.794 -0.0840 -0.3066  0.5672
12678TIP3    H159525   3.779   5.885   0.785  0.1015  0.1702  1.4988
12678TIP3    H259526   3.644   5.816   0.776  0.4251 -0.2524 -1.0325
12679TIP3   OH259527   2.321   0.529  15.952  0.1780 -0.3042  0.0016
12679TIP3    H159528   2.352   0.600  16.008 -0.6838 -0.4258  0.6661
12679TIP3    H259529   2.314   0.567  15.865  0.9128  0.0778  0.1073
12680TIP3   OH259530   0.526   3.638   1.426  0.1509 -0.3128  0.3924
12680TIP3    H159531   0.519   3.632   1.521  1.2578 -2.0550  0.4145
12680TIP3    H259532   0.601   3.697   1.412 -0.3814  0.4200  0.5704
12681TIP3   OH259533   1.684   4.274   3.543  0.3967 -0.4571  0.2142
12681TIP3    H159534   1.725   4.355   3.572 -0.2593 -0.1835  0.4038
12681TIP3    H259535   1.618   4.302   3.479  0.6623 -0.9062 -0.2639
12682TIP3   OH259536   1.711   6.068   4.425 -0.1204  0.2199 -0.1316
12682TIP3    H159537   1.708   6.134   4.494  0.6384  1.5966 -1.3621
12682TIP3    H259538   1.791   6.018   4.443  0.9604  1.6208 -0.8971
12683TIP3   OH259539   3.141   2.148  14.176 -0.3428 -0.1739 -0.0843
12683TIP3    H159540   3.160   2.085  14.106  2.5677 -0.5091  0.8608
12683TIP3    H259541   3.185   2.111  14.253  0.0882  2.1948  0.8951
12684TIP3   OH259542   5.873   0.877   2.922  0.0827 -0.1749  0.1117
12684TIP3    H159543   5.801   0.937   2.940  0.4613  0.3794 -0.2243
12684TIP3    H259544   5.895   0.892   2.830  1.1098  0.1846  0.4058
12685TIP3   OH259545   4.162   1.348  12.738  0.0647  0.2803 -0.2936
12685TIP3    H159546   4.092   1.364  12.801  0.2179 -0.7891  0.1828
12685TIP3    H259547   4.143   1.406  12.665 -2.0048 -0.8112 -0.6878
12686TIP3   OH259548   3.952   1.914  10.842  0.7520 -0.0180  0.0342
12686TIP3    H159549   3.899   1.991  10.822 -0.0875 -0.0578  1.8891
12686TIP3    H259550   4.008   1.903  10.765  0.7957  2.3406 -0.3530
12687TIP3   OH259551   4.593   5.122  13.523 -0.4027  0.8007  0.0269
12687TIP3    H159552   4.657   5.106  13.453  1.0488  2.1339  0.9817
12687TIP3    H259553   4.526   5.177  13.482 -1.5935 -1.4889 -1.2813
12688TIP3   OH259554   2.248   3.429   2.416  0.1989 -0.8913  0.3198
12688TIP3    H159555   2.178   3.439   2.351 -1.0983 -0.3149  1.7644
12688TIP3    H259556   2.236   3.341   2.451  0.9056 -1.2054 -0.1962
12689TIP3   OH259557   4.322   2.971  16.672  0.6958  0.3701  0.6235
12689TIP3    H159558   4.363   3.044  16.717  0.4349 -0.6847  2.7025
12689TIP3    H259559   4.301   2.908  16.742  0.1778 -1.3315 -0.9730
12690TIP3   OH259560   1.523   1.422  16.664 -0.3591 -0.3454  0.1659
12690TIP3    H159561   1.475   1.505  16.655  0.1244  0.1267  1.5405
12690TIP3    H259562   1.582   1.438  16.738  1.4378 -1.1232 -1.0539
12691TIP3   OH259563   6.653   0.983   6.386 -0.1635 -0.0751 -0.2067
12691TIP3    H159564   6.679   1.046   6.453 -0.5575 -0.5038  0.3568
12691TIP3    H259565   6.731   0.929   6.371  0.1011  0.3879 -0.5201
12692TIP3   OH259566   4.486   1.398   3.322 -0.4081 -0.4137  0.2299
12692TIP3    H159567   4.551   1.338   3.357  0.6802  0.8045  0.3787
12692TIP3    H259568   4.417   1.342   3.288 -0.9035 -1.7192  3.0587
12693TIP3   OH259569   2.863   5.435   3.074 -0.0960 -0.1344 -0.6465
12693TIP3    H159570   2.902   5.356   3.110  1.1690  0.8895  0.3493
12693TIP3    H259571   2.770   5.429   3.096  0.4493 -0.0509  1.9465
12694TIP3   OH259572   1.425   6.408   0.518 -0.6581  0.0604  0.2645
12694TIP3    H159573   1.463   6.321   0.507 -1.4711 -0.1628 -0.8659
12694TIP3    H259574   1.392   6.431   0.432 -0.3229  1.5656  0.5131
12695TIP3   OH259575   3.255   2.325   5.989  0.2785  0.6867 -0.4016
12695TIP3    H159576   3.315   2.265   5.944  1.1576  0.9167  0.4424
12695TIP3    H259577   3.289   2.331   6.078 -1.5555  0.0563  0.3963
12696TIP3   OH259578   6.160   6.730   2.016  0.3666  0.3625 -0.0092
12696TIP3    H159579   6.159   6.785   2.094  1.1837 -0.1524  0.3785
12696TIP3    H259580   6.232   6.669   2.031  0.6116  0.3311 -1.2178
12697TIP3   OH259581   5.211   0.596   2.911  0.1423 -0.1361  0.2012
12697TIP3    H159582   5.152   0.564   2.979  0.6410 -1.5291  0.0140
12697TIP3    H259583   5.262   0.665   2.953 -1.1066  0.5787  0.5685
12698TIP3   OH259584   0.730   5.435  15.889 -0.1938  0.1366  0.2139
12698TIP3    H159585   0.804   5.384  15.854 -0.6228  0.0987 -0.6462
12698TIP3    H259586   0.771   5.512  15.927  0.5557 -1.1737  2.2481
12699TIP3   OH259587   0.902   1.980  16.161 -0.3088  0.9716  0.2906
12699TIP3    H159588   0.824   2.033  16.149 -2.2304 -1.5465  0.9680
12699TIP3    H259589   0.871   1.899  16.199  2.2913 -1.1621 -1.7218
12700TIP3   OH259590   6.471   4.409  14.305 -0.5924  0.2088 -0.4336
12700TIP3    H159591   6.409   4.355  14.257  1.1684 -1.0488 -1.4336
12700TIP3    H259592   6.494   4.479  14.243  0.0410 -0.1718 -0.6490
12701TIP3   OH259593   6.647   1.892   6.109 -0.2638 -0.4203 -0.1330
12701TIP3    H159594   6.554   1.914   6.110  0.0264  0.9020 -0.7313
12701TIP3    H259595   6.652   1.811   6.058 -0.9568  0.2183 -1.2507
12702TIP3   OH259596   0.683   5.383  13.888 -0.0031  0.7708  0.2372
12702TIP3    H159597   0.687   5.289  13.867 -2.3413 -0.0566  2.8194
12702TIP3    H259598   0.631   5.421  13.818 -1.1669 -0.3912  0.4354
12703TIP3   OH259599   5.847   0.998  17.008  0.1365  0.5241  1.0129
12703TIP3    H159600   5.833   0.933  16.939 -1.6934  1.4588  0.4347
12703TIP3    H259601   5.914   1.056  16.972  0.5554 -0.0604  0.8293
12704TIP3   OH259602   0.557   2.741  11.413  0.2034  0.6875  0.0395
12704TIP3    H159603   0.571   2.662  11.360 -0.1430  0.0404  0.8872
12704TIP3    H259604   0.472   2.773  11.385 -1.3594 -1.2849  2.1399
12705TIP3   OH259605   2.362   5.425  11.085  0.1359  0.0724  0.0950
12705TIP3    H159606   2.448   5.400  11.050  1.4820  1.6900  2.0272
12705TIP3    H259607   2.323   5.343  11.113  0.9875 -0.7120 -0.9135
12706TIP3   OH259608   5.857   0.788   4.941 -0.6903  0.1581  0.3986
12706TIP3    H159609   5.790   0.737   4.987  0.3525  0.6832  2.6291
12706TIP3    H259610   5.930   0.728   4.929 -1.0812 -0.0889 -1.0412
12707TIP3   OH259611   3.319   2.443  16.296 -0.5274  0.0943  0.4736
12707TIP3    H159612   3.375   2.468  16.369 -2.1969  1.6379  1.2947
12707TIP3    H259613   3.378   2.401  16.234  1.2040  0.1004  2.0369
12708TIP3   OH259614   6.456   0.649  11.238 -0.2075 -0.2047  0.2625
12708TIP3    H159615   6.497   0.566  11.213  0.7317  0.7340 -1.4561
12708TIP3    H259616   6.362   0.630  11.240  0.0740 -1.7092  1.6048
12709TIP3   OH259617   3.146   3.349  13.910  0.1100 -0.1543  0.3188
12709TIP3    H159618   3.180   3.293  13.981  2.2909 -0.3468 -0.7841
12709TIP3    H259619   3.093   3.290  13.857  0.2116 -0.5320  0.6240
12710TIP3   OH259620   3.789   4.229  16.468  0.5394 -0.5746  0.5322
12710TIP3    H159621   3.804   4.320  16.493 -2.3743  0.7258 -1.8030
12710TIP3    H259622   3.810   4.227  16.375 -2.7033 -1.2751 -0.2978
12711TIP3   OH259623   6.099   0.790  10.990 -0.6955 -0.6811 -0.1966
12711TIP3    H159624   6.079   0.883  11.007 -0.6146 -0.8944  1.2224
12711TIP3    H259625   6.166   0.792  10.922  0.8851  0.4248  1.3021
12712TIP3   OH259626   6.546   3.657  12.289 -0.2424 -0.5595  0.3703
12712TIP3    H159627   6.530   3.563  12.287  1.6409 -0.9168  0.3415
12712TIP3    H259628   6.561   3.680  12.197  0.3541 -0.4459  0.4919
12713TIP3   OH259629   0.448   3.493   5.737 -0.0467  0.4755 -0.1671
12713TIP3    H159630   0.519   3.471   5.798  0.1142  1.1961 -0.0852
12713TIP3    H259631   0.433   3.586   5.751  0.6462  0.8879 -1.8865
12714TIP3   OH259632   2.613   3.218  11.083  0.1748  0.0546 -0.0491
12714TIP3    H159633   2.631   3.183  10.995 -3.3676 -1.0648 -0.4854
12714TIP3    H259634   2.664   3.163  11.141  0.7122 -0.7924 -1.2705
12715TIP3   OH259635   2.197   0.844   0.396 -0.3850 -0.1957  0.4699
12715TIP3    H159636   2.121   0.876   0.444 -1.9334 -1.4395 -1.0357
12715TIP3    H259637   2.166   0.765   0.351  1.1816  0.4397 -1.8922
12716TIP3   OH259638   2.075   0.400   5.138 -0.2476 -0.2810  0.1660
12716TIP3    H159639   2.022   0.365   5.067  0.4221  1.4764 -1.2936
12716TIP3    H259640   2.039   0.488   5.153  1.6322  0.5949 -0.2381
12717TIP3   OH259641   5.400   2.213   4.683  0.3748  0.6575  0.5612
12717TIP3    H159642   5.482   2.221   4.732  0.5552  1.1054  0.1874
12717TIP3    H259643   5.383   2.301   4.650  0.8317  0.1473 -1.1237
12718TIP3   OH259644   5.731   4.795   2.839 -0.1457 -0.1744 -0.4762
12718TIP3    H159645   5.660   4.738   2.807 -0.2632 -0.0063 -0.5144
12718TIP3    H259646   5.806   4.736   2.847  0.6574  0.2531 -3.6052
12719TIP3   OH259647   0.370   3.625  16.068  0.6297 -0.0586  0.3035
12719TIP3    H159648   0.343   3.661  15.984  1.6414  0.2802  0.1013
12719TIP3    H259649   0.304   3.656  16.130 -0.7359 -1.1995 -0.5152
12720TIP3   OH259650   2.473   4.999  17.015  0.2547  0.4880  0.1012
12720TIP3    H159651   2.533   4.991  17.089  1.4697  0.1732 -0.8764
12720TIP3    H259652   2.522   4.964  16.940 -1.5118 -0.6786 -0.5781
12721TIP3   OH259653   0.802   2.090  11.152  0.2189  1.1304 -0.8956
12721TIP3    H159654   0.806   2.023  11.084  0.4615  1.5457 -1.2961
12721TIP3    H259655   0.710   2.116  11.155 -0.2138 -0.3782  0.4150
12722TIP3   OH259656   0.814   2.531  14.905 -0.1981 -0.5409 -0.7440
12722TIP3    H159657   0.905   2.523  14.877 -0.0314 -0.0025 -0.3652
12722TIP3    H259658   0.806   2.622  14.935 -0.9404 -0.4896 -1.0733
12723TIP3   OH259659   1.958   4.146  13.094 -0.1052  0.3559 -0.1125
12723TIP3    H159660   1.908   4.123  13.015 -0.4652 -0.0804  0.2363
12723TIP3    H259661   1.899   4.200  13.145 -0.7822 -1.2983  0.9550
12724TIP3   OH259662   1.369   0.950  11.452 -0.7160  0.5847  0.7693
12724TIP3    H159663   1.455   0.922  11.423 -0.4713 -0.3761  2.2692
12724TIP3    H259664   1.386   1.020  11.515 -1.0937  1.1068  0.2997
12725TIP3   OH259665   4.843   1.558   4.435 -0.2628 -0.4546 -0.7577
12725TIP3    H159666   4.836   1.629   4.372  1.3109  0.0669 -0.3962
12725TIP3    H259667   4.834   1.600   4.521 -1.6381 -1.0485 -0.5812
12726TIP3   OH259668   6.315   4.034   5.179  0.1826 -0.3200  0.6181
12726TIP3    H159669   6.366   4.115   5.185  1.2640 -0.8485 -0.7776
12726TIP3    H259670   6.363   3.972   5.234  0.8483 -0.6991 -0.3586
12727TIP3   OH259671   1.635   0.646  16.385  0.2537 -0.9353  0.0111
12727TIP3    H159672   1.619   0.648  16.479  0.8513  0.8169  0.1226
12727TIP3    H259673   1.553   0.615  16.347 -0.8527  0.6118  0.9942
12728TIP3   OH259674   0.299   6.013  13.931 -0.3630 -0.6499  0.0731
12728TIP3    H159675   0.248   5.939  13.897 -0.4659 -0.8290  0.6062
12728TIP3    H259676   0.232   6.078  13.954 -0.3430 -0.8122  0.6006
12729TIP3   OH259677   1.422   4.025  14.913 -0.3542  0.4239 -0.4362
12729TIP3    H159678   1.327   4.011  14.914 -0.3580  0.4391 -0.5851
12729TIP3    H259679   1.433   4.113  14.878 -0.3232  0.7493  0.3610
12730TIP3   OH259680   2.039   3.888   4.086  0.2766  0.2419 -0.8606
12730TIP3    H159681   2.094   3.857   4.014 -1.2374 -0.3097 -1.8201
12730TIP3    H259682   1.950   3.862   4.062 -0.2182 -0.5609  1.5375
12731TIP3   OH259683   0.507   6.242  10.879 -0.4818  0.0916 -0.7323
12731TIP3    H159684   0.415   6.267  10.890 -0.4825  0.7011 -1.9382
12731TIP3    H259685   0.507   6.146  10.886 -0.8049  0.2310  1.8050
12732TIP3   OH259686   1.113   3.063  14.204  0.4051 -0.1847  0.4013
12732TIP3    H159687   1.040   3.008  14.231 -0.0419  0.0593 -0.2837
12732TIP3    H259688   1.076   3.151  14.200  1.0190  0.1100  1.1257
12733TIP3   OH259689   4.456   3.530   5.989 -0.0164 -0.5376  0.2132
12733TIP3    H159690   4.505   3.457   6.025 -3.5948 -1.3174  4.4019
12733TIP3    H259691   4.381   3.490   5.945 -1.0124  0.5568  0.8462
12734TIP3   OH259692   6.333   1.307   5.959 -0.3373 -0.3979 -0.0583
12734TIP3    H159693   6.293   1.385   5.920  2.0509  0.9621  0.0805
12734TIP3    H259694   6.273   1.283   6.030 -1.0416  1.4021  0.0047
12735TIP3   OH259695   0.799   1.204   3.957 -0.0065  0.5527  0.1021
12735TIP3    H159696   0.828   1.123   3.916  0.2990 -0.1867  1.7036
12735TIP3    H259697   0.880   1.249   3.981 -0.1146 -0.3818  2.4207
12736TIP3   OH259698   6.743   2.547   0.865  0.4281  0.0054 -0.5553
12736TIP3    H159699   6.794   2.467   0.855  1.5747  0.5444  0.6825
12736TIP3    H259700   6.654   2.516   0.882  1.1542 -1.0927  1.6552
12737TIP3   OH259701   3.596   4.153  13.512  0.1064 -0.5272  0.4792
12737TIP3    H159702   3.558   4.240  13.530  0.3895 -0.2047 -0.4538
12737TIP3    H259703   3.683   4.157  13.551  0.7962  0.2457 -1.0405
12738TIP3   OH259704   6.163   1.041  11.375  0.7524  0.5353 -0.1436
12738TIP3    H159705   6.083   1.015  11.331  0.7487  0.2294  0.0393
12738TIP3    H259706   6.217   0.962  11.375  0.7371  0.5194  0.4277
12739TIP3   OH259707   5.604   5.550  16.522  0.1071 -0.3563 -1.0749
12739TIP3    H159708   5.568   5.638  16.533  1.7303  0.2807 -0.5719
12739TIP3    H259709   5.661   5.557  16.445  0.2184 -0.9877 -1.0536
12740TIP3   OH259710   2.825   6.397  16.795  0.0302  0.7165 -0.5409
12740TIP3    H159711   2.746   6.343  16.795  0.0179  0.7027  0.5529
12740TIP3    H259712   2.894   6.341  16.760 -0.3288  0.5484 -0.9822
12741TIP3   OH259713   1.198   3.688  16.019 -0.4295  0.1792 -0.5134
12741TIP3    H159714   1.131   3.680  16.087 -0.9947 -0.5704 -1.1320
12741TIP3    H259715   1.261   3.618  16.038 -0.8733 -0.3820 -1.0510
12742TIP3   OH259716   3.980   2.739  16.299 -0.0849  0.3175  0.4703
12742TIP3    H159717   3.955   2.647  16.286  1.5028  0.1195 -1.5741
12742TIP3    H259718   3.980   2.750  16.394  1.0775 -2.2396  0.8513
12743TIP3   OH259719   2.809   4.301  14.945  0.3535 -0.5413  0.0089
12743TIP3    H159720   2.897   4.312  14.979  0.9397 -2.0018 -0.9186
12743TIP3    H259721   2.752   4.337  15.013  1.5812 -1.1202  1.4096
12744TIP3   OH259722   1.530   2.400   1.765  0.5152 -0.5535  0.3542
12744TIP3    H159723   1.535   2.490   1.794 -1.8604  0.6383 -2.3535
12744TIP3    H259724   1.596   2.393   1.696 -1.9976  0.6135 -2.4140
12745TIP3   OH259725   1.143   1.054   2.934 -0.4124 -0.2105 -0.3925
12745TIP3    H159726   1.212   1.103   2.980 -1.1341 -0.4560  0.9974
12745TIP3    H259727   1.081   1.029   3.003 -1.8842 -0.0260 -1.6079
12746TIP3   OH259728   0.868   2.751  12.516 -0.1630  0.5349  0.1753
12746TIP3    H159729   0.894   2.842  12.527  0.2466  0.3558  0.7366
12746TIP3    H259730   0.784   2.745  12.561  0.3844  0.3643  1.2253
12747TIP3   OH259731   5.547   2.965   5.391  0.3304 -0.2139 -0.1618
12747TIP3    H159732   5.551   3.023   5.467 -0.2600  0.0513 -0.3301
12747TIP3    H259733   5.637   2.965   5.356  0.3429  0.5604 -0.1371
12748TIP3   OH259734   1.957   1.457   3.814  0.3222  0.1744 -0.1649
12748TIP3    H159735   1.966   1.362   3.821 -0.2808  0.2108  1.5099
12748TIP3    H259736   1.941   1.486   3.903  1.8694  2.0266 -0.4395
12749TIP3   OH259737   3.140   6.800   5.982  0.0281 -0.1298  0.2892
12749TIP3    H159738   3.100   6.751   6.054 -0.2503  2.7907  2.2892
12749TIP3    H259739   3.234   6.785   5.993  0.0200  0.6273  1.6008
12750TIP3   OH259740   1.510   3.224   1.507 -0.4964  0.1881 -0.1766
12750TIP3    H159741   1.540   3.161   1.572  2.2801  0.8309 -0.7142
12750TIP3    H259742   1.500   3.173   1.427 -0.2010  0.0780 -0.1422
12751TIP3   OH259743   1.647   3.606  15.904 -0.0608 -0.4144  0.5338
12751TIP3    H159744   1.695   3.571  15.978  1.6895 -0.0165 -0.3655
12751TIP3    H259745   1.712   3.614  15.834 -1.8120 -1.6132 -1.3603
12752TIP3   OH259746   6.121   3.369  15.535  0.0895  0.3712 -0.0482
12752TIP3    H159747   6.032   3.401  15.553 -0.3551 -0.4517 -0.7123
12752TIP3    H259748   6.176   3.447  15.544 -0.5120  0.6607  1.6147
12753TIP3   OH259749   2.888   0.297   3.118 -0.6116 -0.3110 -0.8513
12753TIP3    H159750   2.824   0.291   3.047 -0.6580 -1.6225 -0.7304
12753TIP3    H259751   2.849   0.359   3.180  0.1219  2.0357 -2.6105
12754TIP3   OH259752   2.103   1.598  16.799 -0.1476 -0.1238 -0.2013
12754TIP3    H159753   2.154   1.626  16.724  1.2070  0.5937  0.9373
12754TIP3    H259754   2.153   1.525  16.836  0.4860  1.0227  1.3266
12755TIP3   OH259755   0.098   3.356  17.254 -0.2239  0.1151  0.5461
12755TIP3    H159756   0.015   3.309  17.257  0.2528 -0.9290 -1.0971
12755TIP3    H259757   0.092   3.421  17.324 -1.8580 -0.8392  1.3422
12756TIP3   OH259758   6.095   5.333  17.049 -0.3689 -0.4977 -0.2288
12756TIP3    H159759   6.068   5.307  17.138 -0.4139  0.3714  0.0137
12756TIP3    H259760   6.186   5.302  17.042  0.8976  2.4255  1.4216
12757TIP3   OH259761   5.566   5.592  14.930 -0.0453  0.3879 -1.0141
12757TIP3    H159762   5.645   5.603  14.983 -0.5863 -0.4456  0.0218
12757TIP3    H259763   5.572   5.502  14.897 -0.8081  0.1168 -0.4576
12758TIP3   OH259764   4.965   3.944  15.043 -0.4845  0.3293 -0.1080
12758TIP3    H159765   4.875   3.920  15.064 -0.3387 -0.2597 -0.1392
12758TIP3    H259766   5.008   3.957  15.128  0.4250 -3.2172  0.1201
12759TIP3   OH259767   4.573   5.553   2.262  0.1858  0.2699 -0.1309
12759TIP3    H159768   4.583   5.647   2.278 -2.5435  0.6718 -0.3915
12759TIP3    H259769   4.595   5.542   2.170  0.4532  0.6506 -0.1143
12760TIP3   OH259770   5.085   4.571  12.969 -0.1768 -0.3371 -0.1900
12760TIP3    H159771   5.006   4.621  12.948 -0.5067 -0.0626  1.5862
12760TIP3    H259772   5.139   4.578  12.890 -1.1362  1.0075 -0.7691
12761TIP3   OH259773   3.712   5.300  12.898 -0.0534 -0.0288  0.0707
12761TIP3    H159774   3.644   5.282  12.963  1.2613 -0.4882  1.3724
12761TIP3    H259775   3.777   5.353  12.944 -0.4290  2.1164 -1.7147
12762TIP3   OH259776   5.746   2.471  12.567 -0.3464 -1.0087 -0.5305
12762TIP3    H159777   5.787   2.549  12.530 -0.5931 -0.6792 -0.1118
12762TIP3    H259778   5.802   2.399  12.538  0.0320 -0.6536 -0.6946
12763TIP3   OH259779   6.579   6.625   3.927 -0.2458  0.5397  0.4693
12763TIP3    H159780   6.611   6.548   3.973 -2.3913  0.3309  1.7332
12763TIP3    H259781   6.640   6.636   3.853  0.6263 -1.8052  0.7656
12764TIP3   OH259782   1.528   5.928  15.994  0.1228  0.1118 -0.1059
12764TIP3    H159783   1.569   5.887  15.918 -1.1250 -0.7311 -0.3612
12764TIP3    H259784   1.548   5.869  16.067  0.9157  0.6688  0.1299
12765TIP3   OH259785   6.287   3.583  13.367 -0.3139  0.3999  0.3424
12765TIP3    H159786   6.315   3.669  13.399 -0.1289  0.7745 -0.7623
12765TIP3    H259787   6.317   3.521  13.433  1.8411  0.9400 -0.0518
12766TIP3   OH259788   5.943   2.902   3.457  0.1081  0.1318  0.7459
12766TIP3    H159789   5.849   2.902   3.475 -0.2373  3.9665 -0.2635
12766TIP3    H259790   5.950   2.867   3.368 -0.4779  0.6016  0.5085
12767TIP3   OH259791   6.763   2.110  15.526 -0.0709 -0.1802  0.1427
12767TIP3    H159792   6.822   2.142  15.457  0.4176  0.4413  0.8270
12767TIP3    H259793   6.680   2.155  15.509 -0.3805 -1.0856 -0.8454
12768TIP3   OH259794   2.037   1.720  10.732  0.0500  0.0069  0.0980
12768TIP3    H159795   2.112   1.665  10.754  0.3605  0.5693  0.4545
12768TIP3    H259796   2.058   1.806  10.769 -0.3553  0.4140 -0.5985
12769TIP3   OH259797   0.577   0.435  16.870 -0.1185  0.2238 -0.2988
12769TIP3    H159798   0.541   0.365  16.816 -0.6978 -0.9939  1.5806
12769TIP3    H259799   0.504   0.465  16.924  0.5517  1.0507  0.1805
12770TIP3   OH259800   1.787   1.955   2.639 -0.2293  0.8184 -0.6760
12770TIP3    H159801   1.859   1.922   2.585 -1.3704 -0.8380 -1.2697
12770TIP3    H259802   1.812   1.934   2.728  0.4664  1.1535 -0.7878
12771TIP3   OH259803   0.701   1.578  15.218 -0.0394  0.3638  0.1489
12771TIP3    H159804   0.769   1.517  15.249  1.1205  1.6434  0.2168
12771TIP3    H259805   0.620   1.544  15.257  0.8362 -0.1366  1.6572
12772TIP3   OH259806   1.263   5.702  14.821 -0.5868 -0.1256  0.0631
12772TIP3    H159807   1.273   5.793  14.849  1.7964 -0.2344 -0.2410
12772TIP3    H259808   1.310   5.698  14.737 -0.4074 -1.6837  0.2116
12773TIP3   OH259809   1.927   6.054  12.644 -0.4080  0.2631 -0.6492
12773TIP3    H159810   1.973   6.012  12.571 -1.0032  1.2262 -1.6019
12773TIP3    H259811   1.838   6.018  12.640 -0.6808  0.9448 -0.9446
12774TIP3   OH259812   4.996   2.353  16.817 -0.4407  0.1698 -0.8134
12774TIP3    H159813   5.028   2.288  16.755  1.5659  1.2859 -1.0370
12774TIP3    H259814   5.049   2.340  16.895  0.2335  1.7154 -0.9780
12775TIP3   OH259815   1.388   5.571   5.985 -0.5175  0.7258  0.1795
12775TIP3    H159816   1.399   5.624   6.064 -0.4072 -0.0833  0.7185
12775TIP3    H259817   1.470   5.584   5.936 -0.4590  0.9805  0.3453
12776TIP3   OH259818   4.132   1.667   5.679 -0.1587  0.0681  0.6007
12776TIP3    H159819   4.171   1.609   5.744  1.2941 -0.1763 -0.4249
12776TIP3    H259820   4.068   1.719   5.727 -0.1487 -1.0939  1.9078
12777TIP3   OH259821   6.597   4.892  15.402  0.4750  1.3615  0.2158
12777TIP3    H159822   6.648   4.904  15.321  0.7792  0.5330  0.2806
12777TIP3    H259823   6.591   4.980  15.439  2.0188  1.4720  0.2886
12778TIP3   OH259824   2.943   6.299   6.023 -0.0869 -0.2908 -0.2256
12778TIP3    H159825   2.889   6.343   6.088  0.9720  0.5741  0.0965
12778TIP3    H259826   3.025   6.281   6.068  0.5667  0.0802 -1.2321
12779TIP3   OH259827   5.822   3.840   5.584 -0.3794 -0.3610  0.5643
12779TIP3    H159828   5.899   3.791   5.612 -1.2551 -1.7745  0.6011
12779TIP3    H259829   5.857   3.922   5.548  0.9947 -0.1145  2.3319
12780TIP3   OH259830   0.584   4.173  16.018  0.5943 -0.5397 -0.2453
12780TIP3    H159831   0.645   4.128  15.960  0.1800 -0.5678 -0.6621
12780TIP3    H259832   0.538   4.235  15.962 -1.3610 -2.0676 -0.4321
12781TIP3   OH259833   5.291   1.761   1.405 -0.2198  0.1151  0.3490
12781TIP3    H159834   5.314   1.689   1.347  0.8897  0.0585  0.8288
12781TIP3    H259835   5.271   1.834   1.346 -1.8697 -0.7071 -0.1521
12782TIP3   OH259836   0.353   6.273   0.515  0.2982  0.1857 -0.1013
12782TIP3    H159837   0.427   6.327   0.488  1.8707 -1.7799  0.0513
12782TIP3    H259838   0.344   6.208   0.446 -0.7301 -0.1363  0.3223
12783TIP3   OH259839   5.603   4.383   1.005 -0.3906  0.5694  0.0972
12783TIP3    H159840   5.676   4.424   1.052 -1.5965  2.9300  0.0513
12783TIP3    H259841   5.645   4.333   0.934  1.2101  0.7542  0.8644
12784TIP3   OH259842   5.402   6.165   4.803  0.4209  0.1738 -0.0121
12784TIP3    H159843   5.360   6.193   4.884  0.9588 -0.4291  0.4897
12784TIP3    H259844   5.438   6.245   4.765 -0.6992  0.6176 -0.1840
12785TIP3   OH259845   4.465   5.211   6.770  0.0524  0.3495 -0.8158
12785TIP3    H159846   4.412   5.148   6.721 -1.2053  0.6916  0.0467
12785TIP3    H259847   4.515   5.157   6.831 -1.8552  0.1715  0.7106
12786TIP3   OH259848   0.477   0.904   1.880  0.1239  0.0435 -0.1315
12786TIP3    H159849   0.530   0.981   1.857 -0.5278  0.3724 -0.5646
12786TIP3    H259850   0.440   0.927   1.966  2.5855 -1.2005  1.3643
12787TIP3   OH259851   2.464   3.990  11.380  0.2706 -0.0915 -0.2916
12787TIP3    H159852   2.500   4.070  11.419  0.1257  0.4525 -1.2366
12787TIP3    H259853   2.422   3.945  11.453 -0.0372  0.9235  0.1878
12788TIP3   OH259854   1.002   6.261  16.382  0.0812  0.8721  0.2602
12788TIP3    H159855   0.989   6.356  16.377  0.0488  0.8030 -2.4506
12788TIP3    H259856   1.086   6.250  16.426  1.7729  2.3802 -2.3432
12789TIP3   OH259857   5.906   3.573  13.041 -0.6115 -0.8058 -0.9028
12789TIP3    H159858   5.931   3.528  13.121 -1.1739 -0.4487 -0.5214
12789TIP3    H259859   5.827   3.528  13.012 -1.5011  0.2752 -0.2126
12790TIP3   OH259860   3.415   6.531   5.067  0.4040 -0.2111  0.4312
12790TIP3    H159861   3.441   6.463   5.005 -0.2706 -1.2916  1.3073
12790TIP3    H259862   3.464   6.609   5.039 -0.3933 -0.4782 -1.8369
12791TIP3   OH259863   4.072   3.346   2.749  0.0379 -0.0884 -0.1382
12791TIP3    H159864   4.014   3.348   2.673  1.3604 -1.7243 -1.2717
12791TIP3    H259865   4.105   3.256   2.751  2.5318  0.7638  0.4035
12792TIP3   OH259866   0.183   3.245   1.757  0.1211  0.1550 -0.6455
12792TIP3    H159867   0.263   3.286   1.726 -0.5544  0.7571 -1.6339
12792TIP3    H259868   0.125   3.243   1.680 -0.2410 -1.7281 -0.3825
12793TIP3   OH259869   1.937   1.198   3.876  0.3735  0.8221 -0.3896
12793TIP3    H159870   1.975   1.112   3.858  0.0013  0.9588 -1.9661
12793TIP3    H259871   1.859   1.179   3.930  0.6504  0.2393 -0.1868
12794TIP3   OH259872   1.243   3.914   5.370 -0.2868  0.2179  0.3589
12794TIP3    H159873   1.219   3.993   5.419 -1.4977  0.3538 -0.4225
12794TIP3    H259874   1.184   3.913   5.295  0.7243 -0.6403 -0.4571
12795TIP3   OH259875   6.328   3.467   1.336  0.1899  0.0038  0.2855
12795TIP3    H159876   6.235   3.484   1.352  0.4348  0.6511  1.1496
12795TIP3    H259877   6.373   3.537   1.384  1.0840  1.0412 -1.9186
12796TIP3   OH259878   6.782   4.056  11.856 -0.3168  0.6940  0.3975
12796TIP3    H159879   6.827   3.981  11.895  1.4766  2.2171  1.3807
12796TIP3    H259880   6.831   4.132  11.885 -1.8082  2.2611 -0.9490
12797TIP3   OH259881   3.437   3.696  13.824 -0.2586  0.3269  0.3958
12797TIP3    H159882   3.357   3.643  13.830 -0.0519  0.0871  1.2213
12797TIP3    H259883   3.410   3.783  13.853 -0.1431  0.1432  1.0914
12798TIP3   OH259884   6.153   3.300  11.017  0.2746  0.2756  0.0804
12798TIP3    H159885   6.145   3.270  10.926  0.0148  3.7257 -1.1726
12798TIP3    H259886   6.236   3.346  11.020  0.0336  0.6550  1.4591
12799TIP3   OH259887   3.712   5.358   1.224 -0.6975 -0.3536 -0.3843
12799TIP3    H159888   3.752   5.302   1.157  0.2046 -1.1141  0.7487
12799TIP3    H259889   3.624   5.322   1.235 -0.8182 -0.2926 -1.0668
12800TIP3   OH259890   0.741   4.863   3.698 -0.4046  0.2552  0.4025
12800TIP3    H159891   0.781   4.777   3.689 -2.9913 -0.9463 -0.7818
12800TIP3    H259892   0.721   4.889   3.608 -0.6763  1.5901  0.8304
12801TIP3   OH259893   0.817   3.388   1.997 -0.5611 -0.3611  0.1940
12801TIP3    H159894   0.802   3.439   1.917  0.2783  0.7421  0.7077
12801TIP3    H259895   0.730   3.357   2.022 -0.9127 -0.2359 -0.8291
12802TIP3   OH259896   0.236   5.886   4.743 -0.1501  0.0018  0.2793
12802TIP3    H159897   0.168   5.824   4.768  0.7907 -1.7297 -1.2415
12802TIP3    H259898   0.245   5.943   4.819 -2.5971 -0.3148  0.8794
12803TIP3   OH259899   5.161   0.498  13.083 -0.6220 -0.3946  0.4062
12803TIP3    H159900   5.112   0.554  13.142 -1.9450  1.0343 -1.9031
12803TIP3    H259901   5.172   0.416  13.131 -1.7652  0.6101  2.5070
12804TIP3   OH259902   6.712   1.174  14.612 -0.5353 -0.1071  0.2761
12804TIP3    H159903   6.707   1.155  14.706  0.7726  0.4320  0.4661
12804TIP3    H259904   6.692   1.090  14.570 -2.0297 -0.1486  1.0004
12805TIP3   OH259905   5.563   5.990   2.507 -0.0045 -0.0929 -0.0042
12805TIP3    H159906   5.625   5.919   2.487  0.4134  0.8994 -2.4591
12805TIP3    H259907   5.502   5.990   2.434  0.0848  2.1464 -0.1368
12806TIP3   OH259908   4.301   4.456   5.662  0.5633 -0.0795  0.3384
12806TIP3    H159909   4.306   4.522   5.732  1.5803 -0.7883  0.9653
12806TIP3    H259910   4.207   4.441   5.650  0.3695  0.1200  1.4975
12807TIP3   OH259911   3.153   6.159  17.243 -0.7667  0.4277  0.0949
12807TIP3    H159912   3.142   6.070  17.276 -0.5856 -0.4788 -2.1207
12807TIP3    H259913   3.113   6.215  17.310 -3.2181 -1.4765  0.3443
12808TIP3   OH259914   0.673   4.611  10.850 -0.2191 -1.0835 -0.1334
12808TIP3    H159915   0.735   4.649  10.912 -1.1155 -1.8853  1.3074
12808TIP3    H259916   0.719   4.536  10.813  0.7436  0.0608 -1.3431
12809TIP3   OH259917   2.681   3.172  15.247 -0.1579 -0.1287  0.5325
12809TIP3    H159918   2.606   3.209  15.293  0.1762 -0.9119  1.7437
12809TIP3    H259919   2.756   3.197  15.301  0.2074 -1.3615  0.6092
12810TIP3   OH259920   4.462   0.824   0.288 -0.0517  0.0693 -0.4324
12810TIP3    H159921   4.449   0.730   0.276 -0.4407  0.0810 -0.1262
12810TIP3    H259922   4.385   0.853   0.335  0.9243  0.2037  1.1636
12811TIP3   OH259923   0.034   5.258  15.388 -0.0968  0.1244  0.3061
12811TIP3    H159924   0.102   5.220  15.443 -0.4747 -0.7717  0.1687
12811TIP3    H259925   0.066   5.346  15.368  1.6154 -0.6830 -0.7553
12812TIP3   OH259926   5.897   0.139  13.170 -0.8503  0.0433  0.5594
12812TIP3    H159927   5.980   0.185  13.158 -0.6128 -0.4996  0.0578
12812TIP3    H259928   5.923   0.048  13.186 -1.3677 -0.3907 -0.9008
12813TIP3   OH259929   1.068   4.559   2.260 -0.2894  0.3079  0.5598
12813TIP3    H159930   1.000   4.564   2.194  0.2715  0.3464 -0.0256
12813TIP3    H259931   1.049   4.631   2.320 -1.2840 -0.2402  0.9193
12814TIP3   OH259932   1.479   4.014  11.614  0.1708 -0.6259 -0.1620
12814TIP3    H159933   1.410   4.039  11.553 -0.4851  0.3082  0.9236
12814TIP3    H259934   1.436   4.009  11.699  1.0955 -1.7249  0.2822
12815TIP3   OH259935   1.567   1.274   4.963 -0.2267  0.0818 -0.6306
12815TIP3    H159936   1.476   1.249   4.973 -0.3931  0.8539 -0.1027
12815TIP3    H259937   1.615   1.220   5.025 -0.2774 -0.5580 -1.1418
12816TIP3   OH259938   5.481   0.144   3.096 -0.0569  0.6141 -0.6316
12816TIP3    H159939   5.386   0.147   3.084 -0.0616 -0.4449 -0.9889
12816TIP3    H259940   5.508   0.064   3.052  1.1517  1.4578 -1.5190
12817TIP3   OH259941   2.297   6.808   0.577  0.5407  0.3173  0.6689
12817TIP3    H159942   2.364   6.763   0.628 -0.4861 -0.7134  1.1442
12817TIP3    H259943   2.344   6.843   0.501  1.9682  1.3379  1.9801
12818TIP3   OH259944   1.331   4.567   2.392 -0.0557  0.0900 -0.6503
12818TIP3    H159945   1.271   4.546   2.464 -0.7581  1.2404 -0.8613
12818TIP3    H259946   1.287   4.534   2.314  0.9066 -1.5419 -0.5302
12819TIP3   OH259947   0.506   6.819  12.925  0.1719 -0.1591  0.0451
12819TIP3    H159948   0.451   6.888  12.961 -1.7202 -1.8469  0.5223
12819TIP3    H259949   0.514   6.754  12.995  1.2906 -0.8043 -0.6300
12820TIP3   OH259950   1.261   0.149  13.720  0.2401 -0.2149 -0.1245
12820TIP3    H159951   1.266   0.104  13.636  1.1256  0.0983 -0.2434
12820TIP3    H259952   1.261   0.242  13.698  0.2006 -0.1330  0.2148
12821TIP3   OH259953   2.491   3.509   2.830  0.0850  0.2232  0.5396
12821TIP3    H159954   2.556   3.570   2.796  0.8025  0.5972  2.4497
12821TIP3    H259955   2.409   3.559   2.833 -0.3653 -0.2468 -1.8613
12822TIP3   OH259956   6.257   1.300  16.728  0.1283  0.6054  0.4487
12822TIP3    H159957   6.215   1.225  16.771  2.0363 -0.5520  0.4231
12822TIP3    H259958   6.249   1.282  16.635  1.0893  0.0985  0.4492
12823TIP3   OH259959   2.351   5.904  13.897  0.3442 -0.3436 -0.2817
12823TIP3    H159960   2.296   5.920  13.973 -1.7219  1.9593 -2.1383
12823TIP3    H259961   2.318   5.822  13.860  0.8735 -1.0810  0.8412
12824TIP3   OH259962   3.827   5.328  15.676  0.4817  0.0389 -0.3015
12824TIP3    H159963   3.813   5.277  15.596 -0.8344  0.1605 -0.1829
12824TIP3    H259964   3.917   5.310  15.701  0.8121 -0.2578 -1.6340
12825TIP3   OH259965   5.252   3.239  13.848 -0.8930 -0.4536 -0.1075
12825TIP3    H159966   5.238   3.333  13.858 -0.0553 -0.1501 -1.4521
12825TIP3    H259967   5.213   3.218  13.763  0.5630 -0.9153 -0.7070
12826TIP3   OH259968   4.090   3.821  13.920 -0.2616 -0.2177  0.2525
12826TIP3    H159969   4.035   3.857  13.851  2.0379  0.3570 -1.4121
12826TIP3    H259970   4.158   3.772  13.873  0.6757 -0.8604  2.1766
12827TIP3   OH259971   1.360   6.770   0.515  0.1356 -0.2123 -0.7242
12827TIP3    H159972   1.299   6.837   0.547  0.0877 -0.3092 -0.6146
12827TIP3    H259973   1.337   6.691   0.563  0.2075 -0.3038 -0.8387
12828TIP3   OH259974   4.634   3.044   1.084  0.0914  0.7278  0.5311
12828TIP3    H159975   4.672   3.028   1.171  0.2875  1.4225  0.5832
12828TIP3    H259976   4.639   3.139   1.073  0.0384  0.6501 -0.2300
12829TIP3   OH259977   3.751   5.566  12.739 -0.1017 -0.4039  0.1159
12829TIP3    H159978   3.844   5.563  12.761 -0.1344  1.0472  0.5464
12829TIP3    H259979   3.709   5.605  12.816 -0.5875  2.1984 -1.3377
12830TIP3   OH259980   6.354   1.818   5.011 -0.1878  0.3712 -0.0349
12830TIP3    H159981   6.401   1.879   5.067 -0.4537  0.7044 -0.1771
12830TIP3    H259982   6.417   1.796   4.941  0.0925  0.0670  0.3045
12831TIP3   OH259983   6.061   1.422  11.160 -0.6472  0.3128  0.4963
12831TIP3    H159984   6.100   1.370  11.090 -0.6965 -0.2603  0.8958
12831TIP3    H259985   6.128   1.487  11.181 -0.5847  0.4142  0.0024
12832TIP3   OH259986   3.936   4.188   2.190 -0.3810 -0.1574 -0.0627
12832TIP3    H159987   3.860   4.130   2.199 -1.2525  0.4523 -2.6079
12832TIP3    H259988   3.916   4.263   2.246 -1.7231 -0.0038 -0.6899
12833TIP3   OH259989   0.336   2.610   3.966 -0.5766 -0.3230  0.8003
12833TIP3    H159990   0.319   2.663   3.888 -0.9222 -0.0583  1.0536
12833TIP3    H259991   0.384   2.669   4.025  2.8766 -1.5042 -0.5388
12834TIP3   OH259992   0.282   5.069   1.025  0.2030  0.2478  0.3841
12834TIP3    H159993   0.248   5.116   0.949  1.6237  1.7989  0.6641
12834TIP3    H259994   0.351   5.013   0.989 -0.4498 -0.4941  0.2697
12835TIP3   OH259995   4.651   0.563   4.699 -0.2401  0.1499  0.1013
12835TIP3    H159996   4.595   0.530   4.769 -0.8455 -0.2439 -0.5500
12835TIP3    H259997   4.623   0.514   4.621  0.9107  0.0545 -0.2722
12836TIP3   OH259998   1.611   5.648   1.763 -0.7425  0.3754 -0.8445
12836TIP3    H159999   1.650   5.629   1.848 -0.4259  1.0581 -0.8288
12836TIP3    H260000   1.517   5.638   1.776 -0.8578  2.1994  0.0735
12837TIP3   OH260001   0.974   2.536  15.960  0.2451  0.1600  0.0826
12837TIP3    H160002   1.005   2.620  15.925 -1.0990  0.3560 -0.7302
12837TIP3    H260003   0.884   2.555  15.988  0.5656 -0.5582  1.6340
12838TIP3   OH260004   0.220   6.595  17.062 -0.2595 -0.0836  0.2183
12838TIP3    H160005   0.268   6.628  16.986  0.4959 -2.2228 -0.3035
12838TIP3    H260006   0.181   6.673  17.101  1.2369  1.3617 -1.0200
12839TIP3   OH260007   1.612   4.348  16.052 -0.4298  0.1817 -0.1577
12839TIP3    H160008   1.519   4.330  16.042 -0.6830  0.8294  0.9134
12839TIP3    H260009   1.636   4.399  15.974 -1.4402  1.7933  0.5610
12840TIP3   OH260010   5.203   5.031   1.762 -0.1182  0.3751 -0.9749
12840TIP3    H160011   5.239   5.066   1.680  1.5194  0.6303 -0.1926
12840TIP3    H260012   5.280   5.007   1.813 -1.1188 -0.0303  0.3929
12841TIP3   OH260013   1.031   1.111   0.678  0.7680 -0.4958 -0.1366
12841TIP3    H160014   0.943   1.147   0.689  0.3106 -0.5768 -2.8024
12841TIP3    H260015   1.087   1.172   0.725 -0.6635 -0.3595  1.5146
12842TIP3   OH260016   2.895   1.914   6.316 -0.0625  0.1609 -0.0996
12842TIP3    H160017   2.909   2.006   6.339 -0.2861  0.0570  0.4701
12842TIP3    H260018   2.803   1.898   6.336 -0.1692 -0.0441 -0.7171
12843TIP3   OH260019   4.331   0.808  14.874 -0.6063  0.6077 -0.5422
12843TIP3    H160020   4.356   0.718  14.893 -2.9750  0.2406  1.3402
12843TIP3    H260021   4.399   0.861  14.916 -1.0215 -0.3379  1.4902
12844TIP3   OH260022   0.659   5.567   1.063  0.5767  0.3178 -0.5148
12844TIP3    H160023   0.748   5.545   1.035 -0.0059  0.9099 -3.0716
12844TIP3    H260024   0.627   5.488   1.106  1.3501 -0.9624 -2.2020
12845TIP3   OH260025   1.731   1.612  13.526 -0.3246 -0.1395  0.2644
12845TIP3    H160026   1.706   1.675  13.593 -0.8256 -0.9352  0.8496
12845TIP3    H260027   1.817   1.581  13.552 -0.2749 -0.0312  0.2280
12846TIP3   OH260028   1.928   5.426  11.517 -0.4408  0.2102 -0.6838
12846TIP3    H160029   1.907   5.397  11.606  0.2927 -0.8270 -0.8293
12846TIP3    H260030   1.898   5.517  11.514 -1.1355  0.0367  0.3865
12847TIP3   OH260031   2.394   1.565  13.063 -0.6008  0.1907  0.6173
12847TIP3    H160032   2.487   1.590  13.065 -0.5453 -0.0495  1.9239
12847TIP3    H260033   2.369   1.574  12.971  0.8520 -0.2268  0.1458
12848TIP3   OH260034   6.595   6.781  15.765 -0.1027 -0.0180 -0.2532
12848TIP3    H160035   6.616   6.754  15.855 -0.5123  0.0111 -0.1461
12848TIP3    H260036   6.620   6.706  15.711  0.3095  0.0324 -0.1358
12849TIP3   OH260037   0.668   4.730   4.938  0.7474 -0.0245  0.2676
12849TIP3    H160038   0.573   4.722   4.928  0.5728  1.6621  0.3152
12849TIP3    H260039   0.695   4.790   4.869  1.5013  0.9391  1.3611
12850TIP3   OH260040   1.224   5.606  14.293 -0.1526  0.5651  0.5476
12850TIP3    H160041   1.315   5.580  14.274 -0.4022 -1.2767  1.7265
12850TIP3    H260042   1.179   5.595  14.209  0.4375  0.3063  0.2536
12851TIP3   OH260043   6.696   0.985   4.922  0.2802 -0.0296 -0.8106
12851TIP3    H160044   6.778   0.976   4.873  1.1605  0.0596  0.6078
12851TIP3    H260045   6.689   1.079   4.940 -0.6463  0.0992 -1.7446
12852TIP3   OH260046   5.616   6.636   1.154 -0.1054 -0.4714  0.2256
12852TIP3    H160047   5.592   6.636   1.061  0.0925  1.1365  0.1369
12852TIP3    H260048   5.708   6.662   1.154  0.1072 -1.2052  0.8436
12853TIP3   OH260049   1.635   0.102   5.774  0.2536 -0.4477  0.0575
12853TIP3    H160050   1.636   0.123   5.867 -0.1254 -0.3789  0.0503
12853TIP3    H260051   1.676   0.016   5.767  1.8816  0.2960  0.0896
12854TIP3   OH260052   5.664   5.828   3.683 -0.3581  0.3205  0.1888
12854TIP3    H160053   5.715   5.864   3.610  0.2196  1.8875  1.3175
12854TIP3    H260054   5.675   5.733   3.675  2.5200  0.5642  0.1983
12855TIP3   OH260055   6.772   4.215  11.258 -0.0161 -0.2744 -0.0105
12855TIP3    H160056   6.798   4.123  11.263  0.4075 -0.0743  2.2748
12855TIP3    H260057   6.684   4.218  11.296 -0.4281  0.1484 -0.9538
12856TIP3   OH260058   3.444   5.312  12.333  0.4415 -0.2706  0.0695
12856TIP3    H160059   3.466   5.296  12.425  0.1096  0.4642  0.2900
12856TIP3    H260060   3.527   5.308  12.287  0.3805 -2.7219  0.0628
12857TIP3   OH260061   0.306   5.946  11.361  0.2869 -0.6540 -0.2688
12857TIP3    H160062   0.330   5.854  11.369  1.4070 -0.6259 -2.5079
12857TIP3    H260063   0.324   5.968  11.269 -2.2437  1.1775 -0.4209
12858TIP3   OH260064   3.168   6.197   2.059 -0.3138 -0.5921 -0.4807
12858TIP3    H160065   3.131   6.210   1.972 -0.3211  0.0238 -0.3944
12858TIP3    H260066   3.260   6.222   2.050 -0.0587 -1.5291 -0.5508
12859TIP3   OH260067   1.544   2.808  16.339  0.1322 -0.0608  0.0305
12859TIP3    H160068   1.599   2.857  16.400  0.0631  2.7238 -1.9294
12859TIP3    H260069   1.581   2.720  16.338  2.4163  0.7912  1.2846
12860TIP3   OH260070   3.784   2.135   0.302  0.1076  0.1397 -0.5097
12860TIP3    H160071   3.875   2.121   0.276 -0.2302  1.6082 -2.7652
12860TIP3    H260072   3.790   2.189   0.381  1.2333  1.0357 -1.1696
12861TIP3   OH260073   6.086   2.699  11.451  0.3470  0.3780  0.2780
12861TIP3    H160074   6.086   2.612  11.493  0.3318 -0.2021 -0.8709
12861TIP3    H260075   6.004   2.701  11.402  2.3855 -1.0143 -3.6697
12862TIP3   OH260076   6.081   2.523  14.152  0.0053 -0.3652  0.5910
12862TIP3    H160077   6.120   2.547  14.068 -1.1982  0.4514  0.2419
12862TIP3    H260078   6.142   2.557  14.217 -0.1136  0.9231  0.0579
12863TIP3   OH260079   1.054   4.949  15.093 -0.5376  0.0742  0.2708
12863TIP3    H160080   1.072   4.872  15.147  1.7904  1.6795  1.9980
12863TIP3    H260081   1.109   4.938  15.015 -0.1362  0.0176  0.5610
12864TIP3   OH260082   4.833   4.219  13.164  0.2110  0.0124 -0.3432
12864TIP3    H160083   4.911   4.274  13.162 -0.0387  0.3740 -0.2073
12864TIP3    H260084   4.764   4.276  13.197  0.0439 -0.5088  0.2166
12865TIP3   OH260085   5.241   2.012  13.564 -0.0286 -0.4079  0.1740
12865TIP3    H160086   5.308   1.958  13.606 -0.4195  0.1669  1.5870
12865TIP3    H260087   5.163   1.956  13.563 -0.0159 -0.4261  0.1762
12866TIP3   OH260088   1.901   3.500   4.767  0.2104 -0.0895 -0.3826
12866TIP3    H160089   1.857   3.561   4.826  1.1396  0.2522 -0.0153
12866TIP3    H260090   1.902   3.543   4.682 -1.1586 -0.5941 -0.6715
12867TIP3   OH260091   0.979   2.450  17.203  0.1540  0.0802 -0.5185
12867TIP3    H160092   1.073   2.468  17.211  0.3480 -0.6565 -0.9897
12867TIP3    H260093   0.974   2.374  17.145 -0.6255 -1.3875  1.3704
12868TIP3   OH260094   4.211   3.868   3.931 -0.0057  0.2484  0.5602
12868TIP3    H160095   4.305   3.853   3.935  0.0785  0.7959  0.6570
12868TIP3    H260096   4.178   3.839   4.016  0.0420 -0.1589  0.4410
12869TIP3   OH260097   0.195   0.104   0.168 -0.0137  0.1353 -0.1222
12869TIP3    H160098   0.274   0.137   0.211 -0.3648 -1.7746  2.2067
12869TIP3    H260099   0.212   0.011   0.153 -1.0012  0.1624 -1.6569
12870TIP3   OH260100   6.729   0.647  11.616 -0.0641 -0.1399  0.1456
12870TIP3    H160101   6.638   0.662  11.589  0.2874  1.1724 -0.4012
12870TIP3    H260102   6.735   0.553  11.630 -1.5725 -0.2162  0.4170
12871TIP3   OH260103   2.303   3.959   4.327 -0.1522 -0.0960  0.1810
12871TIP3    H160104   2.241   3.886   4.324  0.0404 -0.2475 -0.6021
12871TIP3    H260105   2.324   3.969   4.420 -0.5234 -0.7495  0.3458
12872TIP3   OH260106   4.209   2.911   2.609  0.4916 -0.7562  0.2136
12872TIP3    H160107   4.181   2.990   2.654  0.0822  0.2067 -1.6195
12872TIP3    H260108   4.298   2.931   2.579  0.2217 -0.7981 -0.6391
12873TIP3   OH260109   5.573   5.036   2.818 -0.3789  0.0548 -0.3179
12873TIP3    H160110   5.642   4.970   2.825  0.6316  1.1700  0.9415
12873TIP3    H260111   5.522   5.010   2.742 -0.0625 -2.1885  0.1877
12874TIP3   OH260112   4.828   0.599   3.118  0.1797  0.8094 -0.5717
12874TIP3    H160113   4.840   0.527   3.055  0.2477 -0.4544  0.8494
12874TIP3    H260114   4.734   0.612   3.121 -0.0139 -0.6317  0.6580
12875TIP3   OH260115   3.670   1.229  14.150 -0.1926  0.3491 -0.1687
12875TIP3    H160116   3.703   1.318  14.156  0.2738  0.2254 -0.8315
12875TIP3    H260117   3.576   1.237  14.165  0.2129  0.5601  3.1000
12876TIP3   OH260118   6.037   0.752   1.460  0.3299 -0.7155 -0.1557
12876TIP3    H160119   5.977   0.738   1.386  0.5787  0.0836 -0.5167
12876TIP3    H260120   6.084   0.669   1.468 -1.2040 -1.5583  0.4943
12877TIP3   OH260121   0.773   0.267   1.894  0.2137  0.7108  0.4453
12877TIP3    H160122   0.796   0.299   1.807 -0.5575 -1.0445 -0.4307
12877TIP3    H260123   0.739   0.345   1.939  0.6942  1.6653 -0.7792
12878TIP3   OH260124   5.467   2.745   6.289 -0.0460 -0.3149  0.6260
12878TIP3    H160125   5.404   2.672   6.289  0.0302 -0.3816  0.6334
12878TIP3    H260126   5.459   2.783   6.376 -1.1359  0.6048  0.1365
12879TIP3   OH260127   2.939   3.866   6.070 -0.8646 -0.2344 -0.8570
12879TIP3    H160128   2.938   3.862   6.166  0.0668  1.1073 -0.7637
12879TIP3    H260129   2.930   3.775   6.042  0.7651 -0.8871  0.5500
12880TIP3   OH260130   6.663   3.016   5.536 -0.3228 -0.2176 -0.4431
12880TIP3    H160131   6.690   3.107   5.547 -0.4979 -0.1954 -0.1884
12880TIP3    H260132   6.737   2.974   5.492  0.2514 -0.2260  0.4971
12881TIP3   OH260133   2.056   1.693  11.958  0.2055 -0.0134 -0.2303
12881TIP3    H160134   1.970   1.731  11.937  0.1848 -0.4524 -0.9643
12881TIP3    H260135   2.097   1.677  11.873  1.0967  0.3611  0.1156
12882TIP3   OH260136   6.480   0.902  13.388  0.0849  0.5875 -0.0400
12882TIP3    H160137   6.544   0.830  13.389 -1.1765 -0.5818  1.6991
12882TIP3    H260138   6.520   0.968  13.331  2.2666 -0.5917  0.0021
12883TIP3   OH260139   5.722   5.643   4.980 -0.8738 -0.3702  0.2084
12883TIP3    H160140   5.696   5.729   4.946  0.2394  0.4968  1.4489
12883TIP3    H260141   5.652   5.619   5.041 -0.4830  0.3702  0.9726
12884TIP3   OH260142   6.554   4.139  11.641 -0.1768 -0.2402  0.2969
12884TIP3    H160143   6.636   4.133  11.690 -0.9336 -2.2878  1.4302
12884TIP3    H260144   6.499   4.197  11.694  0.0763  0.0570  0.2355
12885TIP3   OH260145   5.932   0.884  15.895  0.5852  0.4663 -0.1150
12885TIP3    H160146   5.983   0.874  15.815 -0.2809 -0.6688 -0.5496
12885TIP3    H260147   5.895   0.797  15.912  0.5334  0.7462  1.3720
12886TIP3   OH260148   5.511   5.512   3.944  0.3006 -0.2503  0.2290
12886TIP3    H160149   5.525   5.557   4.027  0.5059  0.6844 -0.2945
12886TIP3    H260150   5.520   5.419   3.965 -0.1832 -0.0582  1.3475
12887TIP3   OH260151   4.593   4.537  14.411 -0.5098  0.4186 -0.0422
12887TIP3    H160152   4.688   4.541  14.398 -0.5376 -1.2820 -1.0343
12887TIP3    H260153   4.575   4.444  14.425 -2.0857  0.6569 -0.3268
12888TIP3   OH260154   2.049   2.293  17.050 -0.5782 -0.1566  0.0267
12888TIP3    H160155   2.094   2.353  16.990 -2.1058  2.2928  1.1841
12888TIP3    H260156   2.116   2.231  17.077  1.2794  1.4336 -0.7175
12889TIP3   OH260157   0.721   6.569  14.720 -0.2226  0.4513  1.1093
12889TIP3    H160158   0.757   6.489  14.682 -0.6657 -0.1375  1.8843
12889TIP3    H260159   0.627   6.553  14.724 -0.3076  0.9843  1.3414
12890TIP3   OH260160   0.967   1.852  13.140 -0.5827 -0.1473 -0.2675
12890TIP3    H160161   0.964   1.937  13.185  0.9858 -0.6513  0.8550
12890TIP3    H260162   0.918   1.793  13.198  0.7505 -0.6134  0.4370
12891TIP3   OH260163   0.568   4.986  15.947  0.2878  0.0379  0.2072
12891TIP3    H160164   0.637   4.927  15.918 -0.1731 -0.4953  0.1831
12891TIP3    H260165   0.501   4.979  15.879 -0.0059  0.1761  0.4816
12892TIP3   OH260166   0.777   4.547  13.157  0.4215  0.2379 -0.5251
12892TIP3    H160167   0.821   4.632  13.160 -2.1814  1.6571  1.4175
12892TIP3    H260168   0.752   4.537  13.065  0.3283  1.8706 -0.7171
12893TIP3   OH260169   2.383   4.634   2.039 -0.2000  0.3190 -0.0581
12893TIP3    H160170   2.305   4.687   2.022 -0.5721 -0.4052 -0.6783
12893TIP3    H260171   2.385   4.571   1.968  0.9818  0.3406 -0.0647
12894TIP3   OH260172   6.098   5.454  15.439  0.0309 -0.7718  0.1682
12894TIP3    H160173   6.155   5.515  15.392 -1.1359  1.0431  0.9906
12894TIP3    H260174   6.075   5.388  15.373 -1.1412  1.3885 -1.7610
12895TIP3   OH260175   2.971   2.898  12.674  0.2631 -0.2310  0.3911
12895TIP3    H160176   3.059   2.936  12.679  0.7836 -1.5197  1.6220
12895TIP3    H260177   2.933   2.937  12.595  2.0955  0.0268 -0.4240
12896TIP3   OH260178   2.952   4.788   4.752 -0.1136  0.1727  0.0932
12896TIP3    H160179   2.936   4.863   4.809  0.1106  0.0953  0.2609
12896TIP3    H260180   2.901   4.716   4.791 -1.2595  0.5167 -0.7154
12897TIP3   OH260181   1.275   3.934   1.055 -0.1034  0.8723  0.1592
12897TIP3    H160182   1.205   3.985   1.094 -0.4067  1.3662 -0.9767
12897TIP3    H260183   1.334   3.999   1.017  0.2446  0.4230 -0.0809
12898TIP3   OH260184   5.377   1.221   1.116  0.7292 -0.4315  0.4094
12898TIP3    H160185   5.399   1.130   1.136 -1.6240 -1.2854 -0.5625
12898TIP3    H260186   5.307   1.243   1.177  0.2262  0.2154 -0.3852
12899TIP3   OH260187   3.719   5.106  15.462  0.3100  0.1372 -0.5043
12899TIP3    H160188   3.632   5.129  15.496  0.1844 -0.8594 -0.1184
12899TIP3    H260189   3.714   5.125  15.369 -1.0028 -1.8036 -0.8780
12900TIP3   OH260190   0.804   3.966   0.785 -0.0585 -0.0190  0.2437
12900TIP3    H160191   0.768   4.038   0.837 -2.2917 -1.6461  1.1283
12900TIP3    H260192   0.861   4.008   0.721 -0.9324  2.4814  1.0005
12901TIP3   OH260193   3.164   6.574  14.497  0.4690 -0.1270 -0.2455
12901TIP3    H160194   3.147   6.631  14.572  0.0129 -1.0519  0.3859
12901TIP3    H260195   3.090   6.588  14.438  0.9773  0.8233 -0.6790
12902TIP3   OH260196   2.617   6.113  14.413  0.1445 -0.1708  0.1925
12902TIP3    H160197   2.527   6.143  14.416 -1.2153 -3.7181 -0.1827
12902TIP3    H260198   2.629   6.079  14.324  1.1508 -1.5498  0.8056
12903TIP3   OH260199   5.242   2.897  16.191  0.5662  0.6800  0.6699
12903TIP3    H160200   5.270   2.928  16.277 -0.6749 -3.1843  2.6974
12903TIP3    H260201   5.148   2.879  16.202  0.1255  1.0776 -1.8863
12904TIP3   OH260202   3.473   4.634  16.233  0.1284 -0.1868  0.5178
12904TIP3    H160203   3.536   4.565  16.215 -1.0144 -1.4218  1.0579
12904TIP3    H260204   3.388   4.595  16.214 -0.6426  0.6747  1.9443
12905TIP3   OH260205   5.625   6.345  12.132 -0.6072 -0.4456 -0.1888
12905TIP3    H160206   5.570   6.415  12.095  0.8996  0.0085 -1.6997
12905TIP3    H260207   5.630   6.279  12.063  1.5485  0.0070 -0.5452
12906TIP3   OH260208   0.633   4.606   5.938  0.5135 -0.0369 -0.3946
12906TIP3    H160209   0.619   4.517   5.905  0.2885 -0.2902  0.3647
12906TIP3    H260210   0.588   4.662   5.875 -2.5704 -0.7016  1.0092
12907TIP3   OH260211   2.121   3.522  10.940  0.5407  0.2253 -0.5609
12907TIP3    H160212   2.080   3.595  10.895 -0.8012 -0.1612 -0.0035
12907TIP3    H260213   2.210   3.519  10.904  0.1922  1.2691 -1.5768
12908TIP3   OH260214   5.571   6.263  11.203 -0.5560 -0.7269 -0.4085
12908TIP3    H160215   5.583   6.172  11.230  0.8289 -0.0426  1.5320
12908TIP3    H260216   5.645   6.280  11.144 -0.3808 -0.6455 -0.1651
12909TIP3   OH260217   6.159   2.479  12.673 -0.2978  0.2160  0.0672
12909TIP3    H160218   6.180   2.465  12.765  1.6519  0.3638 -0.3126
12909TIP3    H260219   6.125   2.569  12.670  1.0128  0.7458  0.4605
12910TIP3   OH260220   5.690   1.875  12.051 -0.4977 -0.0472 -0.3920
12910TIP3    H160221   5.767   1.820  12.063 -0.8299 -0.2161  1.1862
12910TIP3    H260222   5.618   1.824  12.088 -0.6242  1.8596  2.2965
12911TIP3   OH260223   1.269   5.030  15.569  0.4184 -0.4899 -0.2085
12911TIP3    H160224   1.186   5.026  15.617  1.7579 -0.4441  2.2537
12911TIP3    H260225   1.252   5.090  15.496 -1.6195 -0.2736  0.3863
12912TIP3   OH260226   1.623   4.736   5.450  0.2417 -0.0033 -0.2319
12912TIP3    H160227   1.616   4.831   5.456  0.1060 -0.0072 -0.3200
12912TIP3    H260228   1.688   4.712   5.516 -0.1194  0.0990  0.1705
12913TIP3   OH260229   1.569   3.970   1.742 -0.7194 -0.0124  0.3389
12913TIP3    H160230   1.482   3.964   1.702 -1.1815 -0.0717  1.3257
12913TIP3    H260231   1.586   4.064   1.747 -0.8942  0.0111  0.4990
12914TIP3   OH260232   1.507   6.190   0.126  0.6578  0.0604  0.2223
12914TIP3    H160233   1.532   6.270   0.080  3.1725 -1.0776 -0.5733
12914TIP3    H260234   1.447   6.145   0.067 -0.0626  0.9221  0.2866
12915TIP3   OH260235   1.107   2.531   5.714  0.3156  1.6043  0.2857
12915TIP3    H160236   1.172   2.569   5.773  1.5593  0.1631 -0.1104
12915TIP3    H260237   1.023   2.563   5.748  1.0993  2.1029  1.8674
12916TIP3   OH260238   5.077   4.763  16.472 -0.0861 -0.0838  0.8410
12916TIP3    H160239   5.145   4.826  16.496 -1.3115  1.3983  0.5352
12916TIP3    H260240   5.121   4.678  16.478  1.3878  0.7039  2.0925
12917TIP3   OH260241   5.185   2.251  12.958  0.6121  0.6471 -0.0052
12917TIP3    H160242   5.147   2.242  13.046  1.3701 -1.8239  0.1373
12917TIP3    H260243   5.266   2.299  12.972  0.2906  1.0536  0.5016
12918TIP3   OH260244   3.846   2.744   4.195 -0.5519  0.2607 -0.0295
12918TIP3    H160245   3.819   2.835   4.186 -0.4698  0.2232 -0.7468
12918TIP3    H260246   3.766   2.697   4.218 -1.4585 -0.0257 -3.2201
12919TIP3   OH260247   4.601   2.542   4.664  0.0877 -0.2410 -0.2563
12919TIP3    H160248   4.574   2.557   4.755  0.8834  0.5809 -0.1395
12919TIP3    H260249   4.539   2.594   4.612 -0.1270 -0.3979 -0.1594
12920TIP3   OH260250   1.725   5.431  13.681  0.1293 -0.2159 -0.1927
12920TIP3    H160251   1.713   5.337  13.687 -0.2708 -0.1421  0.3037
12920TIP3    H260252   1.668   5.459  13.610 -0.3538 -0.2477  0.1838
12921TIP3   OH260253   5.876   1.963   6.151 -0.4057 -0.1100  0.0373
12921TIP3    H160254   5.946   2.022   6.178 -0.8944  0.6201 -0.2541
12921TIP3    H260255   5.801   1.989   6.205 -0.7012 -0.2834 -0.2841
12922TIP3   OH260256   0.430   3.521   5.292  0.1794 -0.3871 -0.1791
12922TIP3    H160257   0.509   3.547   5.339  1.1346 -1.1786 -1.2646
12922TIP3    H260258   0.358   3.560   5.340  1.3498  1.9690 -0.2371
12923TIP3   OH260259   3.026   0.365   1.571 -0.1208 -0.4371  0.5321
12923TIP3    H160260   3.103   0.308   1.567 -0.1517 -0.4954 -3.6465
12923TIP3    H260261   3.062   0.454   1.561 -0.4185 -0.1108  2.1196
12924TIP3   OH260262   3.946   5.254  11.688 -0.0181 -0.5546  0.5342
12924TIP3    H160263   3.998   5.327  11.722 -2.4381  0.5964  2.0010
12924TIP3    H260264   3.989   5.175  11.724  1.2575  0.2651  0.8744
12925TIP3   OH260265   0.420   4.141  12.150 -0.0156  0.2195 -0.1154
12925TIP3    H160266   0.492   4.139  12.087  1.3506  0.7936  1.3790
12925TIP3    H260267   0.405   4.050  12.173 -1.0859 -0.0873 -1.8239
12926TIP3   OH260268   0.290   2.895  14.385 -0.1453 -0.0884  0.2802
12926TIP3    H160269   0.317   2.914  14.475  0.2777 -2.9276  0.8424
12926TIP3    H260270   0.322   2.970  14.335  0.5440  1.0740  2.3114
12927TIP3   OH260271   0.623   2.872  15.446  0.2689 -0.5060 -0.2119
12927TIP3    H160272   0.606   2.944  15.385 -1.0719 -0.2756  0.3801
12927TIP3    H260273   0.638   2.915  15.530 -0.4082 -0.8865  0.1183
12928TIP3   OH260274   5.346   1.282   0.471 -0.2453  0.2865  0.0284
12928TIP3    H160275   5.279   1.335   0.429  0.1865  0.4513 -0.4607
12928TIP3    H260276   5.419   1.343   0.485 -0.9232  0.6693  2.4527
12929TIP3   OH260277   1.089   4.011  12.784 -0.0562 -0.5480 -0.1495
12929TIP3    H160278   1.109   3.999  12.877  0.1459 -0.2077 -0.1454
12929TIP3    H260279   1.149   4.081  12.756  0.6365 -1.3857 -0.7987
12930TIP3   OH260280   1.976   0.852   0.819  0.2521 -0.1935 -0.1109
12930TIP3    H160281   1.952   0.941   0.843  1.6627  0.2815 -0.3632
12930TIP3    H260282   1.932   0.836   0.735 -0.2613  0.1386  0.0916
12931TIP3   OH260283   4.405   3.704  13.525  0.1398 -0.1485  0.2140
12931TIP3    H160284   4.425   3.778  13.467  0.1390  1.3229  1.9968
12931TIP3    H260285   4.312   3.687  13.511 -0.0262  0.6603  0.2725
12932TIP3   OH260286   1.431   1.737   4.398 -0.2671 -0.6523  0.2979
12932TIP3    H160287   1.354   1.762   4.450  0.3016  0.0662  0.8141
12932TIP3    H260288   1.506   1.764   4.451  0.3453  1.5792 -1.5768
12933TIP3   OH260289   1.022   1.606  12.925  0.3138 -0.0336 -0.2285
12933TIP3    H160290   0.964   1.680  12.908 -1.0126 -0.8860  0.4256
12933TIP3    H260291   1.045   1.614  13.018  0.3287 -0.3187 -0.2049
12934TIP3   OH260292   5.168   5.349   6.586  0.4496 -0.3673  0.0758
12934TIP3    H160293   5.149   5.440   6.560  0.9948 -0.1036  0.5960
12934TIP3    H260294   5.083   5.315   6.616  0.0519 -0.3130 -0.9358
12935TIP3   OH260295   6.258   0.882   0.491  0.2006  0.1944 -0.6632
12935TIP3    H160296   6.217   0.802   0.456  0.8622 -0.7955  0.7317
12935TIP3    H260297   6.266   0.940   0.415 -1.6230 -0.4878 -1.4338
12936TIP3   OH260298   0.796   0.619  16.874 -0.0483 -0.7469 -0.5062
12936TIP3    H160299   0.870   0.579  16.920  0.2177 -0.4384 -0.6610
12936TIP3    H260300   0.721   0.564  16.896  0.0137 -0.4154  0.5529
12937TIP3   OH260301   5.891   2.328  12.227 -0.0585  0.2965  0.0010
12937TIP3    H160302   5.801   2.349  12.251  0.2664  0.7142  0.9129
12937TIP3    H260303   5.887   2.307  12.134 -1.2070 -0.3662  0.1816
12938TIP3   OH260304   3.254   6.011   1.110  0.3809 -0.3892 -0.3021
12938TIP3    H160305   3.329   6.008   1.050  1.4461 -0.2615  0.9911
12938TIP3    H260306   3.292   6.023   1.197 -1.1892  0.4231  0.3141
12939TIP3   OH260307   0.059   3.765   3.212  0.1744  0.5440 -0.4931
12939TIP3    H160308   0.154   3.771   3.218  0.0832  1.2435  0.5124
12939TIP3    H260309   0.030   3.854   3.194 -0.3186  0.4347 -0.2621
12940TIP3   OH260310   4.834   6.067  11.382  0.6953  0.3785  0.1515
12940TIP3    H160311   4.750   6.085  11.425 -0.3015  1.3353 -2.0424
12940TIP3    H260312   4.810   6.035  11.295  2.6023 -3.3388  0.7842
12941TIP3   OH260313   6.690   5.236   3.598  0.0893 -0.7498  0.3293
12941TIP3    H160314   6.678   5.281   3.682 -1.1377 -0.6170  0.0937
12941TIP3    H260315   6.755   5.169   3.617  2.7021  1.6190  0.4978
12942TIP3   OH260316   2.997   2.546   0.354  0.5304  0.3266  0.8800
12942TIP3    H160317   2.928   2.586   0.407  0.5660  0.2493  0.9862
12942TIP3    H260318   2.988   2.452   0.369  1.2696  0.3588  1.6795
12943TIP3   OH260319   5.929   0.360   2.808 -0.5185 -0.2594  0.1343
12943TIP3    H160320   5.851   0.356   2.752 -0.9779  1.0809  0.6565
12943TIP3    H260321   5.906   0.422   2.877  0.0200 -1.8821  1.8735
12944TIP3   OH260322   1.774   5.360  13.304 -0.1984 -0.2228  0.3543
12944TIP3    H160323   1.692   5.368  13.353 -0.1305  0.4305  0.3677
12944TIP3    H260324   1.748   5.362  13.212 -0.5578 -3.6120  0.2634
12945TIP3   OH260325   0.416   3.903  13.977  0.0441 -0.4350  0.0443
12945TIP3    H160326   0.392   3.923  14.068 -1.8241  0.1714 -0.5457
12945TIP3    H260327   0.396   3.810  13.967 -0.1967 -0.3942  0.1253
12946TIP3   OH260328   3.167   3.858   1.362  0.2897 -0.1967  0.2182
12946TIP3    H160329   3.175   3.849   1.267 -0.6087 -2.4945  0.3070
12946TIP3    H260330   3.073   3.863   1.378  0.3918 -0.8007  1.0564
12947TIP3   OH260331   5.814   1.400  17.167 -0.0245  0.6423 -0.0709
12947TIP3    H160332   5.879   1.434  17.106 -1.0098  2.4169 -0.1931
12947TIP3    H260333   5.860   1.391  17.250  0.4653  1.6254 -0.2218
12948TIP3   OH260334   4.060   2.136  15.634 -0.4522 -0.4001 -0.0472
12948TIP3    H160335   4.085   2.045  15.649 -0.3865 -0.4185 -0.2610
12948TIP3    H260336   4.119   2.165  15.564  0.7952  0.3538  1.2658
12949TIP3   OH260337   6.332   5.717  13.820  0.1604  0.1356  0.0069
12949TIP3    H160338   6.319   5.694  13.728 -1.1413  1.7553 -0.2582
12949TIP3    H260339   6.329   5.812  13.822 -0.9173  0.1091  1.8522
12950TIP3   OH260340   0.760   3.858  15.041  0.4873 -0.7044  0.2962
12950TIP3    H160341   0.840   3.908  15.060  0.4309 -0.1235 -0.8698
12950TIP3    H260342   0.689   3.918  15.064  0.3948 -0.9843  0.7384
12951TIP3   OH260343   5.051   0.438  11.026 -0.4700 -0.4715  0.2114
12951TIP3    H160344   4.967   0.461  10.986  0.1300  1.1420 -0.2095
12951TIP3    H260345   5.110   0.424  10.952 -0.1577 -0.7270  0.5059
12952TIP3   OH260346   3.416   4.266   4.941  0.0805  0.6423  0.0024
12952TIP3    H160347   3.388   4.321   4.868 -0.0102  0.9426  0.2635
12952TIP3    H260348   3.505   4.239   4.918  0.1328  0.9145 -0.1121
12953TIP3   OH260349   0.909   3.251  16.096  0.5433 -0.3864  0.2455
12953TIP3    H160350   0.932   3.342  16.111 -0.5004 -0.3346  1.7503
12953TIP3    H260351   0.818   3.253  16.067  0.6236 -0.9360 -0.0619
12954TIP3   OH260352   4.666   2.181  11.243 -0.4041  0.8072  0.0081
12954TIP3    H160353   4.578   2.200  11.210 -0.4493  1.1040  0.2935
12954TIP3    H260354   4.658   2.188  11.338  0.0061  1.1833  0.0153
12955TIP3   OH260355   0.285   4.609  15.849  0.1728 -0.3642 -0.3604
12955TIP3    H160356   0.277   4.680  15.912 -0.9553 -0.6594 -0.1425
12955TIP3    H260357   0.196   4.575  15.840  0.8265 -2.3861  0.2907
12956TIP3   OH260358   0.394   5.272  16.078 -0.4062  0.4665 -0.5468
12956TIP3    H160359   0.363   5.290  15.989 -0.8133 -1.8940 -0.9618
12956TIP3    H260360   0.380   5.178  16.088  2.1008  0.2083  1.0737
12957TIP3   OH260361   0.635   5.956   0.861  0.8344  0.7183  0.5400
12957TIP3    H160362   0.717   5.971   0.908 -0.1099  0.3619  2.3939
12957TIP3    H260363   0.583   6.035   0.878 -0.2373 -0.2074  1.7321
12958TIP3   OH260364   0.431   2.947   1.732  0.0493  0.3863  0.5255
12958TIP3    H160365   0.339   2.953   1.758  0.1146  0.1170  0.8361
12958TIP3    H260366   0.432   2.879   1.664 -0.2730  1.8017 -0.9526
12959TIP3   OH260367   2.434   3.078  10.554 -0.4056 -0.1617  0.0218
12959TIP3    H160368   2.384   2.997  10.555  0.3480 -0.6395  0.2146
12959TIP3    H260369   2.402   3.127  10.629  0.7101 -1.2911  1.3031
12960TIP3   OH260370   5.748   0.127  14.449 -0.2195 -0.3293 -1.0972
12960TIP3    H160371   5.758   0.217  14.480  0.8912 -0.7921 -0.0063
12960TIP3    H260372   5.672   0.094  14.497 -0.8013  0.1050 -1.7100
12961TIP3   OH260373   2.151   1.958   1.159 -0.2498 -0.4433 -0.1530
12961TIP3    H160374   2.235   1.921   1.131  0.0676  0.1589 -0.0094
12961TIP3    H260375   2.109   1.984   1.077  0.6589  1.2718 -0.1298
12962TIP3   OH260376   0.705   1.090  11.959  0.4681 -0.1261 -0.3531
12962TIP3    H160377   0.756   1.148  12.017  0.8257 -0.1280 -0.6622
12962TIP3    H260378   0.768   1.023  11.933  0.4604  0.1845 -1.1877
12963TIP3   OH260379   5.568   5.083   5.432  0.3676 -0.2447 -0.1333
12963TIP3    H160380   5.522   5.054   5.353 -1.7047 -0.5911  1.1006
12963TIP3    H260381   5.565   5.179   5.427  0.1664 -0.2639 -0.4326
12964TIP3   OH260382   5.352   1.953   4.091 -0.6019  0.0804  0.2167
12964TIP3    H160383   5.432   1.915   4.055 -0.2916 -0.5345  1.4985
12964TIP3    H260384   5.382   2.031   4.138 -0.7991  0.0337  0.4219
12965TIP3   OH260385   4.747   5.262  16.272 -0.2128 -0.1722  0.1135
12965TIP3    H160386   4.780   5.257  16.362 -0.7562  1.0387  0.3907
12965TIP3    H260387   4.759   5.353  16.246  0.2327 -0.5761 -1.1700
12966TIP3   OH260388   0.593   0.291   4.274  0.0076 -0.3731 -0.7078
12966TIP3    H160389   0.568   0.360   4.335 -1.9239  0.2994 -2.1771
12966TIP3    H260390   0.689   0.292   4.275  0.0431 -0.1878  2.0169
12967TIP3   OH260391   4.536   2.347  15.507  0.1974  0.2016 -0.2551
12967TIP3    H160392   4.482   2.414  15.548  2.2253  2.1776 -0.6133
12967TIP3    H260393   4.519   2.356  15.413  0.6478  0.4233 -0.3231
12968TIP3   OH260394   3.057   5.983   1.494  0.1742 -0.2895 -0.5214
12968TIP3    H160395   2.990   5.951   1.554  1.3776 -1.2045  0.3876
12968TIP3    H260396   3.060   6.077   1.508  0.1709 -0.4459  0.5793
12969TIP3   OH260397   2.157   4.716  16.405 -0.3980 -0.0413 -0.1640
12969TIP3    H160398   2.234   4.699  16.460 -0.9876 -1.4642  0.2715
12969TIP3    H260399   2.083   4.708  16.465 -0.9027  1.4596 -0.5465
12970TIP3   OH260400   1.852   0.874   5.065 -0.7097 -0.3889 -0.7859
12970TIP3    H160401   1.824   0.945   5.122 -1.0779 -1.2782  0.1742
12970TIP3    H260402   1.770   0.832   5.037 -0.4673 -1.6033  0.2149
12971TIP3   OH260403   5.625   4.936   3.793  0.4758 -0.2900 -0.3701
12971TIP3    H160404   5.542   4.979   3.776  1.1180  1.4529  0.6897
12971TIP3    H260405   5.654   4.905   3.706  0.2639  1.9925 -1.3263
12972TIP3   OH260406   4.570   6.584  15.467 -0.0420  0.2820  1.2299
12972TIP3    H160407   4.524   6.529  15.531 -0.7555  0.2074  0.6723
12972TIP3    H260408   4.627   6.522  15.420  0.0718  0.2385  1.4244
12973TIP3   OH260409   1.281   3.604  13.074  0.1568 -0.0001  0.5515
12973TIP3    H160410   1.345   3.552  13.026  0.7441 -0.1184  1.4307
12973TIP3    H260411   1.199   3.593  13.026  0.3962 -1.3080  0.4275
12974TIP3   OH260412   3.988   6.001   4.641  0.1930  0.6377 -0.5348
12974TIP3    H160413   3.955   5.912   4.654 -0.4412  0.9286 -0.1016
12974TIP3    H260414   4.083   5.991   4.636  0.0568 -0.2246 -1.8239
12975TIP3   OH260415   0.137   6.420  16.864  0.7626 -0.4701  0.3869
12975TIP3    H160416   0.160   6.452  16.951  0.0545  2.0245 -0.2422
12975TIP3    H260417   0.143   6.498  16.808  1.3732 -2.0295 -1.8368
12976TIP3   OH260418   1.527   0.394  15.067 -0.1515  0.3988 -0.4048
12976TIP3    H160419   1.494   0.304  15.065 -0.0151  0.3312  0.1078
12976TIP3    H260420   1.464   0.444  15.016  0.1749 -0.1152 -1.3219
12977TIP3   OH260421   4.898   1.100  12.114 -0.0564  0.0935  0.0245
12977TIP3    H160422   4.977   1.082  12.063 -0.0310 -0.4329  0.2467
12977TIP3    H260423   4.926   1.166  12.178  0.0988  0.2064 -0.1590
12978TIP3   OH260424   4.609   2.287  12.225  0.3156  0.1056  0.3518
12978TIP3    H160425   4.542   2.353  12.243 -0.0886 -0.4488  0.9120
12978TIP3    H260426   4.593   2.261  12.134  1.1485  1.5256 -0.2370
12979TIP3   OH260427   5.631   6.417  16.686  0.3627  0.2312  0.2453
12979TIP3    H160428   5.666   6.338  16.646 -0.0964  0.5340 -0.7777
12979TIP3    H260429   5.613   6.392  16.777 -0.0301 -0.9117 -0.1360
12980TIP3   OH260430   3.757   1.393   1.530  0.1874 -0.1626 -0.3526
12980TIP3    H160431   3.847   1.397   1.563  0.2095  2.7760 -0.4953
12980TIP3    H260432   3.758   1.447   1.451 -1.5348 -0.7977 -0.8501
12981TIP3   OH260433   3.374   0.936   3.460  0.2549 -0.0476 -0.2976
12981TIP3    H160434   3.409   0.957   3.374 -0.4571  3.4449  0.0869
12981TIP3    H260435   3.441   0.881   3.501  1.1030 -0.8709 -2.6520
12982TIP3   OH260436   0.986   5.604   6.312  0.1521  0.8911  0.3812
12982TIP3    H160437   0.924   5.668   6.276  0.4051  0.3973 -0.9970
12982TIP3    H260438   0.932   5.529   6.337  0.1189  0.7256 -0.1871
12983TIP3   OH260439   0.465   6.477  14.759  0.0954  0.1602 -0.1895
12983TIP3    H160440   0.472   6.381  14.767 -0.1515  0.1856  0.4241
12983TIP3    H260441   0.374   6.496  14.782 -0.3832  0.3810 -2.1284
12984TIP3   OH260442   4.574   2.746  14.969 -0.1611 -0.8613 -0.0234
12984TIP3    H160443   4.535   2.662  14.943  0.8078 -1.0581 -0.9044
12984TIP3    H260444   4.524   2.773  15.046 -1.1780 -1.7297 -0.3624
12985TIP3   OH260445   5.509   5.228   3.693  0.0555  0.2058  0.6465
12985TIP3    H160446   5.496   5.316   3.658  2.7437  0.8048  0.8888
12985TIP3    H260447   5.468   5.230   3.780 -1.4685  0.6047 -0.0526
12986TIP3   OH260448   4.471   1.770   5.509  0.1662 -0.0683 -0.1047
12986TIP3    H160449   4.452   1.763   5.602 -0.4351 -1.1310 -0.2899
12986TIP3    H260450   4.547   1.829   5.504  0.3048 -0.1309  1.0594
12987TIP3   OH260451   6.514   6.153  16.760 -0.0339  0.1267 -0.1144
12987TIP3    H160452   6.516   6.084  16.826  0.2444 -0.4323 -0.7001
12987TIP3    H260453   6.544   6.111  16.680 -0.2382  0.8308 -0.5739
12988TIP3   OH260454   4.539   6.108  14.920 -0.2909 -0.6389 -0.1732
12988TIP3    H160455   4.618   6.057  14.936 -0.5056 -1.1612 -0.7321
12988TIP3    H260456   4.557   6.194  14.958 -0.0511 -1.2267  1.1144
12989TIP3   OH260457   4.903   6.289  13.920  0.9054  0.1190 -0.1397
12989TIP3    H160458   4.962   6.215  13.938 -0.2789 -0.8733 -0.2132
12989TIP3    H260459   4.868   6.313  14.006  0.7977  0.1891 -0.2040
12990TIP3   OH260460   3.493   2.063  14.422  0.0557  0.4410  0.8430
12990TIP3    H160461   3.416   2.120  14.425 -1.4545 -1.5164  1.9074
12990TIP3    H260462   3.480   2.002  14.495  1.5268 -1.3026 -0.2698
12991TIP3   OH260463   6.076   2.911   4.407 -0.0149 -0.4943 -0.2667
12991TIP3    H160464   6.092   2.876   4.319  1.5662  2.3660 -1.2436
12991TIP3    H260465   6.090   2.836   4.465  2.4664 -1.7095 -2.2232
12992TIP3   OH260466   1.339   4.298  11.769  0.5444 -0.6442  0.0160
12992TIP3    H160467   1.330   4.202  11.767  0.6899 -0.6677 -1.9735
12992TIP3    H260468   1.353   4.322  11.677  1.5261  1.2059  0.6010
12993TIP3   OH260469   4.499   1.543   4.318  0.7702 -0.1319  0.1276
12993TIP3    H160470   4.532   1.589   4.241  1.0027 -0.0403  0.2798
12993TIP3    H260471   4.496   1.451   4.292  2.7703 -0.3850  0.6446
12994TIP3   OH260472   5.619   2.435  12.227 -0.2536 -0.6328 -0.1566
12994TIP3    H160473   5.646   2.444  12.136 -0.3651 -1.0612 -0.2373
12994TIP3    H260474   5.557   2.362  12.226  0.8112 -1.5709  0.4735
12995TIP3   OH260475   3.200   2.583  13.206  0.2205  0.1485  0.0753
12995TIP3    H160476   3.168   2.575  13.296 -0.9582  0.3415 -0.3122
12995TIP3    H260477   3.248   2.502  13.190  0.3729  0.0805  0.8524
12996TIP3   OH260478   3.300   4.753   1.314  0.1208 -0.2040 -0.0395
12996TIP3    H160479   3.263   4.754   1.225  0.2297 -0.7423 -0.0970
12996TIP3    H260480   3.268   4.833   1.355  0.9202  0.6010 -0.9160
12997TIP3   OH260481   3.181   3.330   5.262 -0.7271  0.4410  0.7409
12997TIP3    H160482   3.142   3.245   5.282 -2.2000  0.8804 -0.0778
12997TIP3    H260483   3.176   3.379   5.344  0.3060 -0.2951  1.2705
12998TIP3   OH260484   4.085   2.917  13.198  0.0312  0.7098 -0.3584
12998TIP3    H160485   4.024   2.991  13.191  0.6712  1.2502 -0.3653
12998TIP3    H260486   4.162   2.946  13.149  0.4639  0.2146  0.0280
12999TIP3   OH260487   3.973   5.144   0.517 -0.0934  0.3865 -0.1741
12999TIP3    H160488   4.046   5.176   0.570 -0.0361 -0.3609  0.2093
12999TIP3    H260489   3.973   5.049   0.531 -0.1584  0.1807 -1.3936
13000TIP3   OH260490   4.507   1.020   1.453  0.4482 -0.1149 -0.1726
13000TIP3    H160491   4.517   1.106   1.493 -0.9756 -0.2010  0.4396
13000TIP3    H260492   4.588   0.973   1.475  0.9816  0.8609 -0.0078
13001TIP3   OH260493   5.950   2.208  15.217 -0.3614  0.2430  0.0333
13001TIP3    H160494   5.984   2.164  15.295 -0.5429  0.4005  0.2022
13001TIP3    H260495   5.854   2.202  15.226 -0.4111  1.5432  0.5562
13002TIP3   OH260496   5.935   5.512   3.852 -0.2641 -0.3652  0.2950
13002TIP3    H160497   5.921   5.482   3.942 -1.7594 -0.2607  0.1268
13002TIP3    H260498   5.847   5.513   3.814  0.3364 -0.2876 -1.1321
13003TIP3   OH260499   6.098   3.325  14.424  0.0188 -0.4836  0.3614
13003TIP3    H160500   6.054   3.406  14.397 -1.0088 -0.4926  1.9036
13003TIP3    H260501   6.130   3.342  14.512  0.8021 -1.3881  0.2749
13004TIP3   OH260502   6.229   3.750  11.519  0.5827 -0.4084  0.2742
13004TIP3    H160503   6.275   3.822  11.476  0.4111 -0.1188  0.5722
13004TIP3    H260504   6.159   3.792  11.569 -0.1907 -0.8588 -0.3870
13005TIP3   OH260505   5.579   4.156  14.548  0.0941 -0.1605 -0.1340
13005TIP3    H160506   5.560   4.183  14.638  2.5324 -0.5305  0.5718
13005TIP3    H260507   5.578   4.061  14.550 -2.4556 -0.2275 -1.1879
13006TIP3   OH260508   3.799   6.474   1.820 -0.2877  0.5438  0.2271
13006TIP3    H160509   3.881   6.437   1.854  1.1059  0.2276 -3.1268
13006TIP3    H260510   3.761   6.404   1.767 -1.3112  1.6221 -0.5168
13007TIP3   OH260511   2.311   1.127  11.311  0.1273 -0.2369  0.6180
13007TIP3    H160512   2.255   1.111  11.236  0.4234 -0.7704  0.5030
13007TIP3    H260513   2.375   1.056  11.308 -0.6371 -1.0332  2.1139
13008TIP3   OH260514   6.234   6.669   2.438  0.1062 -0.2239  0.3399
13008TIP3    H160515   6.309   6.728   2.435  0.3518 -0.5741 -1.6890
13008TIP3    H260516   6.172   6.705   2.375 -1.1962 -0.2980  1.5295
13009TIP3   OH260517   2.193   3.369   4.589 -0.0076 -0.0778 -0.1015
13009TIP3    H160518   2.112   3.374   4.539  0.5478 -0.6494 -1.1091
13009TIP3    H260519   2.188   3.286   4.636 -0.1327  0.0221  0.0606
13010TIP3   OH260520   1.367   2.797  11.526 -0.2905 -0.3156 -0.2608
13010TIP3    H160521   1.347   2.716  11.479  2.0180 -0.1484 -1.6349
13010TIP3    H260522   1.352   2.867  11.463 -1.1250  0.2954  0.5665
13011TIP3   OH260523   6.795   0.836   2.483 -0.0562 -0.4770  0.2914
13011TIP3    H160524   6.858   0.767   2.506  0.6160  0.0651  0.1294
13011TIP3    H260525   6.824   0.913   2.533  0.4577  0.2579 -1.0682
13012TIP3   OH260526   5.723   5.404  11.610 -0.1687  0.2213 -0.3126
13012TIP3    H160527   5.811   5.390  11.644  0.2967 -0.0933 -1.5796
13012TIP3    H260528   5.712   5.338  11.542  0.1548  2.6263 -2.9100
13013TIP3   OH260529   3.074   0.206  14.141 -0.2474  0.0413 -0.2357
13013TIP3    H160530   2.985   0.175  14.157 -0.6550  0.1254 -2.1022
13013TIP3    H260531   3.065   0.270  14.070  1.1190  1.2355  0.6024
13014TIP3   OH260532   3.809   3.030   4.147  0.0386 -1.1404  0.2371
13014TIP3    H160533   3.838   3.116   4.176  1.2487 -0.5579 -2.3840
13014TIP3    H260534   3.713   3.038   4.141  0.0161 -0.4561  1.3672
13015TIP3   OH260535   1.009   1.890   0.657  0.3904 -0.3979 -0.0097
13015TIP3    H160536   1.035   1.849   0.574 -2.3572 -0.1521 -1.1104
13015TIP3    H260537   1.030   1.982   0.645  0.7285 -0.4897 -0.1306
13016TIP3   OH260538   4.014   3.878  12.095 -0.0315  0.4942  0.4619
13016TIP3    H160539   3.956   3.882  12.019  0.5182  0.0557  0.0075
13016TIP3    H260540   4.099   3.906  12.062  0.4017 -0.4801  0.7147
13017TIP3   OH260541   3.026   4.915  17.155  0.3629  0.3643 -0.3239
13017TIP3    H160542   3.005   4.975  17.083 -1.8993  1.1573  0.9002
13017TIP3    H260543   3.086   4.964  17.210  1.3366  0.1191 -1.1405
13018TIP3   OH260544   3.701   1.476   2.624  0.0217  0.0656  0.2475
13018TIP3    H160545   3.650   1.425   2.561 -3.8071  1.7975  1.6452
13018TIP3    H260546   3.750   1.538   2.571 -1.9677  0.5386 -1.1555
13019TIP3   OH260547   3.102   4.064   2.737  0.2122  0.5841 -0.0290
13019TIP3    H160548   3.013   4.093   2.756  0.8960  3.1240 -0.3571
13019TIP3    H260549   3.149   4.075   2.820  0.7257  1.3769 -0.4206
13020TIP3   OH260550   0.978   0.349   6.132  0.1081  0.0540 -0.6396
13020TIP3    H160551   1.055   0.387   6.174  0.1841  0.2914 -0.9892
13020TIP3    H260552   1.001   0.345   6.040 -0.1127 -0.3345 -0.6770
13021TIP3   OH260553   3.320   0.008  16.495  0.3939 -0.1258 -0.1932
13021TIP3    H160554   3.290   0.016  16.405 -0.3004 -0.2745  0.0222
13021TIP3    H260555   3.373  -0.072  16.496 -0.0790 -0.4462 -0.3415
13022TIP3   OH260556   2.983   5.490   0.063 -0.1906 -0.4625  0.6532
13022TIP3    H160557   2.905   5.453   0.022  0.5170 -1.6879  0.3693
13022TIP3    H260558   3.003   5.430   0.135  1.7849 -1.4772 -0.6578
13023TIP3   OH260559   1.434   1.060  10.562  0.0657 -0.0504 -0.1622
13023TIP3    H160560   1.361   1.061  10.501  0.5644 -0.8256 -0.8009
13023TIP3    H260561   1.424   1.139  10.614  0.0797  1.0690 -1.7855
13024TIP3   OH260562   4.065   1.263  14.823  0.0068  0.6998  0.1169
13024TIP3    H160563   4.127   1.191  14.822  2.3036  2.5503 -0.3839
13024TIP3    H260564   4.063   1.292  14.915 -0.2540  0.5394  0.1626
13025TIP3   OH260565   2.695   2.018  12.364 -0.5007  0.9584 -0.2475
13025TIP3    H160566   2.724   1.940  12.317  1.3784  1.7769 -0.5509
13025TIP3    H260567   2.633   1.985  12.429  0.0316 -0.7508 -0.5509
13026TIP3   OH260568   1.194   4.659  14.931  0.5203  0.8176  0.4685
13026TIP3    H160569   1.255   4.644  14.859  0.9834 -1.5732  1.3047
13026TIP3    H260570   1.107   4.648  14.891  0.7141  1.2599 -0.0838
13027TIP3   OH260571   1.728   2.270  13.220  0.8653  0.0591 -0.3383
13027TIP3    H160572   1.702   2.234  13.135  3.7348  1.0447 -1.7803
13027TIP3    H260573   1.796   2.210  13.252 -0.8815 -0.8928  1.8824
13028TIP3   OH260574   3.557   2.980  11.157 -0.3630  0.5134  0.2806
13028TIP3    H160575   3.555   3.044  11.086  1.7398  1.5341  1.0750
13028TIP3    H260576   3.598   2.902  11.119 -2.0145 -0.0821 -0.4031
13029TIP3   OH260577   1.540   6.334   1.702 -0.3037 -0.5012  0.3977
13029TIP3    H160578   1.540   6.259   1.761  0.1087  0.9407  2.3337
13029TIP3    H260579   1.632   6.360   1.696 -0.3615 -0.5421 -0.7807
13030TIP3   OH260580   0.859   1.097   5.962 -0.2083  0.0131 -0.1360
13030TIP3    H160581   0.920   1.135   6.025  1.3431 -0.0027 -1.5703
13030TIP3    H260582   0.851   1.005   5.990  0.9906 -0.1655 -0.2981
13031TIP3   OH260583   4.971   5.969   2.459  0.2338 -0.2115  0.4615
13031TIP3    H160584   4.939   5.959   2.549 -0.7073  0.7756  0.2452
13031TIP3    H260585   5.066   5.973   2.468  0.1573 -0.3195  1.3932
13032TIP3   OH260586   5.125   0.089  14.314  0.1321  0.3522 -0.2034
13032TIP3    H160587   5.081   0.013  14.351  1.7308  0.4165  2.0399
13032TIP3    H260588   5.061   0.159  14.318 -1.0876 -0.6349 -1.5276
13033TIP3   OH260589   0.408   4.477  14.712  0.4156 -0.3449 -0.8134
13033TIP3    H160590   0.480   4.535  14.686  0.8133 -0.6771 -0.4628
13033TIP3    H260591   0.337   4.536  14.736  1.5648  0.1367  1.8234
13034TIP3   OH260592   0.177   4.563  16.925  0.2144  0.5367  0.0395
13034TIP3    H160593   0.153   4.511  16.849  0.3853  1.1876 -0.4670
13034TIP3    H260594   0.123   4.642  16.919  1.1609  1.1923 -0.1329
13035TIP3   OH260595   0.686   0.626  13.480 -0.4749 -0.4903 -0.0522
13035TIP3    H160596   0.702   0.701  13.536  0.3116 -0.3262 -0.4913
13035TIP3    H260597   0.593   0.632  13.458 -0.3204  0.6148 -0.4541
13036TIP3   OH260598   6.402   5.089  16.332  0.1489 -0.2348  0.1357
13036TIP3    H160599   6.425   5.031  16.405  0.3403 -3.4742 -2.2305
13036TIP3    H260600   6.481   5.141  16.317  1.3015 -1.8380  0.3013
13037TIP3   OH260601   0.046   1.668  11.509 -0.5874 -0.2369 -0.5098
13037TIP3    H160602   0.136   1.643  11.490 -0.2259  1.5407 -1.3744
13037TIP3    H260603   0.046   1.764  11.505 -2.0313 -0.0528  1.7804
13038TIP3   OH260604   4.537   5.428   4.210 -0.2427 -0.0159  0.5651
13038TIP3    H160605   4.473   5.485   4.167  2.1230  2.2118 -0.2341
13038TIP3    H260606   4.572   5.374   4.140  1.9519  2.0114 -0.0379
13039TIP3   OH260607   0.148   5.734   2.856 -0.1333 -0.0191  0.0788
13039TIP3    H160608   0.219   5.786   2.819  0.4320 -1.2663 -0.6487
13039TIP3    H260609   0.091   5.714   2.783 -0.0569 -0.8526  0.2335
13040TIP3   OH260610   0.301   1.039   2.576  0.3655 -0.1453  0.1516
13040TIP3    H160611   0.352   1.042   2.657 -0.7094  1.3227  0.8330
13040TIP3    H260612   0.210   1.047   2.605 -0.3641 -3.1681 -0.9828
13041TIP3   OH260613   6.601   6.504   5.172  0.0013 -0.1588 -0.3292
13041TIP3    H160614   6.516   6.473   5.140 -0.2238  1.3132 -1.2123
13041TIP3    H260615   6.618   6.449   5.249 -2.6299  0.7323  1.0154
13042TIP3   OH260616   2.837   0.462  14.426  0.0725 -0.3807  0.3165
13042TIP3    H160617   2.922   0.475  14.385  0.0518 -0.7823  0.1412
13042TIP3    H260618   2.848   0.496  14.515 -0.2236  1.5845 -0.3525
13043TIP3   OH260619   1.130   2.198   4.485 -0.0448 -0.3159 -0.2757
13043TIP3    H160620   1.096   2.222   4.571 -0.5817 -0.3204 -0.4803
13043TIP3    H260621   1.094   2.111   4.469 -1.4796  0.4309 -1.2966
13044TIP3   OH260622   2.724   0.006  14.884 -0.5070 -0.1904 -0.0046
13044TIP3    H160623   2.662  -0.066  14.876 -0.3282 -0.5513  1.6278
13044TIP3    H260624   2.675   0.082  14.851 -1.2762 -0.7428 -0.1750
13045TIP3   OH260625   1.587   1.293   2.710 -0.4728 -0.5022  0.1803
13045TIP3    H160626   1.537   1.374   2.724 -0.9858 -1.0046  1.4061
13045TIP3    H260627   1.521   1.229   2.682 -0.1380 -0.6275 -0.3534
13046TIP3   OH260628   4.375   5.394  15.302 -0.8015  0.0164  0.1194
13046TIP3    H160629   4.344   5.472  15.349 -0.9678 -1.0598  1.9242
13046TIP3    H260630   4.334   5.399  15.216 -1.6988  1.3514  0.5967
13047TIP3   OH260631   1.943   0.653  15.434 -0.4409 -0.8186 -0.2529
13047TIP3    H160632   1.929   0.629  15.342 -0.9613 -1.5125  0.0067
13047TIP3    H260633   1.912   0.743  15.440 -0.8948 -0.9497 -0.6367
13048TIP3   OH260634   0.881   4.188   2.170  0.0977 -0.5630 -0.6730
13048TIP3    H160635   0.869   4.259   2.106  0.0476 -0.7010 -0.8161
13048TIP3    H260636   0.804   4.193   2.226  0.6441  0.2364  0.0344
13049TIP3   OH260637   2.068   6.763  11.388  0.4649 -0.2900  0.2119
13049TIP3    H160638   1.980   6.793  11.412  0.3373 -0.0881 -0.4892
13049TIP3    H260639   2.112   6.841  11.355  0.9332 -0.3795  0.6096
13050TIP3   OH260640   0.519   6.123   3.244  0.4465  0.1180  0.3901
13050TIP3    H160641   0.590   6.069   3.278 -0.6274 -0.4280  1.8834
13050TIP3    H260642   0.439   6.078   3.272 -0.4886  1.3230 -0.2412
13051TIP3   OH260643   4.788   0.782   4.796  0.1226 -0.0996  0.5194
13051TIP3    H160644   4.726   0.714   4.825 -2.2772  1.8837  0.3626
13051TIP3    H260645   4.733   0.846   4.752  2.6573  0.6827 -1.7448
13052TIP3   OH260646   1.055   4.605  14.547 -0.3928  0.1556 -0.1024
13052TIP3    H160647   1.052   4.526  14.602  1.5435  0.1494  0.0835
13052TIP3    H260648   1.041   4.677  14.609  2.0995  0.1711  0.5697
13053TIP3   OH260649   2.611   0.810   6.356 -0.3055  0.2308  0.4629
13053TIP3    H160650   2.532   0.756   6.365 -0.0993 -0.1065  0.2733
13053TIP3    H260651   2.579   0.898   6.340 -0.6866  0.4543  2.2474
13054TIP3   OH260652   1.090   5.099  11.994  0.2731  0.5843 -0.2213
13054TIP3    H160653   1.129   5.063  12.073 -0.9399 -3.1103 -1.1397
13054TIP3    H260654   1.164   5.107  11.933  0.7682  0.8325  0.4001
13055TIP3   OH260655   0.703   5.761  13.129  0.0305  0.3083  0.4443
13055TIP3    H160656   0.692   5.732  13.219 -0.5587  0.0886  0.3067
13055TIP3    H260657   0.790   5.728  13.104 -0.3416 -0.7600  0.5168
13056TIP3   OH260658   1.571   0.559  15.341  0.1151 -0.6384 -0.2738
13056TIP3    H160659   1.656   0.551  15.297 -0.6553 -1.2440 -1.7369
13056TIP3    H260660   1.572   0.490  15.408  0.6388 -0.8978 -0.5432
13057TIP3   OH260661   1.006   4.040  14.306 -0.4969 -0.1097 -0.4775
13057TIP3    H160662   1.045   4.127  14.299 -1.1542  0.1103 -1.6317
13057TIP3    H260663   1.006   4.006  14.216  0.1285 -1.4786  0.0124
13058TIP3   OH260664   5.204   2.660   1.280 -0.4583  0.1630 -0.0552
13058TIP3    H160665   5.279   2.606   1.255 -0.0476 -0.1333  1.6449
13058TIP3    H260666   5.226   2.748   1.249  0.6894  0.1121  0.5633
13059TIP3   OH260667   6.459   0.240  15.727  1.0906  0.4309  0.0495
13059TIP3    H160668   6.434   0.222  15.636  0.0120 -0.2818  0.4712
13059TIP3    H260669   6.511   0.165  15.753 -1.2586 -1.0074  0.9863
13060TIP3   OH260670   0.004   5.637  13.355 -0.5492  0.5817 -0.1141
13060TIP3    H160671  -0.024   5.641  13.446 -0.8612  0.7730 -0.2161
13060TIP3    H260672   0.079   5.697  13.350  0.2714 -0.3829  0.2920
13061TIP3   OH260673   4.990   1.411  13.379 -0.0464 -0.5550 -0.6154
13061TIP3    H160674   5.036   1.494  13.390 -0.1551 -0.2474 -2.2106
13061TIP3    H260675   5.053   1.345  13.407  0.3987  0.0125 -0.2494
13062TIP3   OH260676   1.217   5.436   3.862 -0.1996  0.1551 -0.0482
13062TIP3    H160677   1.301   5.434   3.816 -0.3878 -1.5023 -0.3910
13062TIP3    H260678   1.226   5.371   3.932 -1.4161 -0.5619 -0.5270
13063TIP3   OH260679   1.919   1.004   0.303 -0.5722 -0.6167  0.4731
13063TIP3    H160680   1.982   0.968   0.241 -1.1949 -0.6534 -0.1460
13063TIP3    H260681   1.858   1.055   0.249 -0.9981 -0.4725  1.0794
13064TIP3   OH260682   2.034   1.871  15.661  0.1685  0.5328 -0.0685
13064TIP3    H160683   2.078   1.791  15.629 -0.2017 -0.1819  1.1497
13064TIP3    H260684   2.106   1.932  15.679  0.5432  0.0521  0.0964
13065TIP3   OH260685   0.333   3.005  15.326 -0.3414 -0.0233 -0.1987
13065TIP3    H160686   0.240   2.987  15.336 -0.0509 -1.5724 -0.0819
13065TIP3    H260687   0.365   2.937  15.266  0.9199 -0.2221  0.6505
13066TIP3   OH260688   6.415   1.760  16.038 -0.4099 -0.4478 -0.2601
13066TIP3    H160689   6.469   1.787  15.963 -1.3349  0.3020 -0.6813
13066TIP3    H260690   6.433   1.667  16.049  2.5478  0.1680  0.9444
13067TIP3   OH260691   0.035   3.918  15.324 -0.3504  0.0087 -0.1525
13067TIP3    H160692   0.068   3.845  15.377  0.8052  0.3890 -0.3272
13067TIP3    H260693  -0.058   3.900  15.314 -0.5511 -0.2233  1.7743
13068TIP3   OH260694   5.748   3.034   0.295  0.6500 -0.1225  0.0109
13068TIP3    H160695   5.842   3.028   0.278  0.4170 -0.8487 -1.1138
13068TIP3    H260696   5.707   3.006   0.213 -0.5550  1.7013 -0.0838
13069TIP3   OH260697   4.712   2.329  14.334  0.7144 -0.1103 -0.3989
13069TIP3    H160698   4.671   2.388  14.398  0.9637 -1.0177  0.6231
13069TIP3    H260699   4.668   2.245  14.346  0.5295 -0.2188 -1.6777
13070TIP3   OH260700   3.378   3.621  15.105 -0.1481 -0.0014  0.1751
13070TIP3    H160701   3.338   3.701  15.141 -0.0728 -0.1154  0.5061
13070TIP3    H260702   3.390   3.563  15.180 -2.0197 -1.1177 -0.3157
13071TIP3   OH260703   4.899   1.169  13.059  0.0027 -0.5547 -0.1427
13071TIP3    H160704   4.987   1.204  13.069 -0.2938  0.2365 -0.2013
13071TIP3    H260705   4.853   1.195  13.139 -0.6870  0.6494 -0.8879
13072TIP3   OH260706   5.949   3.049   1.283  0.0724  0.3727  0.3352
13072TIP3    H160707   5.898   2.991   1.226 -0.4662 -0.3175  1.4730
13072TIP3    H260708   6.020   3.081   1.228 -1.6338  1.4634 -1.3607
13073TIP3   OH260709   1.089   3.682   1.332  0.2664 -0.0087  0.2062
13073TIP3    H160710   1.173   3.673   1.287  0.9559  0.8273  1.2624
13073TIP3    H260711   1.090   3.614   1.399 -0.1790 -0.4001 -0.1785
13074TIP3   OH260712   4.029   1.349  16.817 -0.3895 -0.3183 -0.0537
13074TIP3    H160713   3.981   1.386  16.743  0.5506  0.7417 -0.1575
13074TIP3    H260714   3.960   1.317  16.877 -1.2127  0.8190 -0.3646
13075TIP3   OH260715   1.340   6.225  13.257  0.1445 -0.3801 -0.1140
13075TIP3    H160716   1.367   6.298  13.200  0.3485 -0.6260 -0.3350
13075TIP3    H260717   1.267   6.260  13.308  1.8053  0.7835  1.5689
13076TIP3   OH260718   1.297   3.856   3.906  0.2698 -0.4411 -0.1027
13076TIP3    H160719   1.352   3.811   3.970  2.6872  0.1497 -1.6467
13076TIP3    H260720   1.326   3.822   3.821 -1.4300  0.2815 -1.0235
13077TIP3   OH260721   0.615   2.277  16.707  0.3045 -0.4712 -0.2443
13077TIP3    H160722   0.621   2.372  16.713  0.1476 -0.3729 -1.3830
13077TIP3    H260723   0.522   2.258  16.721  0.0586 -0.3057 -1.5240
13078TIP3   OH260724   0.136   1.193   5.988  0.6476  0.7105 -0.1600
13078TIP3    H160725   0.083   1.198   5.908  1.2536  2.0497 -0.5173
13078TIP3    H260726   0.080   1.151   6.052 -0.0024 -0.0109 -1.1774
13079TIP3   OH260727   4.410   1.414  13.095  0.0962 -0.0832 -0.3502
13079TIP3    H160728   4.393   1.479  13.027  0.5571  1.3923  0.8858
13079TIP3    H260729   4.323   1.395  13.132 -0.1385 -0.8002 -1.2392
13080TIP3   OH260730   3.890   1.121   3.920  0.2390 -0.4542 -0.1308
13080TIP3    H160731   3.858   1.136   4.008 -1.0003 -0.2484 -0.5982
13080TIP3    H260732   3.983   1.101   3.931  0.0502 -0.6471  1.2255
13081TIP3   OH260733   0.154   5.348   3.324 -0.5217 -0.0970  0.8566
13081TIP3    H160734   0.061   5.330   3.315 -0.5118 -1.0921  2.4029
13081TIP3    H260735   0.191   5.267   3.359  0.9864  0.1711 -0.0165
13082TIP3   OH260736   4.568   0.489  16.736  0.8883 -0.3676 -0.1822
13082TIP3    H160737   4.599   0.493  16.645  0.8618 -2.7666 -0.3835
13082TIP3    H260738   4.478   0.455  16.728  1.5636 -2.5328  0.7687
13083TIP3   OH260739   1.221   1.320  16.527  0.2725  0.0442 -0.1371
13083TIP3    H160740   1.273   1.342  16.604 -0.7486  1.1031  0.2870
13083TIP3    H260741   1.163   1.250  16.556  0.4204 -0.0894 -0.1648
13084TIP3   OH260742   1.247   4.836  14.421 -0.1616 -0.1018  0.2090
13084TIP3    H160743   1.311   4.868  14.484 -0.0047 -1.7556  0.9597
13084TIP3    H260744   1.298   4.785  14.358 -0.3956  1.0171 -0.9454
13085TIP3   OH260745   5.911   2.636  11.801 -0.3781  0.3692  0.0546
13085TIP3    H160746   5.885   2.716  11.757 -0.8005 -0.6010 -1.5209
13085TIP3    H260747   6.004   2.648  11.819 -0.4708  1.2625 -0.0334
13086TIP3   OH260748   1.046   1.183   6.132 -0.1062  0.7300 -0.1099
13086TIP3    H160749   1.047   1.278   6.138  1.1036  0.6959  0.4163
13086TIP3    H260750   1.127   1.155   6.173 -0.6889 -0.5673  0.2095
13087TIP3   OH260751   5.182   1.002  17.157  0.3023 -0.2345 -0.5698
13087TIP3    H160752   5.246   1.052  17.106 -1.0890  1.0430 -1.1403
13087TIP3    H260753   5.114   0.978  17.094 -0.5547 -0.2057  0.3214
13088TIP3   OH260754   6.226   5.672  11.268  0.3890  0.6873  1.0313
13088TIP3    H160755   6.313   5.632  11.264 -0.2641 -0.7366  0.0440
13088TIP3    H260756   6.189   5.639  11.349  1.2460  2.4514  2.2117
13089TIP3   OH260757   3.062   0.014   2.866 -0.2632  0.5698 -0.3072
13089TIP3    H160758   2.970   0.003   2.890  0.1932  1.0782  1.9387
13089TIP3    H260759   3.111  -0.037   2.931  1.0896  1.5102 -0.5285
13090TIP3   OH260760   4.510   4.441  16.834 -0.7358  0.0908 -0.6722
13090TIP3    H160761   4.555   4.403  16.758  1.3371  1.5372 -0.2604
13090TIP3    H260762   4.439   4.493  16.797 -0.1877  0.2199 -1.5705
13091TIP3   OH260763   0.080   5.113   4.638  0.1480  0.3027 -0.1275
13091TIP3    H160764   0.146   5.162   4.589 -0.3669 -0.7276 -1.9658
13091TIP3    H260765   0.019   5.180   4.670  0.9349  1.0746 -0.2076
13092TIP3   OH260766   1.169   2.173  15.538 -0.2169  0.3803  0.2027
13092TIP3    H160767   1.204   2.203  15.454 -0.1205  2.4859  0.9461
13092TIP3    H260768   1.244   2.174  15.597  0.2431 -3.2234 -0.0793
13093TIP3   OH260769   6.734   0.281   0.907 -0.4495  0.4814 -0.8631
13093TIP3    H160770   6.676   0.227   0.854  0.7705 -1.1960 -0.5844
13093TIP3    H260771   6.821   0.266   0.870  0.1544  0.8694  0.3282
13094TIP3   OH260772   1.831   1.092   1.047 -0.3434 -0.6460  0.5284
13094TIP3    H160773   1.860   1.168   1.096 -0.7427 -0.0304 -0.1630
13094TIP3    H260774   1.829   1.121   0.956 -3.1505 -0.6000  0.5267
13095TIP3   OH260775   1.900   1.458  13.341 -0.0825  0.3967 -0.1252
13095TIP3    H160776   1.821   1.441  13.393  0.5425 -0.7169  0.4790
13095TIP3    H260777   1.969   1.410  13.386  0.4943 -0.5555 -1.9290
13096TIP3   OH260778   0.731   5.859   4.429  0.5701  0.5154 -0.0963
13096TIP3    H160779   0.690   5.913   4.497  1.3036  0.4579  0.4050
13096TIP3    H260780   0.712   5.769   4.456  0.3872  0.4981 -0.2763
13097TIP3   OH260781   0.827   1.394  16.998  0.2683 -0.5931 -0.4313
13097TIP3    H160782   0.870   1.437  16.924  0.7308  0.2041  0.2859
13097TIP3    H260783   0.786   1.466  17.047 -1.4092 -1.2663 -0.7753
13098TIP3   OH260784   0.420   1.313  12.897 -0.1356  0.3726 -0.4271
13098TIP3    H160785   0.388   1.315  12.987  0.4188 -0.0219 -0.2147
13098TIP3    H260786   0.514   1.296  12.905  0.3165  2.4098 -1.0037
13099TIP3   OH260787   4.204   0.076  16.493 -0.2523 -0.7496  0.0221
13099TIP3    H160788   4.145   0.004  16.472 -0.0438 -0.8925 -0.0867
13099TIP3    H260789   4.280   0.033  16.534  1.0009 -0.9042 -2.2655
13100TIP3   OH260790   0.887   5.673  15.921 -1.1281 -0.3668 -0.1930
13100TIP3    H160791   0.831   5.732  15.871 -1.0703 -1.4423 -1.6049
13100TIP3    H260792   0.974   5.713  15.916 -0.9687 -0.8319 -1.6563
13101TIP3   OH260793   1.752   6.818  15.910 -0.1223 -0.7708 -0.6459
13101TIP3    H160794   1.777   6.902  15.948 -0.4759 -0.8896 -0.1563
13101TIP3    H260795   1.831   6.764  15.918 -0.1425 -0.7422 -0.2324
13102TIP3   OH260796   2.921   5.257   0.344  0.4014  0.0983 -0.0349
13102TIP3    H160797   2.957   5.333   0.299 -1.4687  1.3316  0.4672
13102TIP3    H260798   2.996   5.218   0.389  2.0315 -0.2396 -2.7742
13103TIP3   OH260799   5.329   0.758   3.874  0.4866  0.1003 -0.4514
13103TIP3    H160800   5.259   0.817   3.902  0.5375 -0.4176  0.8415
13103TIP3    H260801   5.307   0.737   3.783  0.3761  1.9409 -0.8800
13104TIP3   OH260802   1.273   6.539  13.416 -0.0913  0.3015 -0.0018
13104TIP3    H160803   1.208   6.533  13.486  1.4430  0.9872  1.5469
13104TIP3    H260804   1.355   6.512  13.457  0.1932 -3.6424 -2.6883
13105TIP3   OH260805   0.253   4.053  11.911  0.7878 -0.1184  0.1428
13105TIP3    H160806   0.320   4.070  11.978  0.7177 -1.4833  0.5878
13105TIP3    H260807   0.197   3.987  11.950  0.1997 -0.2702 -0.9281
13106TIP3   OH260808   6.556   1.143   1.005  0.1812  0.1490 -0.0947
13106TIP3    H160809   6.647   1.144   1.034 -0.6085 -1.2025  2.8592
13106TIP3    H260810   6.558   1.102   0.919  2.3529  0.2540 -0.1483
13107TIP3   OH260811   2.162   4.106   2.946 -0.1229  0.1062 -0.1831
13107TIP3    H160812   2.251   4.122   2.979 -0.1038 -0.6848  0.1915
13107TIP3    H260813   2.175   4.083   2.854  0.1939 -1.0555  0.1231
13108TIP3   OH260814   1.005   0.318  13.449 -0.4964  0.3016  0.3161
13108TIP3    H160815   0.928   0.262  13.456 -0.3498 -0.3955 -2.4859
13108TIP3    H260816   1.074   0.268  13.493 -0.6509 -1.2572 -1.0877
13109TIP3   OH260817   1.810   2.388  16.839 -0.7172  0.2319 -0.5282
13109TIP3    H160818   1.886   2.331  16.852 -0.8838 -0.0004 -0.5634
13109TIP3    H260819   1.736   2.328  16.826 -1.5733  0.3379  2.8466
13110TIP3   OH260820   2.885   1.136  15.301 -0.1441 -0.0836 -0.1615
13110TIP3    H160821   2.915   1.203  15.241 -1.3506  2.8253  2.2102
13110TIP3    H260822   2.821   1.085  15.251  0.3560  0.9187 -1.8717
13111TIP3   OH260823   1.939   4.959  15.125 -0.0432  0.0152 -0.5219
13111TIP3    H160824   1.974   4.872  15.146  0.0299 -0.4068 -2.2594
13111TIP3    H260825   1.844   4.948  15.128 -0.0623 -0.4988 -1.9754
13112TIP3   OH260826   0.190   1.820   2.636 -0.1599 -0.1474  0.4119
13112TIP3    H160827   0.257   1.828   2.568  0.7005 -0.1900  1.2354
13112TIP3    H260828   0.115   1.780   2.592  0.4524 -0.3401 -0.4692
13113TIP3   OH260829   0.681   3.054   2.064 -0.3666  0.2149 -0.3261
13113TIP3    H160830   0.767   3.036   2.102 -0.4386 -1.4662 -0.8932
13113TIP3    H260831   0.634   3.101   2.133  0.2342 -0.8657  0.8568
13114TIP3   OH260832   5.736   4.676  13.982  0.0631 -0.3080 -0.3125
13114TIP3    H160833   5.657   4.730  13.977  1.5032  2.0862  0.4663
13114TIP3    H260834   5.750   4.664  14.076  2.3135  2.2556 -0.1656
13115TIP3   OH260835   5.059   1.410  11.093 -0.5978 -0.3605 -0.1507
13115TIP3    H160836   5.090   1.499  11.080 -2.0793  0.4077  1.2458
13115TIP3    H260837   5.134   1.364  11.131 -0.1654  0.6027  0.1942
13116TIP3   OH260838   0.267   2.047  11.441 -0.1587  0.1971 -0.1507
13116TIP3    H160839   0.280   2.130  11.486  1.2766  0.8234 -1.5825
13116TIP3    H260840   0.344   2.039  11.384 -1.3236 -1.0534 -1.6480
13117TIP3   OH260841   5.019   3.570   1.466 -0.9739 -0.6524 -0.0443
13117TIP3    H160842   5.055   3.568   1.378  0.3731 -0.0182  0.4565
13117TIP3    H260843   4.945   3.631   1.461  1.6101  2.8321  0.0639
13118TIP3   OH260844   2.372   4.522  12.225 -1.1287 -0.1343  0.5483
13118TIP3    H160845   2.454   4.568  12.242 -0.4234 -1.3888  0.7040
13118TIP3    H260846   2.399   4.437  12.191 -2.4036  0.0069 -0.9612
13119TIP3   OH260847   2.023   5.899   1.368  0.3070 -0.0131 -0.3241
13119TIP3    H160848   2.043   5.841   1.442  0.0038  0.5347  0.1956
13119TIP3    H260849   2.108   5.922   1.332  0.4674 -0.1693 -0.0522
13120TIP3   OH260850   3.075   2.841  16.500 -0.2235 -0.2801 -0.4677
13120TIP3    H160851   3.064   2.747  16.487  0.7981 -0.6150  0.8213
13120TIP3    H260852   3.149   2.864  16.444  2.0694 -1.0752  2.0236
13121TIP3   OH260853   5.148   2.769  13.830  0.2536  0.6913 -0.4669
13121TIP3    H160854   5.077   2.727  13.781  0.4969 -1.4111  0.8604
13121TIP3    H260855   5.227   2.720  13.805  0.5013  0.0567  1.3733
13122TIP3   OH260856   4.351   4.679  16.967 -0.2149 -0.5274 -0.5253
13122TIP3    H160857   4.358   4.623  17.044  0.9337 -0.6000 -0.6773
13122TIP3    H260858   4.259   4.670  16.940 -1.0008  0.5288  1.5949
13123TIP3   OH260859   1.345   2.689   6.499  0.0396 -0.2146 -0.1802
13123TIP3    H160860   1.381   2.635   6.569  2.5077  0.4379 -0.8271
13123TIP3    H260861   1.301   2.761   6.543  0.3914 -0.5316  0.6963
13124TIP3   OH260862   4.439   4.223  14.914  0.2232 -0.2408 -0.2217
13124TIP3    H160863   4.528   4.250  14.938 -0.0746  0.4863  0.1123
13124TIP3    H260864   4.382   4.279  14.967 -0.4396 -0.5170 -0.6236
13125TIP3   OH260865   0.119   4.421  11.296 -0.4754 -0.4517  0.3147
13125TIP3    H160866   0.080   4.334  11.304 -2.2437  0.3637  1.0148
13125TIP3    H260867   0.115   4.439  11.202 -3.1262  0.1279  0.4590
13126TIP3   OH260868   5.147   4.969  10.712  0.0674  0.0283 -0.0365
13126TIP3    H160869   5.093   4.999  10.785  2.4870  1.2697  1.3535
13126TIP3    H260870   5.129   4.875  10.706 -1.2518  0.1726  1.2025
13127TIP3   OH260871   3.360   3.902   0.619  0.2382  0.5960 -0.1367
13127TIP3    H160872   3.432   3.953   0.657  0.3610  1.7156 -1.7720
13127TIP3    H260873   3.359   3.926   0.527 -0.3476 -1.6677 -0.7933
13128TIP3   OH260874   5.597   3.123   1.967 -0.1689  0.1048 -0.2276
13128TIP3    H160875   5.524   3.181   1.941  0.3348  0.7536 -0.2335
13128TIP3    H260876   5.573   3.092   2.054 -1.8126 -1.9757 -1.3318
13129TIP3   OH260877   4.325   0.339   1.999  0.1160 -0.5529 -0.5920
13129TIP3    H160878   4.309   0.373   1.911  0.7845  1.4625  0.0075
13129TIP3    H260879   4.388   0.267   1.986  0.1622 -0.3139 -1.7525
13130TIP3   OH260880   5.372   5.804   3.284 -0.0757  0.0520  0.7545
13130TIP3    H160881   5.337   5.811   3.373  1.6892  1.4047  1.3941
13130TIP3    H260882   5.426   5.882   3.273 -0.9359  0.3478 -1.8490
13131TIP3   OH260883   4.407   5.617  14.929  0.2032 -0.1744  0.0118
13131TIP3    H160884   4.374   5.537  14.971  1.0193 -1.4229 -1.6023
13131TIP3    H260885   4.347   5.686  14.958 -0.7634 -1.4266  1.1395
13132TIP3   OH260886   5.744   4.291  15.748 -0.6166  0.0466  0.4881
13132TIP3    H160887   5.729   4.203  15.784  0.5008 -0.0253  0.8330
13132TIP3    H260888   5.824   4.282  15.697 -1.6783  0.3653 -1.3115
13133TIP3   OH260889   2.222   3.157   5.197 -0.4998  0.5969  0.0148
13133TIP3    H160890   2.171   3.115   5.128 -2.4822  1.0051  1.1534
13133TIP3    H260891   2.160   3.217   5.239  0.6984  0.5483  1.9650
13134TIP3   OH260892   1.926   4.142   3.522 -0.4254  0.0896  0.0983
13134TIP3    H160893   1.894   4.063   3.478 -0.0291  0.7329 -1.3796
13134TIP3    H260894   1.849   4.176   3.568 -0.6539 -1.0263  0.5777
13135TIP3   OH260895   2.316   5.946   1.869  0.0349  0.4484 -0.9905
13135TIP3    H160896   2.401   5.985   1.890 -0.8578  2.1280 -0.2877
13135TIP3    H260897   2.315   5.863   1.916  0.3856  1.4836  0.9455
13136TIP3   OH260898   4.420   1.262  11.054 -0.3432 -0.0229  0.2351
13136TIP3    H160899   4.440   1.176  11.017  0.3089 -0.1112  0.7839
13136TIP3    H260900   4.368   1.305  10.986  0.1286 -0.4942 -0.4430
13137TIP3   OH260901   1.557   4.703   4.640 -0.4178  0.2396  0.1583
13137TIP3    H160902   1.472   4.719   4.600 -1.2439  0.2065  1.8066
13137TIP3    H260903   1.616   4.686   4.566 -1.5439  1.5305 -1.0906
13138TIP3   OH260904   3.220   2.209  16.619  0.4981 -0.1810 -0.5799
13138TIP3    H160905   3.260   2.273  16.677  0.2306 -0.5462  0.0160
13138TIP3    H260906   3.183   2.261  16.548  0.5033  0.3059 -0.2326
13139TIP3   OH260907   3.326   6.022  16.220 -0.3098  0.0148  0.5460
13139TIP3    H160908   3.338   5.974  16.301  0.0415 -0.6976  0.0868
13139TIP3    H260909   3.246   6.072  16.232 -1.8119 -2.2078  0.3181
13140TIP3   OH260910   2.632   3.299  10.448 -0.1255  0.1486  0.0437
13140TIP3    H160911   2.592   3.337  10.526 -1.0137  2.9512 -1.6082
13140TIP3    H260912   2.558   3.277  10.391  0.5423 -0.0009 -0.7968
13141TIP3   OH260913   4.464   5.234  14.806 -0.0431  0.0561 -0.8529
13141TIP3    H160914   4.540   5.291  14.794 -0.0433  0.2392 -0.0898
13141TIP3    H260915   4.389   5.291  14.788 -0.3232  1.7742  4.1818
13142TIP3   OH260916   5.538   5.377  14.150 -0.2453  0.1777  0.0545
13142TIP3    H160917   5.548   5.282  14.145 -0.4272  0.0847  1.1949
13142TIP3    H260918   5.507   5.402  14.063  0.2984 -0.7347 -0.4237
13143TIP3   OH260919   4.761   6.494  11.754  0.1061 -0.2667  0.6740
13143TIP3    H160920   4.755   6.410  11.800 -2.0359 -0.3673  0.3070
13143TIP3    H260921   4.748   6.559  11.823 -2.5551 -0.4025  0.3779
13144TIP3   OH260922   1.583   5.229   5.892 -0.6033 -0.3237  0.1154
13144TIP3    H160923   1.666   5.188   5.871 -1.3197 -0.8943 -1.7661
13144TIP3    H260924   1.534   5.163   5.940 -0.2843 -0.2752  0.5075
13145TIP3   OH260925   6.329   3.761   2.123 -0.7204 -0.7487 -0.5157
13145TIP3    H160926   6.343   3.715   2.205 -1.6197 -0.3612 -0.1284
13145TIP3    H260927   6.286   3.696   2.067 -1.6015 -0.5234 -0.1142
13146TIP3   OH260928   3.582   2.008  11.283  0.2582  0.0805  0.4090
13146TIP3    H160929   3.624   2.066  11.219 -0.9317  0.4486 -0.0709
13146TIP3    H260930   3.565   2.065  11.358 -1.5274  0.5644 -0.3226
13147TIP3   OH260931   5.493   3.039  11.450 -0.6832  1.0782  0.6627
13147TIP3    H160932   5.438   3.112  11.423 -1.8917  0.1308  0.4663
13147TIP3    H260933   5.478   3.032  11.545 -0.4335  1.1959  0.7105
13148TIP3   OH260934   5.686   3.785   5.189  0.3828 -0.6022  0.5563
13148TIP3    H160935   5.671   3.875   5.217  0.9098  0.8714 -3.2823
13148TIP3    H260936   5.762   3.756   5.240  0.7049  1.4009  1.2968
13149TIP3   OH260937   5.333   4.284  13.622  0.2850  0.4298 -0.8166
13149TIP3    H160938   5.398   4.281  13.692 -0.8381  1.3626  0.3070
13149TIP3    H260939   5.249   4.274  13.666 -0.3194 -2.3454 -2.3924
13150TIP3   OH260940   2.468   4.691  17.170 -0.6544 -0.5778  0.5231
13150TIP3    H160941   2.519   4.654  17.243  1.2035 -0.9976 -0.9022
13150TIP3    H260942   2.439   4.615  17.120 -1.0504 -0.2620  0.2662
13151TIP3   OH260943   6.363   2.636  12.846  0.0499 -0.3724 -0.5338
13151TIP3    H160944   6.346   2.709  12.905 -1.6709 -1.5494  0.5241
13151TIP3    H260945   6.433   2.586  12.888 -2.3844 -2.2321  1.6521
13152TIP3   OH260946   4.595   1.250  12.810  0.0599 -0.0582 -0.1866
13152TIP3    H160947   4.505   1.255  12.777 -1.0319  0.4081  2.5882
13152TIP3    H260948   4.616   1.157  12.810  0.1297 -0.0724 -2.1300
13153TIP3   OH260949   6.198   6.313  13.848 -0.2541 -0.1755  0.0182
13153TIP3    H160950   6.265   6.377  13.823  0.6561 -1.3057 -0.5478
13153TIP3    H260951   6.199   6.249  13.776 -0.1837 -1.5393  1.1984
13154TIP3   OH260952   4.131   4.281   3.601  0.4457 -0.0373  0.3268
13154TIP3    H160953   4.035   4.285   3.609  0.5703  0.7092  1.7890
13154TIP3    H260954   4.152   4.189   3.611 -0.0613 -0.0873  1.0369
13155TIP3   OH260955   0.150   2.550   3.604 -0.0774  0.2579  0.1131
13155TIP3    H160956   0.187   2.580   3.521  0.3374 -0.1858  0.1329
13155TIP3    H260957   0.065   2.594   3.610 -0.1318  0.2558 -0.5719
13156TIP3   OH260958   0.743   6.035   5.651 -0.4585  0.1421 -0.0750
13156TIP3    H160959   0.766   6.096   5.581 -2.5911  1.1950  0.0617
13156TIP3    H260960   0.776   6.076   5.731  0.5605 -0.2830 -0.2580
13157TIP3   OH260961   3.447   5.116  13.829 -0.2761  0.3825 -0.0411
13157TIP3    H160962   3.469   5.144  13.740  0.3776  0.0612  0.0142
13157TIP3    H260963   3.374   5.173  13.854 -0.2360  0.7154 -0.6492
13158TIP3   OH260964   6.624   1.136  14.111 -0.2849 -0.6174  0.5788
13158TIP3    H160965   6.547   1.140  14.168 -0.5819  1.4004  0.1265
13158TIP3    H260966   6.593   1.171  14.027  0.1474 -3.4291 -0.8855
13159TIP3   OH260967   5.585   3.102   2.823 -0.6291  0.8017 -0.0777
13159TIP3    H160968   5.605   3.162   2.895 -0.7468  1.6025 -0.6952
13159TIP3    H260969   5.537   3.157   2.760  0.2054  0.3268 -1.1450
13160TIP3   OH260970   0.574   0.692   5.304  0.4494  0.6379 -0.2925
13160TIP3    H160971   0.659   0.715   5.343  0.6272  1.2262 -0.9947
13160TIP3    H260972   0.525   0.651   5.375  2.3045 -2.3550 -0.5590
13161TIP3   OH260973   3.239   6.047  16.793 -0.2792  0.2294  0.2407
13161TIP3    H160974   3.273   6.081  16.710 -1.4736  2.3029  0.5132
13161TIP3    H260975   3.279   6.103  16.859 -0.3799 -0.5342  0.9512
13162TIP3   OH260976   4.707   6.798  16.057  0.2029  0.3050 -0.0157
13162TIP3    H160977   4.644   6.730  16.076  0.2664 -0.4718 -2.2539
13162TIP3    H260978   4.791   6.752  16.048  0.5655  0.9176  0.1349
13163TIP3   OH260979   5.125   5.996   3.141 -0.1216  0.0419  0.5431
13163TIP3    H160980   5.049   6.044   3.171 -1.0617 -1.7157  1.1196
13163TIP3    H260981   5.186   5.998   3.215 -0.7565 -0.8436  1.1059
13164TIP3   OH260982   6.809   6.163   3.289  0.2750  0.0849  1.0471
13164TIP3    H160983   6.846   6.184   3.203  0.6587  1.3832  1.5091
13164TIP3    H260984   6.873   6.102   3.327  0.1902 -0.3643  0.4941
13165TIP3   OH260985   6.095   0.648  12.948  0.6079  0.2168 -0.3568
13165TIP3    H160986   6.089   0.733  12.991  0.6069 -0.6391  1.4373
13165TIP3    H260987   6.026   0.596  12.989  0.7447 -0.7141 -1.2693
13166TIP3   OH260988   4.505   2.193  14.757  0.0467  0.4191  0.5144
13166TIP3    H160989   4.462   2.126  14.809  0.5888 -0.4962 -0.1811
13166TIP3    H260990   4.453   2.198  14.677 -0.2522  1.1669  0.7444
13167TIP3   OH260991   5.005   2.152   3.583  0.1333 -0.3180 -0.3037
13167TIP3    H160992   5.088   2.126   3.543 -0.0782 -0.0382 -0.9323
13167TIP3    H260993   4.999   2.246   3.567 -0.3307 -0.3454 -0.3030
13168TIP3   OH260994   4.413   0.656  14.157 -0.5045 -0.5573 -0.3674
13168TIP3    H160995   4.346   0.686  14.219  0.8107  0.1487  0.7815
13168TIP3    H260996   4.403   0.713  14.081 -0.1614  0.6431  0.4632
13169TIP3   OH260997   3.223   2.890   2.347  0.0535  0.1443 -0.4706
13169TIP3    H160998   3.249   2.804   2.313  1.4532  0.3550  0.0048
13169TIP3    H260999   3.273   2.900   2.429 -1.7877  0.4617  0.6791
13170TIP3   OH261000   3.278   1.025  13.914 -0.2087 -1.0245 -0.1671
13170TIP3    H161001   3.328   0.947  13.938  1.9901  0.5451  0.7105
13170TIP3    H261002   3.344   1.085  13.878 -1.4378  1.1667  1.0403
13171TIP3   OH261003   5.510   0.141  13.904  0.5689 -0.4493  0.3166
13171TIP3    H161004   5.571   0.094  13.847 -0.5094 -0.7754 -0.6149
13171TIP3    H261005   5.564   0.174  13.975  1.8118 -0.7902 -0.4351
13172TIP3   OH261006   3.414   6.195   3.256 -0.0670 -0.5063  0.1010
13172TIP3    H161007   3.464   6.206   3.337  0.8825 -2.5987 -0.1388
13172TIP3    H261008   3.474   6.149   3.196 -0.5566  1.4506 -2.0215
13173TIP3   OH261009   6.070   2.434   5.560  0.0480 -0.6919 -0.1990
13173TIP3    H161010   6.101   2.452   5.649  2.2477  1.5164 -1.2902
13173TIP3    H261011   6.129   2.366   5.527  1.4272  0.7899 -0.9707
13174TIP3   OH261012   4.952   1.820  16.569  0.2611  0.0872 -0.3021
13174TIP3    H161013   4.900   1.900  16.566 -0.0173 -0.0636  0.3276
13174TIP3    H261014   5.043   1.849  16.566  0.1933  0.5073  1.2764
13175TIP3   OH261015   6.403   2.271  10.667  0.1621  0.1665  0.1158
13175TIP3    H161016   6.398   2.366  10.653  2.5084  0.6723  2.0793
13175TIP3    H261017   6.402   2.234  10.579  0.4472  2.0880 -0.7606
13176TIP3   OH261018   5.854   0.357  17.160 -0.3055 -0.0759  0.7298
13176TIP3    H161019   5.838   0.282  17.216 -0.6711 -0.2809  0.3569
13176TIP3    H261020   5.771   0.371  17.114  0.7387 -1.6230 -1.8321
13177TIP3   OH261021   3.216   2.510   1.323  0.3774  0.0740  0.3128
13177TIP3    H161022   3.287   2.471   1.271 -0.2559  0.3381 -0.7932
13177TIP3    H261023   3.158   2.438   1.343  0.8203 -0.1004  1.0210
13178TIP3   OH261024   6.335   5.073  13.931  0.0072  0.4967 -0.2959
13178TIP3    H161025   6.417   5.114  13.958  1.6029 -1.0671 -2.4084
13178TIP3    H261026   6.326   4.995  13.986  0.3620  0.2499 -0.5864
13179TIP3   OH261027   0.951   3.553   0.609 -0.0192 -0.0197 -0.2791
13179TIP3    H161028   1.028   3.594   0.650  0.8115 -0.0438 -1.7279
13179TIP3    H261029   0.877   3.582   0.661  1.1470 -1.9981  2.7385
13180TIP3   OH261030   3.151   5.849  13.067  0.4611 -0.3181  0.3721
13180TIP3    H161031   3.094   5.823  12.995  1.2381  0.1122 -0.4245
13180TIP3    H261032   3.187   5.768  13.100 -0.3711 -0.5699  0.6857
13181TIP3   OH261033   4.487   3.529   0.207 -0.5629  0.0502 -0.0667
13181TIP3    H161034   4.448   3.489   0.285  0.5386 -0.7557  0.0952
13181TIP3    H261035   4.491   3.458   0.144  2.6501 -0.5521  0.6617
13182TIP3   OH261036   5.717   0.368  14.913 -0.0718  0.2276  0.6224
13182TIP3    H161037   5.710   0.451  14.961  1.4886  1.0616 -0.5246
13182TIP3    H261038   5.737   0.393  14.823 -0.8392 -1.3792 -0.0365
13183TIP3   OH261039   6.660   4.287  14.660 -0.1793 -0.8187  0.0468
13183TIP3    H161040   6.579   4.324  14.695  0.2549 -0.8479  1.1278
13183TIP3    H261041   6.633   4.203  14.621 -0.8299 -0.3335 -0.5855
13184TIP3   OH261042   1.935   4.265   5.772 -0.6433  0.2949  0.0469
13184TIP3    H161043   1.900   4.203   5.837 -1.3258 -0.2273 -0.7885
13184TIP3    H261044   2.020   4.291   5.807 -0.1504 -1.4342  0.2458
13185TIP3   OH261045   0.061   6.419   5.102 -0.5453 -0.3595 -0.0989
13185TIP3    H161046  -0.005   6.412   5.033  0.1910 -0.0977 -0.8470
13185TIP3    H261047   0.013   6.400   5.182 -1.2437 -1.5097 -0.7540
13186TIP3   OH261048   3.240   1.547  16.600 -0.3761 -0.1785  0.3661
13186TIP3    H161049   3.327   1.554  16.641  0.8385  0.6575 -2.1198
13186TIP3    H261050   3.179   1.562  16.672  1.4145 -2.6695  2.6054
13187TIP3   OH261051   0.108   3.175  16.754  0.7084 -0.4148  0.2003
13187TIP3    H161052   0.108   3.258  16.705 -1.3515  0.8354  2.1011
13187TIP3    H261053   0.052   3.117  16.702  1.9033 -0.5639 -0.9841
13188TIP3   OH261054   1.690   4.273   1.623 -0.1869  0.5382 -0.2121
13188TIP3    H161055   1.785   4.272   1.618 -0.1453  0.0733  0.5538
13188TIP3    H261056   1.662   4.231   1.541  0.2198  1.8210 -1.0392
13189TIP3   OH261057   1.218   4.638  16.255  0.1889  0.5501 -0.7455
13189TIP3    H161058   1.156   4.662  16.324  0.9216  0.1765  0.0583
13189TIP3    H261059   1.167   4.645  16.174 -0.7046  0.9238 -0.1677
13190TIP3   OH261060   6.387   3.338   4.263  0.1696  0.7458 -0.4605
13190TIP3    H161061   6.380   3.254   4.308 -1.7101  2.3183  2.4557
13190TIP3    H261062   6.342   3.324   4.180  2.0570 -1.7282 -1.1847
13191TIP3   OH261063   0.043   4.918   3.643  0.3616 -0.0735 -0.7667
13191TIP3    H161064   0.115   4.861   3.616  0.4317  0.3759 -1.5366
13191TIP3    H261065   0.085   4.986   3.696  0.1728 -1.1730  0.8575
13192TIP3   OH261066   3.627   5.062   6.380 -0.1351  0.2019  0.2088
13192TIP3    H161067   3.554   5.121   6.361 -1.0499 -0.2353  2.1299
13192TIP3    H261068   3.586   4.976   6.393  1.1740 -0.9948 -2.6952
13193TIP3   OH261069   3.452   1.277   1.783 -0.2254 -0.2346  0.1933
13193TIP3    H161070   3.407   1.361   1.796 -1.7473 -0.9656 -0.1033
13193TIP3    H261071   3.540   1.292   1.818 -0.2613  1.6529 -0.3684
13194TIP3   OH261072   2.969   2.917   2.429 -0.0147 -0.0182 -0.0687
13194TIP3    H161073   3.049   2.908   2.376 -0.8202 -1.6772 -1.0638
13194TIP3    H261074   2.983   2.859   2.503 -0.7493 -1.2194 -0.8482
13195TIP3   OH261075   1.927   1.517   5.519  0.5036  0.0177 -0.4293
13195TIP3    H161076   1.861   1.452   5.497  0.2065 -0.5418  1.8075
13195TIP3    H261077   1.939   1.567   5.439 -1.2901 -1.0199 -1.4255
13196TIP3   OH261078   0.850   2.066   1.504 -0.0367 -0.6039  0.5084
13196TIP3    H161079   0.904   2.118   1.564  1.3394  0.4365 -1.5143
13196TIP3    H261080   0.772   2.119   1.490  2.0246  1.9390 -2.7705
13197TIP3   OH261081   2.629   5.025  11.627 -0.1319 -0.3703  0.0574
13197TIP3    H161082   2.542   4.997  11.599  0.2518 -3.4512  1.4939
13197TIP3    H261083   2.614   5.085  11.699 -1.1099 -1.4157  0.7467
13198TIP3   OH261084   0.344   5.928  16.328  0.2803 -0.1341 -0.0732
13198TIP3    H161085   0.338   5.917  16.233  2.9878  1.6798 -0.5950
13198TIP3    H261086   0.351   5.839  16.363  2.6679 -0.8321 -2.0116
13199TIP3   OH261087   5.379   4.395   3.457  0.3038 -0.0775 -0.3218
13199TIP3    H161088   5.425   4.479   3.461 -0.0618  0.0839  0.7140
13199TIP3    H261089   5.447   4.330   3.474  0.1202  0.1870  1.7094
13200TIP3   OH261090   5.581   2.576  14.111  0.0030 -0.0971  0.3213
13200TIP3    H161091   5.562   2.613  14.024 -1.4581  1.4374  1.2323
13200TIP3    H261092   5.514   2.613  14.168  0.9475 -1.0477  2.1359
13201TIP3   OH261093   1.228   6.563   0.670  0.3401  0.0463 -0.0977
13201TIP3    H161094   1.194   6.518   0.748  0.0498  1.1115  0.4128
13201TIP3    H261095   1.249   6.492   0.609  0.2394 -0.7964  0.8108
13202TIP3   OH261096   3.470   2.679   5.550  0.0513  0.6036 -0.2961
13202TIP3    H161097   3.561   2.702   5.570 -0.2334 -0.6484  3.1630
13202TIP3    H261098   3.474   2.635   5.465  2.5692  1.1348 -0.5281
13203TIP3   OH261099   3.464   2.013  12.976  0.8505 -0.2483  0.0398
13203TIP3    H161100   3.431   2.072  12.908  0.1533  0.7548  1.2265
13203TIP3    H261101   3.413   1.932  12.964  1.2097 -0.3290 -1.0411
13204TIP3   OH261102   0.206   5.713  11.036 -0.1368 -0.3391  0.2794
13204TIP3    H161103   0.276   5.669  10.988  0.4767 -2.0022  2.5538
13204TIP3    H261104   0.250   5.783  11.085 -0.3110 -0.4113  0.5411
13205TIP3   OH261105   0.489   0.283  15.192  0.1809 -0.3337 -0.2290
13205TIP3    H161106   0.408   0.233  15.206 -1.4506  1.8618 -1.2349
13205TIP3    H261107   0.517   0.258  15.104 -0.3136  0.0432 -0.5030
13206TIP3   OH261108   5.752   5.281  15.142 -0.3579 -0.5973 -0.0945
13206TIP3    H161109   5.812   5.207  15.140 -0.5544 -0.7528 -1.8396
13206TIP3    H261110   5.794   5.347  15.086 -0.7308  0.1826  0.5245
13207TIP3   OH261111   1.522   6.135  13.734 -0.7173 -0.3475 -0.4942
13207TIP3    H161112   1.614   6.112  13.743 -0.7497 -0.1388  0.4237
13207TIP3    H261113   1.522   6.213  13.678 -0.2614  0.1725  0.2068
13208TIP3   OH261114   4.387   0.663  12.656 -0.2909  0.4533  0.1002
13208TIP3    H161115   4.420   0.752  12.666 -0.3466  0.5775 -0.7266
13208TIP3    H261116   4.431   0.630  12.578  0.9561 -0.8227  1.3000
13209TIP3   OH261117   4.677   0.838  16.128  0.1113  0.0436  0.0447
13209TIP3    H161118   4.629   0.898  16.185  0.5965  1.4792 -0.9821
13209TIP3    H261119   4.616   0.817  16.058 -1.1489 -3.1941  1.8757
13210TIP3   OH261120   3.984   0.762  14.789  0.0594 -0.2149  0.3898
13210TIP3    H161121   3.934   0.841  14.812  1.7176  1.0136 -0.0548
13210TIP3    H261122   3.928   0.717  14.725 -0.6223  0.9435  0.1404
13211TIP3   OH261123   3.197   0.866  13.668 -0.5465  0.5143  0.0003
13211TIP3    H161124   3.230   0.919  13.740 -0.7076  1.1374 -0.3773
13211TIP3    H261125   3.268   0.804  13.649 -0.0758  1.0566 -0.0194
13212TIP3   OH261126   5.205   6.413   3.069  0.3627  0.2884  0.1684
13212TIP3    H161127   5.116   6.399   3.038  0.8718  1.0055 -1.7687
13212TIP3    H261128   5.199   6.489   3.126 -0.1210  1.0764 -0.8869
13213TIP3   OH261129   4.841   0.764  11.829  0.1420 -0.3491 -0.9004
13213TIP3    H161130   4.803   0.727  11.750  0.3884 -1.0883 -0.6831
13213TIP3    H261131   4.794   0.847  11.842 -1.8682 -1.5234 -0.2875
13214TIP3   OH261132   4.666   4.483  15.746 -0.2372 -0.0024 -0.4674
13214TIP3    H161133   4.598   4.501  15.680 -1.0755 -1.1964  0.0131
13214TIP3    H261134   4.725   4.557  15.741 -0.8229  0.4093 -1.8881
13215TIP3   OH261135   2.279   5.090  14.046 -0.2171 -0.0446  0.3339
13215TIP3    H161136   2.348   5.034  14.011  0.3881  0.6856  0.3323
13215TIP3    H261137   2.218   5.030  14.088 -1.1480 -1.0113 -2.2186
13216TIP3   OH261138   5.903   4.111  15.372 -0.3752  0.7712 -0.1280
13216TIP3    H161139   5.932   4.159  15.450 -2.3686  1.1717  0.4227
13216TIP3    H261140   5.831   4.057  15.403 -0.8330  0.5053 -1.6030
13217TIP3   OH261141   0.553   1.984  11.324  0.6638 -0.5515  0.1860
13217TIP3    H161142   0.572   1.891  11.330 -0.4441 -0.7651  0.6360
13217TIP3    H261143   0.536   1.999  11.230 -0.2942 -1.0518  0.2654
13218TIP3   OH261144   5.293   1.585   5.159 -0.4984  0.5198  0.3117
13218TIP3    H161145   5.364   1.644   5.134  0.6295 -1.4776 -1.5537
13218TIP3    H261146   5.240   1.577   5.079 -0.1456 -1.5636  0.2324
13219TIP3   OH261147   1.848   4.322   2.307 -0.0944 -0.3238 -0.3536
13219TIP3    H161148   1.900   4.242   2.306 -1.1800 -1.0526 -0.2413
13219TIP3    H261149   1.826   4.335   2.399  1.2466  0.9174 -0.1634
13220TIP3   OH261150   0.601   0.064  17.252 -0.0387 -0.2751  0.5828
13220TIP3    H161151   0.565  -0.024  17.243  0.7359 -0.6085  0.6022
13220TIP3    H261152   0.574   0.109  17.172  1.5896 -1.3088 -0.6227
13221TIP3   OH261153   1.840   0.597  16.146  0.1260 -0.2752  0.5582
13221TIP3    H161154   1.813   0.530  16.084  2.0596 -1.7616  1.2283
13221TIP3    H261155   1.788   0.581  16.224 -0.6573  0.1410  0.1347
13222TIP3   OH261156   0.470   1.199   3.330  0.3498  0.3144 -0.3825
13222TIP3    H161157   0.482   1.246   3.413 -0.8651  0.5352 -0.3126
13222TIP3    H261158   0.397   1.139   3.347  1.4829 -1.1745 -0.6618
13223TIP3   OH261159   1.154   4.499  12.940 -0.1734  0.5113 -0.0612
13223TIP3    H161160   1.137   4.501  12.846 -1.6147 -0.0644  0.1742
13223TIP3    H261161   1.115   4.580  12.973 -0.6439  0.1794  0.1971
13224TIP3   OH261162   4.256   6.077  17.230  0.1572 -0.3769 -0.2883
13224TIP3    H161163   4.259   5.990  17.268  0.6544  0.6007  2.0994
13224TIP3    H261164   4.193   6.125  17.284  1.6009  1.3619 -0.0277
13225TIP3   OH261165   0.069   5.904   1.483 -0.4125  0.3612 -0.1468
13225TIP3    H161166   0.095   5.991   1.453 -0.3609  0.1059 -0.8470
13225TIP3    H261167   0.101   5.845   1.416 -0.9141 -0.1556  0.0628
13226TIP3   OH261168   6.060   5.736   1.765  0.0639 -0.2896 -0.3557
13226TIP3    H161169   5.968   5.714   1.751  0.2325 -0.7728 -0.7415
13226TIP3    H261170   6.080   5.797   1.693  0.1471 -0.4899 -0.5037
13227TIP3   OH261171   6.731   5.658  12.718 -0.1820  0.1028 -0.4290
13227TIP3    H161172   6.768   5.632  12.633  0.1530 -1.4613  0.1616
13227TIP3    H261173   6.698   5.577  12.756 -0.8303  0.8669  0.7083
13228TIP3   OH261174   6.366   2.875  16.165  0.2271  0.7925 -0.1336
13228TIP3    H161175   6.435   2.838  16.110  1.4601  0.3411  1.6297
13228TIP3    H261176   6.379   2.833  16.250 -2.5307  0.3290  0.1599
13229TIP3   OH261177   3.431   4.726  11.683  0.1803  0.1209 -0.0556
13229TIP3    H161178   3.484   4.702  11.759  0.6386  1.2763  0.0131
13229TIP3    H261179   3.352   4.764  11.721 -1.3737 -2.7556 -0.1239
13230TIP3   OH261180   4.600   1.195   3.685  0.2359  0.4509  0.2322
13230TIP3    H161181   4.512   1.170   3.714 -0.1082  0.9272 -0.3671
13230TIP3    H261182   4.604   1.290   3.698  0.8840  0.3467  0.8228
13231TIP3   OH261183   3.548   2.245  13.339 -0.0598  0.5055  0.2598
13231TIP3    H161184   3.631   2.202  13.319 -0.8181 -0.5890 -0.6699
13231TIP3    H261185   3.571   2.311  13.404  1.8466  1.3598 -1.1388
13232TIP3   OH261186   4.379   5.415  14.435  0.6233 -0.1854 -0.3052
13232TIP3    H161187   4.445   5.477  14.465 -0.2194  0.4587  0.3098
13232TIP3    H261188   4.317   5.409  14.509 -1.0236  0.7149 -1.5519
13233TIP3   OH261189   4.245   6.557  16.993 -0.0931  0.0340 -0.1327
13233TIP3    H161190   4.219   6.506  17.070 -0.2807  0.1183 -0.1418
13233TIP3    H261191   4.335   6.529  16.976  0.4309  1.0129  0.9339
13234TIP3   OH261192   6.648   5.791  17.162  0.1061 -0.4462  0.3024
13234TIP3    H161193   6.717   5.781  17.096 -0.3078 -0.5185 -0.1176
13234TIP3    H261194   6.605   5.705  17.166 -1.0106  0.0537 -0.6064
13235TIP3   OH261195   4.661   1.854   0.243  0.4583  0.2741 -0.3254
13235TIP3    H161196   4.673   1.918   0.313 -0.2877  1.5722 -1.3591
13235TIP3    H261197   4.665   1.904   0.162 -0.5752 -0.9000 -1.1550
13236TIP3   OH261198   0.479   2.744   0.525 -0.7833 -0.0792 -0.4886
13236TIP3    H161199   0.402   2.687   0.524 -1.9130  1.3783 -0.7633
13236TIP3    H261200   0.546   2.693   0.570 -2.1998 -1.0442  0.6235
13237TIP3   OH261201   3.695   0.281  15.158 -0.6630  0.1655 -0.2287
13237TIP3    H161202   3.764   0.328  15.205 -1.6027  0.9189  0.4278
13237TIP3    H261203   3.615   0.297  15.209 -1.7122  0.9799 -2.0288
13238TIP3   OH261204   6.491   3.543   6.597 -0.0466  0.5409  0.6990
13238TIP3    H161205   6.502   3.631   6.561  1.2115  0.4245  0.7314
13238TIP3    H261206   6.561   3.535   6.661  2.3953 -1.7639 -1.9493
13239TIP3   OH261207   4.965   1.605   0.852 -0.2349 -0.0376 -0.0312
13239TIP3    H161208   4.940   1.665   0.923 -0.3723 -0.6948  0.4926
13239TIP3    H261209   5.053   1.576   0.876  0.4289  1.0419 -1.0381
13240TIP3   OH261210   1.161   3.315   2.908  0.4084  0.1439  0.2762
13240TIP3    H161211   1.188   3.359   2.988  0.5866  0.5765 -0.0191
13240TIP3    H261212   1.212   3.233   2.907  0.6114  0.2685  0.4635
13241TIP3   OH261213   1.943   3.788   1.932  0.3748  0.5144 -0.1420
13241TIP3    H161214   1.850   3.765   1.923  0.1095  1.7964 -0.8725
13241TIP3    H261215   1.947   3.881   1.909  2.3979 -0.3460 -4.3574
13242TIP3   OH261216   3.365   1.722   0.406  0.7270  0.6369 -0.4734
13242TIP3    H161217   3.366   1.802   0.458  1.1620  0.4460 -0.1809
13242TIP3    H261218   3.351   1.652   0.470  2.2244  0.3131 -0.4836
13243TIP3   OH261219   3.641   0.267  12.870  0.5082 -0.7022 -0.3382
13243TIP3    H161220   3.735   0.254  12.880  0.6358  1.0169  1.4511
13243TIP3    H261221   3.634   0.344  12.813  0.2879  0.3264  1.0314
13244TIP3   OH261222   5.616   1.626  17.252  0.2563  0.4280  0.3860
13244TIP3    H161223   5.560   1.577  17.312 -0.7413 -0.9640 -1.5723
13244TIP3    H261224   5.671   1.558  17.211 -0.1366  1.1071 -1.3346
13245TIP3   OH261225   4.039   0.357   2.040  0.7705  0.0777  0.6512
13245TIP3    H161226   4.131   0.332   2.028  0.6605 -0.7366  1.4275
13245TIP3    H261227   4.025   0.354   2.134  0.3066  1.5726  0.6625
13246TIP3   OH261228   4.981   2.200   0.732 -0.1176 -0.3971  0.0355
13246TIP3    H161229   4.962   2.285   0.773 -2.2509 -0.5289 -0.5568
13246TIP3    H261230   4.983   2.220   0.638 -1.1809 -1.0735 -0.1421
13247TIP3   OH261231   0.263   3.385  11.324  0.5589  0.8440 -0.2880
13247TIP3    H161232   0.340   3.376  11.381 -0.8123 -1.3242  1.3358
13247TIP3    H261233   0.198   3.429  11.379 -0.4529 -0.3782 -0.4752
13248TIP3   OH261234   4.305   5.619  12.848  0.8739  0.2205  1.0485
13248TIP3    H161235   4.296   5.554  12.779  1.5866  1.3611 -0.1650
13248TIP3    H261236   4.221   5.666  12.848  1.2552  0.9422  0.1586
13249TIP3   OH261237   6.154   1.380   4.597  0.0899  0.2916 -0.2371
13249TIP3    H161238   6.179   1.472   4.591  0.4342  0.1822 -0.5351
13249TIP3    H261239   6.095   1.366   4.524  0.6191  0.0991 -0.6356
13250TIP3   OH261240   6.763   1.780   4.611  0.1808 -0.3130  0.0652
13250TIP3    H161241   6.690   1.824   4.568 -1.3881 -2.0051  0.8697
13250TIP3    H261242   6.742   1.687   4.605  2.0443 -0.8238  0.7517
13251TIP3   OH261243   4.186   1.467   2.750 -0.6259 -0.2047 -0.7299
13251TIP3    H161244   4.141   1.414   2.816  1.0479 -1.0336 -0.1896
13251TIP3    H261245   4.206   1.405   2.680  0.5737 -0.1319 -0.4800
13252TIP3   OH261246   5.934   4.640  15.631 -0.0480 -0.4837  0.0575
13252TIP3    H161247   5.897   4.557  15.601 -1.4025 -0.4315  1.4750
13252TIP3    H261248   5.866   4.678  15.686  0.8844  1.1785  0.1152
13253TIP3   OH261249   5.384   5.770   2.433  0.2221  0.5360 -0.0715
13253TIP3    H161250   5.309   5.714   2.452  0.8144 -0.7526 -1.2907
13253TIP3    H261251   5.430   5.778   2.517  0.0565 -0.7505  0.1709
13254TIP3   OH261252   2.662   3.671  13.345 -0.0036  0.3266 -0.3453
13254TIP3    H161253   2.714   3.724  13.285  1.6436 -1.1169 -0.2791
13254TIP3    H261254   2.630   3.598  13.291  0.2983 -0.2272  0.2106
13255TIP3   OH261255   2.555   5.672   4.714  0.1592  0.4901 -0.0216
13255TIP3    H161256   2.494   5.682   4.787  0.0028  2.6348 -0.3575
13255TIP3    H261257   2.581   5.762   4.693 -0.5992  0.0760 -3.2784
13256TIP3   OH261258   3.104   1.753   0.612  0.3510 -0.6899  0.0177
13256TIP3    H161259   3.041   1.681   0.610  0.1744 -0.5862  1.2562
13256TIP3    H261260   3.054   1.829   0.641  0.6215 -0.1502 -0.8969
13257TIP3   OH261261   2.345   1.968   0.577 -0.3679 -0.3619  0.3595
13257TIP3    H161262   2.261   1.923   0.582  0.7390 -2.4906  1.6138
13257TIP3    H261263   2.347   2.026   0.653 -0.8938  0.1212  0.0137
13258TIP3   OH261264   4.523   3.439   3.701 -0.1770 -0.0617  0.1153
13258TIP3    H161265   4.449   3.398   3.657  0.7716 -1.2477 -0.4246
13258TIP3    H261266   4.504   3.429   3.794 -0.9791  0.1948 -0.0131
13259TIP3   OH261267   0.095   0.691   5.710  0.1890  0.0423  0.1634
13259TIP3    H161268   0.075   0.782   5.686 -0.1326  0.0943  0.6331
13259TIP3    H261269   0.164   0.699   5.776 -0.4417 -0.0163  0.8417
13260TIP3   OH261270   2.500   4.305   0.894  0.2131 -0.2803 -0.0666
13260TIP3    H161271   2.519   4.228   0.839 -0.2884  0.0581 -0.7360
13260TIP3    H261272   2.521   4.379   0.837 -0.2054  0.0759  0.2436
13261TIP3   OH261273   5.118   4.319  11.741 -0.3111 -0.8715 -0.0877
13261TIP3    H161274   5.032   4.293  11.708  0.0446 -1.3801 -0.6475
13261TIP3    H261275   5.103   4.340  11.833 -1.6188  1.9781 -0.8450
13262TIP3   OH261276   4.373   3.186  12.298  0.0017 -0.0989  0.5319
13262TIP3    H161277   4.336   3.137  12.225  0.4619  0.2531  0.0547
13262TIP3    H261278   4.465   3.159  12.301  0.2814  0.7801  0.2134
13263TIP3   OH261279   2.831   2.315  10.621 -0.1839 -0.0313 -0.0993
13263TIP3    H161280   2.924   2.309  10.599 -0.2854  0.6844 -0.7657
13263TIP3    H261281   2.786   2.301  10.538 -0.6620 -0.0659  0.1637
13264TIP3   OH261282   5.664   5.029  15.909 -0.0811 -0.0215  1.0356
13264TIP3    H161283   5.585   4.976  15.918 -0.3108 -0.2574 -1.4768
13264TIP3    H261284   5.666   5.054  15.816  4.2498 -2.5075  0.1447
13265TIP3   OH261285   0.798   2.009   0.867  0.0657  0.3439  1.0522
13265TIP3    H161286   0.733   2.058   0.817 -1.4482  0.4644  3.0387
13265TIP3    H261287   0.779   1.917   0.850  0.2420  0.3883  0.5997
13266TIP3   OH261288   3.527   2.302   5.383 -0.1101  0.4112 -0.6391
13266TIP3    H161289   3.524   2.240   5.456  2.2659 -0.0770 -0.8632
13266TIP3    H261290   3.598   2.361   5.406  0.1637  0.7199 -2.2045
13267TIP3   OH261291   3.638   5.258   5.212  0.1493  0.4286  0.4081
13267TIP3    H161292   3.603   5.346   5.229  0.1988  0.5605 -0.1425
13267TIP3    H261293   3.561   5.206   5.189  0.2927  0.6915 -0.6965
13268TIP3   OH261294   2.160   0.521  15.530 -0.2146 -0.0253  0.0768
13268TIP3    H161295   2.076   0.563  15.511 -0.5979 -1.0501 -0.5724
13268TIP3    H261296   2.153   0.434  15.490  1.4608  0.1651 -0.7177
13269TIP3   OH261297   3.303   2.498  15.696  0.5044  0.9008  0.1577
13269TIP3    H161298   3.230   2.548  15.731  0.1328 -0.7561  1.8982
13269TIP3    H261299   3.379   2.529  15.746  0.5371  0.8072  0.1661
13270TIP3   OH261300   5.900   6.123  13.809 -0.5438 -0.2099 -0.0905
13270TIP3    H161301   5.864   6.190  13.750 -0.3288 -0.9847 -1.1249
13270TIP3    H261302   5.890   6.161  13.897 -0.1721  1.3036 -0.6615
13271TIP3   OH261303   2.098   3.479  14.507 -0.2044  0.5217 -0.2373
13271TIP3    H161304   2.010   3.444  14.514  0.5225 -1.2464  0.6241
13271TIP3    H261305   2.101   3.550  14.572 -1.1800  1.1038 -0.7977
13272TIP3   OH261306   5.715   1.874  16.372  0.5621  0.4597  0.5750
13272TIP3    H161307   5.726   1.930  16.449  1.2006  2.0962 -0.6677
13272TIP3    H261308   5.636   1.907  16.329  0.4894 -0.1229  0.2480
13273TIP3   OH261309   2.512   0.670  15.194 -0.4967 -0.3440 -0.0969
13273TIP3    H161310   2.541   0.655  15.104  1.0995  0.8218  0.1660
13273TIP3    H261311   2.471   0.757  15.192 -2.1985 -1.1176 -0.0441
13274TIP3   OH261312   5.708   3.336   3.501 -0.3639 -1.2845  0.0243
13274TIP3    H161313   5.795   3.305   3.477 -1.6799 -3.4201 -2.5212
13274TIP3    H261314   5.698   3.418   3.453 -0.4128 -2.0077 -1.2427
13275TIP3   OH261315   5.467   6.153   5.657  0.2210  0.5909  0.2311
13275TIP3    H161316   5.461   6.115   5.745  1.4969 -1.9030 -0.6511
13275TIP3    H261317   5.526   6.227   5.667  2.3727 -1.1317  1.1301
13276TIP3   OH261318   3.281   2.268   2.782  0.5798  0.0663 -0.2003
13276TIP3    H161319   3.248   2.244   2.869  0.4965  2.2664  0.4176
13276TIP3    H261320   3.238   2.207   2.722 -2.1156  0.7497  0.9284
13277TIP3   OH261321   5.664   0.810   6.369 -0.8122  0.3803  0.1788
13277TIP3    H161322   5.576   0.842   6.387 -1.4011 -1.1378  0.1494
13277TIP3    H261323   5.721   0.857   6.430 -2.0492 -0.8152  2.3513
13278TIP3   OH261324   1.842   6.624   5.429 -0.2058  0.0575  0.1908
13278TIP3    H161325   1.798   6.610   5.345  2.0985 -2.0183 -0.7633
13278TIP3    H261326   1.920   6.675   5.407  1.3647 -2.0146  0.7071
13279TIP3   OH261327   5.049   2.030  11.655  0.0313  0.1993  0.4647
13279TIP3    H161328   5.093   2.116  11.652  0.8953 -0.1848  1.3982
13279TIP3    H261329   4.969   2.046  11.706 -0.9840  0.9142 -1.2731
13280TIP3   OH261330   4.380   6.379  16.454  0.0924  0.2433  0.6455
13280TIP3    H161331   4.419   6.453  16.409  0.0045  0.1894  0.4788
13280TIP3    H261332   4.435   6.366  16.532  1.3830 -0.8179 -0.3740
13281TIP3   OH261333   2.611   4.452  13.927 -0.4404  0.1390 -0.3891
13281TIP3    H161334   2.572   4.431  14.012  1.4587  0.1858  0.5656
13281TIP3    H261335   2.644   4.541  13.938  0.6672 -0.2060 -0.8245
13282TIP3   OH261336   5.691   3.037  15.798 -0.0550 -0.1726  0.5267
13282TIP3    H161337   5.739   3.102  15.850  0.3450 -1.0134  1.2283
13282TIP3    H261338   5.624   3.004  15.857  1.0657 -1.8993  0.9115
13283TIP3   OH261339   0.602   0.836   6.969  0.0872 -0.3709 -0.6434
13283TIP3    H161340   0.524   0.870   6.925 -0.8109 -0.6993  0.6466
13283TIP3    H261341   0.568   0.781   7.040  1.5020 -1.5497 -0.8320
13284TIP3   OH261342   0.352   4.882   3.218  0.4654  0.2784 -0.4183
13284TIP3    H161343   0.289   4.905   3.149  0.4600  2.1137  0.1600
13284TIP3    H261344   0.417   4.828   3.173 -0.8469 -0.6347 -1.2960
13285TIP3   OH261345   4.981   5.779   4.580 -0.0283  0.0035  0.4871
13285TIP3    H161346   4.900   5.809   4.538  0.8610  1.4338 -0.2764
13285TIP3    H261347   4.997   5.843   4.649  0.0719 -0.7043  1.1318
13286TIP3   OH261348   4.827   3.618   4.412 -0.1439  0.0404  0.1450
13286TIP3    H161349   4.826   3.713   4.426  0.2692  0.4519 -2.0999
13286TIP3    H261350   4.912   3.601   4.370 -1.4719 -0.7477 -2.4526
13287TIP3   OH261351   4.897   1.501  11.683 -0.1114  0.5905  0.0383
13287TIP3    H161352   4.957   1.574  11.701  0.3378  0.0623  0.7112
13287TIP3    H261353   4.862   1.520  11.596  2.0403  0.2235 -0.9534
13288TIP3   OH261354   4.986   3.155  12.291  0.2913  0.4016 -0.1085
13288TIP3    H161355   5.041   3.092  12.338  0.5358  0.8786  0.2521
13288TIP3    H261356   4.954   3.215  12.359  0.0291  0.6454 -0.4412
13289TIP3   OH261357   6.767   3.457   4.476 -0.0791 -0.3432  0.2426
13289TIP3    H161358   6.853   3.483   4.510 -0.0625  0.3526 -0.3203
13289TIP3    H261359   6.770   3.480   4.383 -2.1652  3.1333  0.8610
13290TIP3   OH261360   6.540   3.635   2.923 -0.1536 -0.5192  0.8828
13290TIP3    H161361   6.551   3.702   2.856 -1.0502  0.6447  1.8517
13290TIP3    H261362   6.539   3.553   2.874  0.5394  0.1932 -0.3820
13291TIP3   OH261363   4.002   4.388  16.207  0.5317 -0.2253 -0.3390
13291TIP3    H161364   4.031   4.466  16.160  0.7528  0.2014  0.4893
13291TIP3    H261365   4.063   4.380  16.280  0.1979 -0.8870 -0.1284
13292TIP3   OH261366   4.929   2.755   3.674  0.5262  0.9827  0.0229
13292TIP3    H161367   4.958   2.837   3.634 -0.0238  1.1518 -0.0272
13292TIP3    H261368   4.846   2.735   3.632  0.0157  1.0843  0.9620
13293TIP3   OH261369   2.446   2.091  15.493  0.1757 -0.3917  0.0758
13293TIP3    H161370   2.379   2.076  15.560 -0.6177  0.0620 -0.5796
13293TIP3    H261371   2.501   2.161  15.529 -0.1659 -0.2400  0.3150
13294TIP3   OH261372   2.308   3.806   1.322  0.1024 -0.0079 -0.4581
13294TIP3    H161373   2.265   3.794   1.407  2.0003  1.3303  0.7536
13294TIP3    H261374   2.295   3.898   1.301  0.0664 -0.2169 -1.4029
13295TIP3   OH261375   3.895   1.784   1.125 -0.0253  0.3897  0.0723
13295TIP3    H161376   3.849   1.721   1.070  0.9393  1.0189 -1.5267
13295TIP3    H261377   3.988   1.770   1.105  0.2316  2.0677 -0.0787
13296TIP3   OH261378   4.604   3.365  15.338 -0.1445 -0.2982  0.5687
13296TIP3    H161379   4.645   3.376  15.424  0.2755  1.2852  0.2103
13296TIP3    H261380   4.671   3.396  15.276 -0.9369 -0.1379 -0.2259
13297TIP3   OH261381   2.790   5.922   4.863 -0.3453 -0.5655 -0.6384
13297TIP3    H161382   2.835   5.958   4.787 -0.5385  1.1369  0.0170
13297TIP3    H261383   2.698   5.943   4.849 -0.0347  3.2494  1.7542
13298TIP3   OH261384   1.617   2.942  12.527  0.9744  0.5324  0.0885
13298TIP3    H161385   1.580   2.936  12.439 -0.1126 -0.2638  0.5844
13298TIP3    H261386   1.608   3.035  12.549  0.7526  0.6391 -0.4183
13299TIP3   OH261387   5.336   6.230   5.075 -0.5608 -0.2256  0.0405
13299TIP3    H161388   5.295   6.305   5.032 -0.3816  0.0041  0.2673
13299TIP3    H261389   5.265   6.168   5.089 -0.6493 -0.2457 -0.4599
13300TIP3   OH261390   1.313   0.240   4.340 -0.2827  0.5551 -0.1317
13300TIP3    H161391   1.366   0.278   4.271  0.1210  0.9509  0.3856
13300TIP3    H261392   1.223   0.254   4.313 -0.1255  0.1343 -0.8821
13301TIP3   OH261393   0.627   1.864  13.908 -0.0844  0.6957 -0.1764
13301TIP3    H161394   0.616   1.772  13.887 -0.2933  0.9123 -1.0857
13301TIP3    H261395   0.602   1.910  13.827  2.3274  1.4507 -0.5614
13302TIP3   OH261396   4.130   0.385   0.062 -0.2384 -0.0942  0.4169
13302TIP3    H161397   4.131   0.328   0.139  1.9868 -1.3606 -0.4552
13302TIP3    H261398   4.135   0.474   0.098 -1.3136 -0.5221  1.7411
13303TIP3   OH261399   1.166   3.227   0.005 -0.3698  0.1815  0.1100
13303TIP3    H161400   1.072   3.216   0.020 -0.4274  0.0881 -0.3048
13303TIP3    H261401   1.207   3.163   0.063 -0.5966 -0.3085 -0.2602
13304TIP3   OH261402   5.689   1.061   3.019  0.2380 -0.3602  0.5245
13304TIP3    H161403   5.596   1.042   3.030 -0.4959  2.1565 -0.7231
13304TIP3    H261404   5.705   1.136   3.077  0.7488  1.0622 -1.3655
13305TIP3   OH261405   6.254   4.204  11.346  0.0531  0.0176  0.5671
13305TIP3    H161406   6.206   4.202  11.429  1.4385 -0.2752  1.4039
13305TIP3    H261407   6.189   4.228  11.281 -0.6126  2.7358  2.0674
13306TIP3   OH261408   3.691   3.117  16.626 -0.3281  0.0190 -0.0264
13306TIP3    H161409   3.657   3.043  16.575 -0.1530  0.1082 -0.2775
13306TIP3    H261410   3.759   3.079  16.681 -2.5513 -0.6766  2.4254
13307TIP3   OH261411   3.402   5.458  12.967 -0.0806  0.1513 -0.4331
13307TIP3    H161412   3.444   5.379  12.932  1.1692  0.2864  0.6784
13307TIP3    H261413   3.447   5.531  12.924 -0.1167  0.2841 -0.2470
13308TIP3   OH261414   4.519   1.491  16.672 -0.4652 -0.5302 -0.1978
13308TIP3    H161415   4.543   1.582  16.652 -0.4457 -0.4363  0.2332
13308TIP3    H261416   4.424   1.493  16.678 -0.4138 -0.3335  0.7349
13309TIP3   OH261417   5.109   0.263   4.774  0.2983 -0.3149 -0.1452
13309TIP3    H161418   5.026   0.217   4.768  0.2404 -0.0937 -1.2463
13309TIP3    H261419   5.173   0.202   4.737  0.4894 -0.1527 -0.0857
13310TIP3   OH261420   6.548   1.560  14.871 -0.1478  0.4163 -0.5872
13310TIP3    H161421   6.623   1.579  14.814  0.3387 -1.6798 -0.7285
13310TIP3    H261422   6.476   1.541  14.811  0.3012 -1.5477 -0.5777
13311TIP3   OH261423   4.123   4.190  16.605  0.1019  0.0919  0.4112
13311TIP3    H161424   4.064   4.128  16.562  0.5634 -0.4810  0.5798
13311TIP3    H261425   4.113   4.271  16.556 -0.2231 -0.2309 -0.0665
13312TIP3   OH261426   0.908   4.267   1.318 -0.2293  0.4338  0.7575
13312TIP3    H161427   0.827   4.284   1.271 -0.7122  0.9633  1.7551
13312TIP3    H261428   0.883   4.265   1.410  1.1504  2.6197  1.2726
13313TIP3   OH261429   3.061   1.087  16.473 -0.6140  0.0518  0.1162
13313TIP3    H161430   3.149   1.090  16.437 -0.6426 -0.0176  0.0400
13313TIP3    H261431   3.061   1.151  16.543 -1.0675  1.5102 -1.1647
13314TIP3   OH261432   3.613   0.127   0.998 -0.6981  0.1880  0.1402
13314TIP3    H161433   3.652   0.070   0.932 -1.8196 -0.9020  0.3842
13314TIP3    H261434   3.553   0.070   1.047 -1.2383  1.3878  0.9244
13315TIP3   OH261435   2.841   0.682  14.222  0.0787 -0.6480 -0.1773
13315TIP3    H161436   2.925   0.722  14.246 -0.2093  0.4520 -0.9485
13315TIP3    H261437   2.862   0.589  14.209  1.8552  0.0488 -3.2566
13316TIP3   OH261438   0.966   2.916  14.655  0.4725  0.1881 -0.0837
13316TIP3    H161439   0.965   2.978  14.582  1.1308  0.1553 -0.1326
13316TIP3    H261440   0.887   2.863  14.644  0.4729  0.3008 -0.6660
13317TIP3   OH261441   2.265   5.927   1.242  0.6793  1.2029 -0.5586
13317TIP3    H161442   2.266   5.940   1.148  0.4465  4.1009 -0.2473
13317TIP3    H261443   2.333   5.985   1.276  1.1832 -0.2260  1.0540
13318TIP3   OH261444   1.747   0.525   0.055  0.4949  0.2866  0.2602
13318TIP3    H161445   1.707   0.563  -0.024 -1.4325 -1.2086  0.4602
13318TIP3    H261446   1.784   0.442   0.025  1.5434  0.6396  0.5467
13319TIP3   OH261447   3.666   1.873   0.053  0.0661 -0.5764  0.1879
13319TIP3    H161448   3.752   1.832   0.057  0.6818  0.7025  0.8913
13319TIP3    H261449   3.628   1.859   0.139  0.2206  0.1572  0.3874
13320TIP3   OH261450   0.149   4.146  13.682  0.0308  0.4052  0.0064
13320TIP3    H161451   0.167   4.062  13.724 -0.2955  1.1935  1.8352
13320TIP3    H261452   0.199   4.144  13.600 -2.6540 -2.9161 -1.7753
13321TIP3   OH261453   5.241   0.988   5.187  0.4086 -0.3633 -0.0897
13321TIP3    H161454   5.160   1.033   5.161  0.6502 -0.1969 -0.5765
13321TIP3    H261455   5.212   0.914   5.239 -0.0284  0.0502  0.2600
13322TIP3   OH261456   0.073   5.781   0.191  0.4016 -0.6050 -0.5933
13322TIP3    H161457   0.098   5.791   0.099  0.5359 -0.7401 -0.5733
13322TIP3    H261458   0.087   5.867   0.230  0.1884 -0.5083 -0.7380
13323TIP3   OH261459   0.036   3.969  11.299 -0.2526  0.3055 -0.2877
13323TIP3    H161460   0.114   4.002  11.343 -0.7282  0.3683  0.5179
13323TIP3    H261461  -0.016   3.928  11.368 -0.2359 -1.1008 -1.0579
13324TIP3   OH261462   5.926   3.477  13.503  0.5571 -0.1425  0.1905
13324TIP3    H161463   5.928   3.549  13.566  0.2535 -0.4213  0.5209
13324TIP3    H261464   5.855   3.420  13.533 -0.0826  0.0963 -0.8053
13325TIP3   OH261465   4.354   0.995  11.641  0.9491 -0.0526  0.3803
13325TIP3    H161466   4.395   1.033  11.563  0.9344  0.2601  0.5262
13325TIP3    H261467   4.274   0.954  11.608  0.1872  1.3193  0.4350
13326TIP3   OH261468   0.363   2.279  11.297  0.3287  0.5945 -0.6951
13326TIP3    H161469   0.306   2.352  11.275 -0.0492  0.3668 -0.4661
13326TIP3    H261470   0.356   2.220  11.222 -0.3691  0.1798 -0.3051
13327TIP3   OH261471   0.306   3.743  11.497 -0.1744  0.7902  0.1925
13327TIP3    H161472   0.260   3.659  11.499  2.1551 -0.7142 -2.1391
13327TIP3    H261473   0.349   3.748  11.582  1.0899 -1.3916 -0.2254
13328TIP3   OH261474   6.518   5.984  13.995  0.5140  0.1261 -0.2663
13328TIP3    H161475   6.434   5.987  13.950  1.7819 -0.0567 -2.7935
13328TIP3    H261476   6.506   5.918  14.064 -1.0315 -0.8204 -1.3881
13329TIP3   OH261477   5.519   5.281  14.969  0.0341 -0.5287  0.1186
13329TIP3    H161478   5.589   5.259  15.031 -0.8322 -1.0131  0.9597
13329TIP3    H261479   5.537   5.227  14.892  0.8116 -0.3478  0.1682
13330TIP3   OH261480   1.971   3.321   5.930  0.2380 -0.2433 -0.9094
13330TIP3    H161481   2.019   3.301   6.010 -1.4512 -1.0859 -0.0653
13330TIP3    H261482   1.925   3.403   5.949 -1.5651 -1.3559 -0.3413
13331TIP3   OH261483   5.410   1.612   3.705  0.2802 -0.0679  0.1952
13331TIP3    H161484   5.470   1.632   3.777 -1.4360 -0.3677  1.7855
13331TIP3    H261485   5.361   1.694   3.692  0.8352  0.1033 -0.9243
13332TIP3   OH261486   0.778   1.817   0.317  0.0163  0.4053 -0.1941
13332TIP3    H161487   0.789   1.739   0.372 -0.1224 -0.6141 -1.5546
13332TIP3    H261488   0.690   1.808   0.281 -0.6902  2.1189  0.9673
13333TIP3   OH261489   6.584   1.736   0.518  0.0080 -0.4124  0.5628
13333TIP3    H161490   6.641   1.659   0.519  1.1766  0.3038  4.4492
13333TIP3    H261491   6.506   1.706   0.471  1.4513 -3.1110 -0.3539
13334TIP3   OH261492   2.969   6.412   2.095 -0.2048  0.3290 -0.6144
13334TIP3    H161493   2.909   6.390   2.024 -0.4902 -1.1705  0.0293
13334TIP3    H261494   3.025   6.335   2.103 -1.2917 -0.3358  1.8518
13335TIP3   OH261495   6.619   1.097  15.503 -0.0445 -0.0498 -0.0742
13335TIP3    H161496   6.704   1.109  15.461 -0.9509 -2.8579 -3.1563
13335TIP3    H261497   6.639   1.058  15.589  1.8801 -2.7419 -1.5822
13336TIP3   OH261498   4.085   3.897   5.374 -0.0070 -0.2577  0.3475
13336TIP3    H161499   4.010   3.848   5.341 -0.9510  2.2039 -1.3881
13336TIP3    H261500   4.158   3.836   5.367 -1.5318 -2.2374  0.7055
13337TIP3   OH261501   3.522   4.381   0.717 -0.2530  0.1068  0.0646
13337TIP3    H161502   3.430   4.363   0.701 -0.4055  0.5604  0.4491
13337TIP3    H261503   3.527   4.405   0.809  0.2371  0.1751  0.0235
13338TIP3   OH261504   3.488   1.556  15.835  1.1563 -0.0035  0.3213
13338TIP3    H161505   3.514   1.468  15.810 -0.7444 -0.4542 -0.2582
13338TIP3    H261506   3.404   1.570  15.791  1.4000  2.0976  0.4060
13339TIP3   OH261507   5.933   5.158  11.469 -0.4541 -0.1133  0.6534
13339TIP3    H161508   5.989   5.149  11.392 -2.9359 -2.2823 -1.1152
13339TIP3    H261509   5.950   5.079  11.520 -2.0092 -0.9665 -0.0770
13340TIP3   OH261510   2.516   3.741   4.964  0.3081  0.2078  0.0206
13340TIP3    H161511   2.566   3.751   5.045  1.0319 -0.9211 -0.2650
13340TIP3    H261512   2.425   3.728   4.992  0.5656 -0.2226  0.6503
13341TIP3   OH261513   2.722   2.901   1.282 -0.1855  0.3402  0.3507
13341TIP3    H161514   2.651   2.905   1.217  1.0048 -0.4708 -1.0535
13341TIP3    H261515   2.729   2.808   1.304 -1.6943  0.7615  3.0108
13342TIP3   OH261516   4.749   1.310   4.441 -0.1654 -0.0643  0.0683
13342TIP3    H161517   4.672   1.319   4.497 -0.3933  0.0644 -0.2619
13342TIP3    H261518   4.781   1.399   4.429  0.2530 -0.1557  0.5077
13343TIP3   OH261519   1.088   3.609  14.319 -0.0297  0.0531  0.4551
13343TIP3    H161520   1.040   3.546  14.374  0.9495 -0.5581  0.6383
13343TIP3    H261521   1.046   3.603  14.233 -1.7442  1.2031  1.1602
13344TIP3   OH261522   5.110   3.744   2.081 -0.0427 -0.0974 -0.8373
13344TIP3    H161523   5.045   3.680   2.050 -2.0945  0.4758  1.8106
13344TIP3    H261524   5.061   3.827   2.085  1.2674  0.6648 -0.0190
13345TIP3   OH261525   2.738   6.446  14.205 -0.2625  0.0343 -0.2240
13345TIP3    H161526   2.645   6.464  14.193  0.0457  0.1185 -3.1800
13345TIP3    H261527   2.748   6.353  14.183  0.2511 -0.1921  0.9019
13346TIP3   OH261528   6.146   3.896   3.712 -0.4296 -0.4116 -0.0171
13346TIP3    H161529   6.233   3.857   3.703 -0.4296 -0.9138  1.7978
13346TIP3    H261530   6.138   3.917   3.805 -1.7997  0.7331 -0.3451
13347TIP3   OH261531   1.789   5.531   3.882  0.2695 -0.4204  0.4564
13347TIP3    H161532   1.731   5.465   3.920  1.1040 -0.3010  2.0253
13347TIP3    H261533   1.779   5.520   3.787 -3.2747  0.4632  0.5812
13348TIP3   OH261534   6.573   5.594  13.890  0.5838 -0.4695 -0.1066
13348TIP3    H161535   6.584   5.642  13.972  1.7291  0.4826 -0.7965
13348TIP3    H261536   6.491   5.628  13.853  0.4693 -0.3416  0.2616
13349TIP3   OH261537   3.811   6.125  12.275 -0.7413  0.0222 -0.7426
13349TIP3    H161538   3.901   6.156  12.266 -0.8031  0.0905 -1.1253
13349TIP3    H261539   3.768   6.190  12.331 -0.4960 -0.1266 -0.3785
13350TIP3   OH261540   3.844   1.532   3.457  0.3414  0.1872  0.1651
13350TIP3    H161541   3.772   1.544   3.518 -0.3668 -3.2846  0.2485
13350TIP3    H261542   3.918   1.579   3.495 -0.4542 -0.6927  2.9763
13351TIP3   OH261543   0.892   0.686  11.992  0.1682 -0.2899  0.2147
13351TIP3    H161544   0.907   0.650  11.905 -0.4790  0.1070 -0.0632
13351TIP3    H261545   0.817   0.637  12.026 -0.5000  0.5395 -0.0282
13352TIP3   OH261546   5.745   4.332  12.438  0.0680  0.2129  0.1252
13352TIP3    H161547   5.810   4.281  12.390 -0.0618  0.9104 -0.8277
13352TIP3    H261548   5.665   4.281  12.432  0.1936  0.0213  0.0848
13353TIP3   OH261549   6.179   3.333  11.690  0.2434 -0.3230 -0.4403
13353TIP3    H161550   6.164   3.239  11.691  0.2099 -0.3128  0.7397
13353TIP3    H261551   6.274   3.343  11.681  0.2608 -0.4665 -0.4106
13354TIP3   OH261552   4.888   2.706  15.637  0.2361 -0.4697  0.5014
13354TIP3    H161553   4.946   2.719  15.712  1.1181 -0.1150 -0.2310
13354TIP3    H261554   4.939   2.735  15.561 -0.3132 -1.6680 -0.3555
13355TIP3   OH261555   0.123   2.683   5.217 -0.4138  0.6076  0.0279
13355TIP3    H161556   0.088   2.768   5.245  1.0136  0.9832  0.7470
13355TIP3    H261557   0.215   2.700   5.197  0.2462 -1.0330  1.4265
13356TIP3   OH261558   5.131   3.319   3.997  0.0900  0.4274  0.6135
13356TIP3    H161559   5.142   3.336   3.903 -0.3109 -0.7666  0.3293
13356TIP3    H261560   5.212   3.351   4.037  0.4837  0.4712 -0.2039
13357TIP3   OH261561   5.977   1.075   3.737 -0.0391 -0.7579 -0.0463
13357TIP3    H161562   5.977   0.980   3.734  1.7953 -0.7820 -0.0352
13357TIP3    H261563   6.058   1.101   3.693 -0.2492  0.7819  0.4116
13358TIP3   OH261564   5.151   4.288  12.907 -0.7164  0.1555 -0.0351
13358TIP3    H161565   5.113   4.202  12.888  0.4162 -0.1076 -1.2260
13358TIP3    H261566   5.100   4.348  12.853 -0.3581 -0.0195 -0.5824
13359TIP3   OH261567   2.809   3.704  12.519 -0.4959  0.6033  0.0115
13359TIP3    H161568   2.868   3.774  12.547 -0.0332  0.7010 -1.1457
13359TIP3    H261569   2.764   3.740  12.442  1.4264 -1.1180 -2.0614
13360TIP3   OH261570   0.266   2.485  17.276 -0.6732 -0.3729 -0.1954
13360TIP3    H161571   0.332   2.546  17.244 -0.2762  0.2867  1.7441
13360TIP3    H261572   0.219   2.456  17.198  0.6965  0.5715 -1.4038
13361TIP3   OH261573   4.464   1.523   2.561  0.3221  0.5153  0.0733
13361TIP3    H161574   4.550   1.564   2.568  0.1763  0.5998  2.5383
13361TIP3    H261575   4.403   1.590   2.592 -0.5625  0.2213 -0.9829
13362TIP3   OH261576   4.645   0.774   5.497  0.1301  0.1433 -0.3040
13362TIP3    H161577   4.588   0.743   5.426  1.1931  0.5626 -1.3852
13362TIP3    H261578   4.584   0.800   5.567 -1.1702  2.2615 -2.0577
13363TIP3   OH261579   4.020   5.615  12.278  0.3010  0.5699 -0.3588
13363TIP3    H161580   3.988   5.667  12.204  1.3364  0.5549 -0.8296
13363TIP3    H261581   4.059   5.679  12.337  0.6179  0.4508 -0.4347
13364TIP3   OH261582   1.171   6.561  13.165  0.1350  0.0463  0.0738
13364TIP3    H161583   1.201   6.499  13.098  0.6791 -0.1499  0.4895
13364TIP3    H261584   1.219   6.536  13.244  0.3250  0.9667  0.2603
13365TIP3   OH261585   0.352   5.547   1.162  0.5335 -0.0118  0.2548
13365TIP3    H161586   0.369   5.518   1.252  3.5292 -0.0707 -0.1993
13365TIP3    H261587   0.398   5.483   1.107 -0.7884  0.3213 -1.3075
13366TIP3   OH261588   6.474   5.393   2.090 -0.3132  0.6642  0.2756
13366TIP3    H161589   6.557   5.409   2.044 -0.2018 -1.8629 -0.5277
13366TIP3    H261590   6.412   5.452   2.047  0.4843  0.5877 -1.0473
13367TIP3   OH261591   4.927   5.393  15.410  0.8037  0.3194 -0.3265
13367TIP3    H161592   4.903   5.348  15.328 -0.2172  0.2828 -0.0148
13367TIP3    H261593   4.982   5.329  15.456  1.4836  0.3821 -1.0237
13368TIP3   OH261594   0.851   0.028  13.774  0.3788 -0.0536 -0.1662
13368TIP3    H161595   0.788   0.024  13.846  0.1087  0.6476 -0.3539
13368TIP3    H261596   0.930   0.066  13.813 -0.3725  2.1137 -0.6214
13369TIP3   OH261597   5.656   3.284   3.084  0.0429 -0.3095  0.6902
13369TIP3    H161598   5.599   3.322   3.151 -0.7269 -1.9320  1.0044
13369TIP3    H261599   5.668   3.193   3.111 -0.4119 -1.0694 -1.4486
13370TIP3   OH261600   1.174   3.315   3.899  0.3644 -0.2346 -0.1614
13370TIP3    H161601   1.110   3.310   3.828 -1.3954  1.5767  1.2050
13370TIP3    H261602   1.176   3.407   3.924  0.5845 -0.8523  2.4041
13371TIP3   OH261603   5.087   5.381  14.269  0.4155 -0.0208  0.0460
13371TIP3    H161604   5.043   5.309  14.314 -0.1775  0.8314  0.8666
13371TIP3    H261605   5.140   5.339  14.202 -2.4255 -1.0580 -1.7128
13372TIP3   OH261606   4.360   2.094  12.497  0.3649 -0.3674  0.1352
13372TIP3    H161607   4.414   2.021  12.467  0.7198 -0.6192  1.3349
13372TIP3    H261608   4.306   2.057  12.567 -0.8017  0.0819 -0.4960
13373TIP3   OH261609   0.561   1.130  14.257 -0.0033 -0.4504  0.7563
13373TIP3    H161610   0.644   1.166  14.289  1.2774 -1.5468 -1.1049
13373TIP3    H261611   0.535   1.066  14.324  1.8428 -1.6673  0.3920
13374TIP3   OH261612   6.208   0.687  16.504 -0.4593  0.1435 -0.0735
13374TIP3    H161613   6.263   0.609  16.500  1.1507  1.2549 -0.4654
13374TIP3    H261614   6.207   0.720  16.414 -0.8689  0.7443  0.1427
13375TIP3   OH261615   5.825   0.460  11.056 -0.1403 -0.2959 -0.4356
13375TIP3    H161616   5.765   0.386  11.049  0.2119 -0.5344 -0.9771
13375TIP3    H261617   5.801   0.518  10.984 -0.8381  0.4414  0.3670
13376TIP3   OH261618   6.352   4.990   0.708 -0.2807  0.2910  0.1528
13376TIP3    H161619   6.396   4.942   0.638 -1.6705  1.7925 -1.8282
13376TIP3    H261620   6.417   5.054   0.738 -0.6560  1.7642 -2.0003
13377TIP3   OH261621   2.431   1.898   2.793  0.0684  0.0304 -0.4132
13377TIP3    H161622   2.350   1.847   2.786 -0.3794  0.6844 -0.0786
13377TIP3    H261623   2.469   1.893   2.705  0.4573 -1.5529 -0.1747
13378TIP3   OH261624   1.743   3.862   4.100  0.2625 -0.6992  0.4984
13378TIP3    H161625   1.700   3.821   4.025  1.2457 -0.4934 -0.1983
13378TIP3    H261626   1.683   3.931   4.128 -0.3345 -1.0934  0.2210
13379TIP3   OH261627   4.640   2.634   3.593  0.0247  0.3723  0.1296
13379TIP3    H161628   4.666   2.687   3.669 -1.6374  1.6425 -0.1396
13379TIP3    H261629   4.544   2.634   3.596 -0.0501 -0.3282 -1.4631
13380TIP3   OH261630   5.083   5.507   2.981  0.3695 -0.4681  0.0465
13380TIP3    H161631   5.129   5.509   3.065 -1.0391 -1.0546  0.8595
13380TIP3    H261632   5.074   5.599   2.956  2.2434 -0.3351 -0.3241
13381TIP3   OH261633   1.548   3.186   4.131  0.2089 -0.0936  0.0665
13381TIP3    H161634   1.566   3.224   4.217 -2.6985  1.4576  0.1136
13381TIP3    H261635   1.477   3.124   4.146  0.4484 -0.6703 -1.0554
13382TIP3   OH261636   6.081   3.218   5.898  0.7676 -0.2524 -0.3471
13382TIP3    H161637   6.100   3.132   5.860  2.0394 -0.6314  1.0577
13382TIP3    H261638   6.155   3.235   5.956 -1.7268 -0.4377  3.2326
13383TIP3   OH261639   2.924   5.181   2.722  0.1913  0.4060 -0.1952
13383TIP3    H161640   2.928   5.243   2.649  1.0653  1.7363  0.9363
13383TIP3    H261641   3.016   5.155   2.736  0.2393  1.2702  1.3136
13384TIP3   OH261642   1.784   6.688   5.704 -0.3098 -0.2594  0.5518
13384TIP3    H161643   1.869   6.649   5.723 -0.9768 -1.8149  0.4411
13384TIP3    H261644   1.781   6.695   5.609 -0.1645  0.1298  0.5752
13385TIP3   OH261645   3.261   6.494  13.897  0.0216  0.4890 -0.6019
13385TIP3    H161646   3.252   6.425  13.831  0.9580 -1.5567  1.2515
13385TIP3    H261647   3.354   6.515  13.897  0.1038  0.1628  0.3127
13386TIP3   OH261648   0.587   0.396   1.373 -0.9396 -0.5243  0.3107
13386TIP3    H161649   0.532   0.429   1.302  1.2040 -1.3694 -1.9021
13386TIP3    H261650   0.604   0.473   1.428 -1.0675  0.6333 -1.2167
13387TIP3   OH261651   2.390   2.928   3.673  0.2300 -0.5297  0.1278
13387TIP3    H161652   2.475   2.952   3.710  0.3924 -0.0670 -0.5413
13387TIP3    H261653   2.338   2.900   3.749  1.0045 -0.8995  0.5263
13388TIP3   OH261654   2.356   1.379  14.415 -0.0255 -0.2455  0.3414
13388TIP3    H161655   2.285   1.432  14.450  0.1378  0.2962 -0.1290
13388TIP3    H261656   2.365   1.307  14.477 -1.7592 -0.9883 -0.2076
13389TIP3   OH261657   4.224   1.699  13.870  0.8538 -0.8353 -0.0323
13389TIP3    H161658   4.195   1.789  13.884 -2.0652 -1.3315 -2.1139
13389TIP3    H261659   4.193   1.651  13.947  0.8625 -0.3888  0.2524
13390TIP3   OH261660   6.235   0.011   1.487 -0.5980  0.3851  0.1600
13390TIP3    H161661   6.290  -0.003   1.410 -1.0113 -0.2566 -0.0264
13390TIP3    H261662   6.295   0.002   1.561 -0.1874  1.0652 -0.0809
13391TIP3   OH261663   2.437   4.372   5.480  0.1912 -0.4677 -0.0772
13391TIP3    H161664   2.486   4.293   5.505  0.3359 -0.5465 -0.6062
13391TIP3    H261665   2.467   4.392   5.391 -0.2671 -0.1434 -0.1614
13392TIP3   OH261666   3.869   2.318   2.244  0.6362 -0.8236  0.6995
13392TIP3    H161667   3.833   2.325   2.156 -1.1286 -0.1979  1.4208
13392TIP3    H261668   3.944   2.377   2.244 -0.0330  0.0569 -0.0720
13393TIP3   OH261669   6.543   4.630   4.178  0.5213 -0.1150 -0.6728
13393TIP3    H161670   6.623   4.683   4.172  0.8987 -0.7092 -1.0054
13393TIP3    H261671   6.555   4.578   4.257 -0.3279  1.0460  0.2555
13394TIP3   OH261672   0.967   5.482  16.874 -0.1592 -0.6113 -0.0021
13394TIP3    H161673   1.060   5.475  16.896 -0.0817  0.6489  0.1661
13394TIP3    H261674   0.967   5.497  16.779 -0.1732 -0.4077  0.0291
13395TIP3   OH261675   6.168   3.495   3.520  0.0680  0.3274  0.0840
13395TIP3    H161676   6.132   3.581   3.539  0.6142  0.5677  0.0272
13395TIP3    H261677   6.225   3.508   3.445  0.5943  0.0240  0.4235
13396TIP3   OH261678   5.027   6.502   3.977 -0.2151 -0.6079 -0.3192
13396TIP3    H161679   4.944   6.533   3.941 -1.6975 -0.5439  2.7691
13396TIP3    H261680   5.075   6.582   3.999 -0.5827 -0.5802  0.4183
13397TIP3   OH261681   5.362   1.335   4.923  0.3150  0.5957  0.5736
13397TIP3    H161682   5.347   1.414   4.872 -0.1700 -0.5101 -1.0705
13397TIP3    H261683   5.306   1.269   4.883  0.6152 -0.5783  1.9769
13398TIP3   OH261684   0.002   1.540   2.011  0.0143 -0.1924 -0.3072
13398TIP3    H161685   0.031   1.455   1.977  0.3020 -0.3529  0.3247
13398TIP3    H261686   0.071   1.565   2.073 -0.3359  0.2546 -0.0984
13399TIP3   OH261687   5.456   3.407   5.622  0.5677 -0.3501  0.3668
13399TIP3    H161688   5.389   3.469   5.595  0.2398 -0.6973  0.3750
13399TIP3    H261689   5.433   3.385   5.713 -0.0571 -1.4436 -0.0402
13400TIP3   OH261690   1.814   5.925  13.469  0.0321 -0.2360 -0.2683
13400TIP3    H161691   1.728   5.915  13.511  0.0860 -1.0175 -0.3260
13400TIP3    H261692   1.876   5.910  13.540  0.1193 -0.6539 -0.4277
13401TIP3   OH261693   2.508   1.481   0.262  0.4875 -0.1628 -0.7247
13401TIP3    H161694   2.547   1.395   0.250  2.6162  0.6350 -0.0931
13401TIP3    H261695   2.459   1.474   0.344 -0.2144 -1.0226 -1.2039
13402TIP3   OH261696   4.192   5.043   2.265 -0.1066  0.5028 -0.0385
13402TIP3    H161697   4.280   5.007   2.270 -0.0040  0.9227  1.6059
13402TIP3    H261698   4.203   5.137   2.277 -0.7647  0.5739  0.0658
13403TIP3   OH261699   4.229   0.403  10.524 -0.0688  0.0210 -0.3154
13403TIP3    H161700   4.265   0.315  10.535 -1.4433 -0.3401  1.9414
13403TIP3    H261701   4.149   0.403  10.576 -1.1064  2.0746 -1.7451
13404TIP3   OH261702   1.230   1.008  17.155  0.4141  0.2896  0.6227
13404TIP3    H161703   1.246   1.031  17.064  1.7830  0.4876  0.8837
13404TIP3    H261704   1.151   0.955  17.153 -2.1443  3.7973 -0.1741
13405TIP3   OH261705   1.770   5.449  12.782 -0.2975 -0.2690  0.9013
13405TIP3    H161706   1.846   5.391  12.780  0.4814  0.7188  1.1736
13405TIP3    H261707   1.791   5.513  12.851 -0.5646  1.0909 -0.2418
13406TIP3   OH261708   2.680   1.411  13.260  0.2656 -0.3225 -0.0474
13406TIP3    H161709   2.708   1.345  13.196  0.1440 -1.1956  0.7731
13406TIP3    H261710   2.644   1.482  13.208 -0.2366 -1.2126 -0.9317
13407TIP3   OH261711   4.161   2.831  15.290 -1.0017 -0.2077 -0.3288
13407TIP3    H161712   4.077   2.876  15.296 -0.1215  1.5218 -0.2826
13407TIP3    H261713   4.153   2.774  15.214 -1.1331  2.4118 -2.4124
13408TIP3   OH261714   6.540   1.273  12.120  0.0004 -0.4682 -0.0088
13408TIP3    H161715   6.582   1.241  12.200  0.1031  0.0236  0.1363
13408TIP3    H261716   6.495   1.197  12.085  1.9798 -1.3421 -0.8083
13409TIP3   OH261717   5.729   3.237  15.450  0.2661 -0.0008 -0.0472
13409TIP3    H161718   5.690   3.315  15.412  1.2157  0.9486  0.8675
13409TIP3    H261719   5.675   3.217  15.526 -0.1717 -0.4561 -0.4645
13410TIP3   OH261720   3.031   2.113  17.147  0.2883  0.1918 -0.0449
13410TIP3    H161721   2.962   2.048  17.159 -0.8076  1.2919 -0.1367
13410TIP3    H261722   2.989   2.197  17.168  1.4938  0.9339 -0.4708
13411TIP3   OH261723   0.124   1.368   2.351 -0.0646  0.4211 -0.2770
13411TIP3    H161724   0.097   1.277   2.356  1.7608 -0.1734 -0.2608
13411TIP3    H261725   0.171   1.375   2.268  1.1314  0.9258  0.4099
13412TIP3   OH261726   3.484   1.264  14.473  0.0697 -0.1351  0.5958
13412TIP3    H161727   3.392   1.258  14.449  0.4535 -1.8057 -0.6575
13412TIP3    H261728   3.515   1.174  14.471  1.2727  0.1302  3.0690
13413TIP3   OH261729   5.940   2.272  16.463  0.2916  0.2544 -0.0208
13413TIP3    H161730   5.869   2.329  16.433  0.7192  0.6013 -0.3828
13413TIP3    H261731   5.908   2.236  16.546 -0.2429  0.5290 -0.1023
13414TIP3   OH261732   1.419   3.489   2.030  0.4096  0.2962 -0.5377
13414TIP3    H161733   1.504   3.465   2.067  0.4475 -0.7369 -1.2440
13414TIP3    H261734   1.440   3.521   1.942  0.1578  0.9396 -0.3620
13415TIP3   OH261735   3.197   1.171  11.238 -0.2434 -0.4514  0.7752
13415TIP3    H161736   3.204   1.202  11.148 -0.1715 -1.4176  0.4290
13415TIP3    H261737   3.217   1.247  11.292  2.0450 -0.4074 -0.0474
13416TIP3   OH261738   6.347   5.580   0.195  0.4141  0.3372 -0.1795
13416TIP3    H161739   6.402   5.652   0.164  0.8164  1.2367  2.3817
13416TIP3    H261740   6.326   5.530   0.117  0.8758  2.7221 -1.9356
13417TIP3   OH261741   4.947   6.499   3.321 -0.1306  0.0025 -0.3814
13417TIP3    H161742   4.853   6.505   3.308 -0.4011 -1.6942  0.5402
13417TIP3    H261743   4.965   6.405   3.324  2.2007  0.0398 -4.6448
13418TIP3   OH261744   5.059   2.482  10.719  0.2622  0.0549 -0.3228
13418TIP3    H161745   5.140   2.431  10.719  0.3785  0.2086 -1.6288
13418TIP3    H261746   5.087   2.573  10.704 -0.1429  0.0920 -0.9114
13419TIP3   OH261747   2.334   4.570   2.555  0.2789  0.0508 -0.5093
13419TIP3    H161748   2.258   4.624   2.532 -0.0245 -0.2001 -0.1194
13419TIP3    H261749   2.389   4.571   2.476 -0.9448 -1.1529 -1.4259
13420TIP3   OH261750   0.255   5.144  13.286 -0.0151  0.3404  0.0629
13420TIP3    H161751   0.349   5.160  13.300 -0.1836  1.6346 -0.1742
13420TIP3    H261752   0.230   5.086  13.358  0.5444  1.5847  1.3107
13421TIP3   OH261753   1.442   2.100   5.871  0.0606  0.3051  0.0448
13421TIP3    H161754   1.448   2.109   5.966  0.6353 -0.2089  0.0693
13421TIP3    H261755   1.499   2.168   5.837  0.4444  0.0161  0.0956
13422TIP3   OH261756   6.258   5.209  15.125  0.2451 -0.1917  0.0298
13422TIP3    H161757   6.204   5.285  15.147 -1.2038 -1.1851  0.0827
13422TIP3    H261758   6.233   5.187  15.035 -0.4454 -1.4386  0.4928
13423TIP3   OH261759   4.051   4.563   4.423 -0.1076 -0.0561 -0.0901
13423TIP3    H161760   4.101   4.485   4.446 -0.0675 -0.2357 -0.7567
13423TIP3    H261761   3.963   4.531   4.404  0.0313 -0.0151 -0.8388
13424TIP3   OH261762   3.104   0.249  15.083  0.0209  0.2891 -0.2765
13424TIP3    H161763   3.015   0.250  15.117 -0.1891 -1.0884 -0.7209
13424TIP3    H261764   3.094   0.256  14.988  0.3483 -0.3356 -0.3635
13425TIP3   OH261765   0.252   2.789  15.647 -0.5888  0.6439 -0.1434
13425TIP3    H161766   0.270   2.883  15.644 -0.9286  0.7751  1.2851
13425TIP3    H261767   0.204   2.771  15.566  1.7998  1.1613 -1.7831
13426TIP3   OH261768   3.431   3.333   1.680  0.4187 -0.0348 -0.3618
13426TIP3    H161769   3.482   3.337   1.760 -1.2661 -0.8568  0.8168
13426TIP3    H261770   3.357   3.392   1.694 -0.6141 -1.1745 -0.7326
13427TIP3   OH261771   1.284   1.151  14.415  0.1463  0.5652  0.0071
13427TIP3    H161772   1.229   1.186  14.345 -0.0960  2.8246  1.2394
13427TIP3    H261773   1.235   1.169  14.495  1.2256 -0.3473  0.8951
13428TIP3   OH261774   3.239   2.448  14.077  0.1882  0.9234  0.1130
13428TIP3    H161775   3.246   2.386  14.151 -0.8430 -0.3577 -0.8174
13428TIP3    H261776   3.193   2.523  14.114 -0.3481  0.2894  0.7805
13429TIP3   OH261777   3.776   4.805  11.228 -0.0259 -0.1552  0.2012
13429TIP3    H161778   3.791   4.759  11.145  0.5556 -0.9510  0.7274
13429TIP3    H261779   3.705   4.756  11.270  0.0398 -0.0791  0.4039
13430TIP3   OH261780   0.826   4.393  10.727  0.4544 -0.3260 -0.8734
13430TIP3    H161781   0.790   4.309  10.757 -0.8841  0.4466 -0.2469
13430TIP3    H261782   0.916   4.372  10.702  1.3672 -1.2971  2.6019
13431TIP3   OH261783   0.954   0.797  12.251 -0.3780  0.0485 -0.0882
13431TIP3    H161784   0.931   0.884  12.218  0.1982 -0.0283 -0.7222
13431TIP3    H261785   0.928   0.738  12.180  1.4093 -0.0734 -0.7034
13432TIP3   OH261786   5.379   1.624  12.672 -0.4080 -0.3129  0.2499
13432TIP3    H161787   5.388   1.607  12.578 -0.4448 -1.3830  0.4300
13432TIP3    H261788   5.284   1.618  12.687 -0.2904 -1.4147  0.5801
13433TIP3   OH261789   0.444   0.578  15.009 -0.0383 -0.0143  0.6131
13433TIP3    H161790   0.440   0.500  14.955  0.3573 -0.8006  1.6880
13433TIP3    H261791   0.530   0.616  14.990 -1.4536  2.0385 -2.3725
13434TIP3   OH261792   1.991   2.292   1.881  0.2964 -0.8725 -1.0019
13434TIP3    H161793   1.989   2.227   1.810 -0.1189 -0.6711 -1.1734
13434TIP3    H261794   1.942   2.366   1.847  1.4033 -0.1649 -1.1038
13435TIP3   OH261795   1.512   0.994  12.788 -0.2595 -0.3947  0.2100
13435TIP3    H161796   1.463   1.066  12.827 -1.0428  1.1725 -3.2261
13435TIP3    H261797   1.597   0.996  12.832 -0.5151  2.1880  0.7492
13436TIP3   OH261798   1.771   5.485  16.076  0.6870  0.4479 -0.2117
13436TIP3    H161799   1.808   5.560  16.123  2.5266  0.9400 -2.2726
13436TIP3    H261800   1.818   5.409  16.111  1.0844  0.6484 -0.3049
13437TIP3   OH261801   1.303   5.364  15.739 -0.0762 -0.1796 -0.5493
13437TIP3    H161802   1.285   5.289  15.795 -0.8234 -1.7069 -2.7179
13437TIP3    H261803   1.390   5.394  15.767  0.2444 -1.8427  0.3736
13438TIP3   OH261804   2.324   2.133  14.205 -0.0409  0.2258  0.5793
13438TIP3    H161805   2.267   2.172  14.138 -0.4554 -0.5082  0.4946
13438TIP3    H261806   2.275   2.143  14.286 -0.6712 -1.1011  0.3942
13439TIP3   OH261807   1.862   2.167  14.795 -0.3306 -0.2715 -0.3424
13439TIP3    H161808   1.888   2.153  14.704 -1.9728  0.5282 -0.9829
13439TIP3    H261809   1.792   2.233  14.789  0.7854  1.1921  1.6523
13440TIP3   OH261810   2.503   3.718   4.483  0.2444 -0.4472 -0.1552
13440TIP3    H161811   2.574   3.781   4.480 -1.3576  1.5480  0.7530
13440TIP3    H261812   2.511   3.676   4.569 -0.0592  0.3207  0.2632
13441TIP3   OH261813   2.873   3.200  13.366 -0.6171 -0.2622 -0.4318
13441TIP3    H161814   2.787   3.197  13.324 -1.7688 -0.3546  1.8094
13441TIP3    H261815   2.928   3.145  13.310 -1.7899  0.3710 -2.3159
13442TIP3   OH261816   5.836   6.191   3.451 -0.0685  0.3295 -0.6457
13442TIP3    H161817   5.865   6.122   3.392  2.4253  1.6782 -1.1531
13442TIP3    H261818   5.751   6.218   3.417 -0.8133 -2.0234 -0.7893
13443TIP3   OH261819   0.982   1.959   4.905  0.1069 -0.2979 -0.6151
13443TIP3    H161820   1.026   1.885   4.948 -1.7670 -1.1796 -0.1014
13443TIP3    H261821   0.968   2.022   4.975 -0.7151 -0.6503 -0.4537
13444TIP3   OH261822   4.532   4.898   0.111  0.3765 -0.5033 -0.1422
13444TIP3    H161823   4.459   4.878   0.052  0.3903 -0.8208 -0.0578
13444TIP3    H261824   4.490   4.930   0.191  0.3470 -0.3151 -0.2318
13445TIP3   OH261825   5.259   2.127   6.312 -0.2249  0.0648  0.8158
13445TIP3    H161826   5.300   2.118   6.226  0.4152  0.6384  1.0596
13445TIP3    H261827   5.273   2.042   6.354 -0.8679 -0.3505  0.2269
13446TIP3   OH261828   5.132   4.123  13.505 -0.5668 -0.1315 -0.3109
13446TIP3    H161829   5.085   4.139  13.587 -0.3936 -1.7402  0.1521
13446TIP3    H261830   5.224   4.137  13.527 -0.4738 -1.0429 -0.0732
13447TIP3   OH261831   5.687   2.059  15.154  0.2692  0.1169 -0.3581
13447TIP3    H161832   5.599   2.049  15.191  0.4035  0.0637 -0.0542
13447TIP3    H261833   5.672   2.068  15.060  0.0550 -1.7846 -0.5411
13448TIP3   OH261834   5.415   5.451  11.766  0.0264 -0.3629 -0.2427
13448TIP3    H161835   5.383   5.377  11.716 -1.4357  0.1889 -0.1740
13448TIP3    H261836   5.479   5.414  11.826 -1.7739 -1.8519  0.8646
13449TIP3   OH261837   6.339   4.535  15.490  0.5202 -0.1484 -0.0769
13449TIP3    H161838   6.423   4.521  15.535  3.2055  0.9314 -4.1922
13449TIP3    H261839   6.293   4.598  15.546  3.0394  0.2799  1.7331
13450TIP3   OH261840   3.341   3.834   0.889  0.1116 -0.7905 -0.1771
13450TIP3    H161841   3.417   3.776   0.892 -0.2727 -1.2877  0.2033
13450TIP3    H261842   3.319   3.840   0.797  0.8542 -0.3223 -0.3271
13451TIP3   OH261843   3.245   5.001   1.036 -0.0979  0.6214  0.6208
13451TIP3    H161844   3.215   5.054   1.109  0.3696  2.3631 -0.3842
13451TIP3    H261845   3.172   4.943   1.016 -0.8315  1.2487  1.4292
13452TIP3   OH261846   1.574   1.158  12.507  0.1709 -0.8128 -0.5744
13452TIP3    H161847   1.583   1.093  12.576  1.2123  0.0642  0.1393
13452TIP3    H261848   1.482   1.151  12.479 -0.2564 -1.1932  0.8639
13453TIP3   OH261849   6.210   2.968   1.641  0.1693  0.4055  0.2283
13453TIP3    H161850   6.131   2.945   1.592 -0.3998  1.4211  0.6486
13453TIP3    H261851   6.226   3.060   1.619  1.5309  0.0958 -0.2387
13454TIP3   OH261852   4.872   1.282   3.881  0.2744  0.3986 -0.2267
13454TIP3    H161853   4.938   1.298   3.948  1.1944 -3.5997  0.0675
13454TIP3    H261854   4.788   1.303   3.922  1.0315  0.7728  1.1503
13455TIP3   OH261855   6.697   3.875  14.051 -0.2845 -0.5420 -0.0818
13455TIP3    H161856   6.724   3.784  14.040  0.3400 -0.4006  0.2206
13455TIP3    H261857   6.615   3.870  14.100 -1.4854 -1.0354 -2.0536
13456TIP3   OH261858   1.142   2.132   0.497 -0.0269 -0.6295  0.5716
13456TIP3    H161859   1.120   2.221   0.471  2.2653 -0.7503 -2.3249
13456TIP3    H261860   1.223   2.141   0.548  2.0836 -1.0846 -2.4320
13457TIP3   OH261861   6.685   4.166  13.672  0.2171  0.3586 -0.8213
13457TIP3    H161862   6.680   4.140  13.764  0.6464  0.2793 -0.8220
13457TIP3    H261863   6.776   4.191  13.658 -0.3887  3.1475 -0.4701
13458TIP3   OH261864   5.781   2.104   1.378  0.4261  0.8776 -0.2118
13458TIP3    H161865   5.791   2.160   1.301  0.9595  0.2936 -0.5710
13458TIP3    H261866   5.863   2.115   1.427  1.7976 -1.7393 -1.7271
13459TIP3   OH261867   6.420   5.779   1.534  0.0199 -0.3446  0.5196
13459TIP3    H161868   6.436   5.742   1.447  0.4079  0.5762  0.1816
13459TIP3    H261869   6.508   5.794   1.569 -0.1329 -0.8889  1.1629
13460TIP3   OH261870   1.001   5.519   5.440 -0.2614 -0.3547 -0.0007
13460TIP3    H161871   0.937   5.456   5.472  1.4803 -2.0110  0.4431
13460TIP3    H261872   1.005   5.504   5.345  0.4226 -1.2260  0.1543
13461TIP3   OH261873   2.914   0.752  16.832 -0.2460  0.3081  0.2766
13461TIP3    H161874   2.930   0.670  16.877  0.8882  0.4783  0.2232
13461TIP3    H261875   2.999   0.796  16.832 -0.0514  0.1096 -2.4079
13462TIP3   OH261876   5.340   2.327  15.219  0.6256  0.2982 -0.0905
13462TIP3    H161877   5.389   2.360  15.294  0.3746 -0.9266  0.6477
13462TIP3    H261878   5.362   2.387  15.147  0.7673  1.5759  0.9766
13463TIP3   OH261879   0.757   5.035  12.749 -0.4293  0.0991  0.1806
13463TIP3    H161880   0.725   4.946  12.734 -2.4359  0.6180  1.0787
13463TIP3    H261881   0.735   5.083  12.669  1.7254 -0.4184 -0.8035
13464TIP3   OH261882   5.003   1.101   5.500 -0.4724  0.5650 -0.6016
13464TIP3    H161883   4.995   1.006   5.502 -0.5279  0.5758  0.3905
13464TIP3    H261884   4.916   1.132   5.527 -1.1954  0.9612 -3.1481
13465TIP3   OH261885   2.775   1.158   3.266 -0.0435  0.4409  0.1790
13465TIP3    H161886   2.803   1.100   3.194  1.0616  0.1881  0.7922
13465TIP3    H261887   2.856   1.189   3.304 -0.5525 -0.7757  2.4110
13466TIP3   OH261888   0.247   3.880  17.278  0.2406  0.0554 -0.4623
13466TIP3    H161889   0.244   3.971  17.307 -0.3219 -0.5434  1.4813
13466TIP3    H261890   0.156   3.858  17.259  0.4233 -0.0029 -1.2847
13467TIP3   OH261891   4.579   2.082  11.496  0.5655  0.3951  0.0880
13467TIP3    H161892   4.517   2.020  11.535 -0.4039  1.1043 -0.2983
13467TIP3    H261893   4.609   2.136  11.568  0.2846  0.4309  0.1772
13468TIP3   OH261894   2.875   6.604   1.652 -0.0275  0.2987 -0.6939
13468TIP3    H161895   2.872   6.689   1.696  1.2291 -0.0002  0.0209
13468TIP3    H261896   2.785   6.589   1.623 -0.9332  0.5769  1.6958
13469TIP3   OH261897   1.179   5.035   5.485 -0.0121  0.4059 -0.0150
13469TIP3    H161898   1.193   5.096   5.559 -0.3612  0.6941 -0.1832
13469TIP3    H261899   1.134   5.088   5.420 -0.5198 -0.1031 -0.0770
13470TIP3   OH261900   3.349   2.149  12.758 -0.7877 -0.5176 -0.1620
13470TIP3    H161901   3.341   2.244  12.760  0.6934 -0.3861  1.5045
13470TIP3    H261902   3.261   2.117  12.778 -1.5778  0.4396 -1.9129
13471TIP3   OH261903   3.647   3.496  14.569  0.0832  0.0649 -0.3829
13471TIP3    H161904   3.594   3.575  14.554 -0.0077  0.1469  0.3596
13471TIP3    H261905   3.651   3.487  14.664 -0.6181 -1.3152 -0.4550
13472TIP3   OH261906   6.383   5.654   3.173 -0.1457  0.7047  0.4393
13472TIP3    H161907   6.400   5.686   3.261  1.1029  1.8363 -0.1865
13472TIP3    H261908   6.428   5.715   3.115  1.2031 -1.4029 -0.8936
13473TIP3   OH261909   3.701   5.563   1.607 -0.1218  0.0426  0.3568
13473TIP3    H161910   3.733   5.485   1.561 -3.2877 -0.9105 -0.4405
13473TIP3    H261911   3.609   5.569   1.584 -0.2265  3.5579  1.1459
13474TIP3   OH261912   2.362   5.222  15.599  0.1709 -0.0551  0.4985
13474TIP3    H161913   2.377   5.312  15.571 -1.7499  0.9102  2.2816
13474TIP3    H261914   2.445   5.193  15.635  0.7058  1.1581  0.2808
13475TIP3   OH261915   6.285   1.286   5.383  0.4767 -0.5771  0.2754
13475TIP3    H161916   6.355   1.221   5.380 -0.8909 -2.2146  1.7155
13475TIP3    H261917   6.207   1.236   5.408 -1.4151  1.0193 -2.0022
13476TIP3   OH261918   4.253   3.014   0.410 -0.0882 -0.4489 -0.1213
13476TIP3    H161919   4.161   2.999   0.432  0.2685 -0.6911  1.2963
13476TIP3    H261920   4.277   3.094   0.457  0.2988 -0.0997 -0.8910
13477TIP3   OH261921   0.520   6.006   0.534 -0.4442 -0.2502 -0.1574
13477TIP3    H161922   0.588   6.071   0.555  0.3748 -1.5917  1.6102
13477TIP3    H261923   0.459   6.053   0.477 -0.8727  2.6501  2.4379
13478TIP3   OH261924   6.401   4.340   4.505  0.6556  0.0067  0.5434
13478TIP3    H161925   6.392   4.412   4.568 -1.9137 -0.2160  0.5252
13478TIP3    H261926   6.409   4.262   4.559 -1.9160 -0.2265  0.6911
13479TIP3   OH261927   1.880   0.354  15.933 -0.4710 -0.7299  0.1509
13479TIP3    H161928   1.935   0.412  15.880  1.5860 -3.0005 -0.3858
13479TIP3    H261929   1.797   0.349  15.884 -0.1499  0.5222 -0.5816
13480TIP3   OH261930   4.872   6.635   3.812 -0.7446  0.2937  0.1968
13480TIP3    H161931   4.915   6.716   3.783  0.9012 -0.6929 -0.2088
13480TIP3    H261932   4.855   6.587   3.731  2.0869 -1.5848  0.5749
13481TIP3   OH261933   6.753   4.240   5.733  0.0729  0.0577  0.0173
13481TIP3    H161934   6.711   4.309   5.681  0.3980 -1.4237 -2.3527
13481TIP3    H261935   6.845   4.264   5.735  0.1019 -0.0139 -0.3485
13482TIP3   OH261936   6.726   1.404   2.975  0.6772 -0.4681 -0.2254
13482TIP3    H161937   6.661   1.442   3.034 -0.1117 -1.6153 -0.3115
13482TIP3    H261938   6.703   1.437   2.889  0.9332  0.0586 -0.0915
13483TIP3   OH261939   5.467   0.323  12.835 -0.0186  0.1017  0.0215
13483TIP3    H161940   5.442   0.401  12.884 -0.4193  1.2042 -1.8167
13483TIP3    H261941   5.558   0.338  12.811 -0.1144  0.0463 -0.3890
13484TIP3   OH261942   3.535   4.210   4.553 -0.2403  0.1712 -0.3847
13484TIP3    H161943   3.509   4.257   4.474  1.6321 -0.5896 -1.5153
13484TIP3    H261944   3.622   4.175   4.533 -1.0788 -2.8841  0.7387
13485TIP3   OH261945   2.150   2.673   3.275 -0.1667  0.0149 -0.2614
13485TIP3    H161946   2.119   2.725   3.349 -0.4698 -0.8040  0.1936
13485TIP3    H261947   2.128   2.583   3.298 -1.2803 -0.1584 -1.8376
13486TIP3   OH261948   5.978   0.906   0.309 -0.0675  0.4336  0.6400
13486TIP3    H161949   5.971   0.976   0.374  1.5776  0.5789  0.6885
13486TIP3    H261950   5.892   0.863   0.312 -0.1659  0.6476  2.6689
13487TIP3   OH261951   4.878   2.705   2.696  0.2454 -0.1111 -0.3688
13487TIP3    H161952   4.885   2.642   2.625  0.6997 -0.7263  0.2136
13487TIP3    H261953   4.961   2.754   2.693  0.2067 -0.0437 -0.3476
13488TIP3   OH261954   5.744   5.365  13.752  0.0005 -0.1621 -0.3662
13488TIP3    H161955   5.820   5.359  13.810 -0.3976  0.1177  0.1980
13488TIP3    H261956   5.723   5.459  13.750 -0.5499 -0.2812 -0.2214
13489TIP3   OH261957   2.995   5.140  11.771 -0.2146  0.0341 -0.0639
13489TIP3    H161958   2.950   5.059  11.745  1.2234 -0.9017  0.2307
13489TIP3    H261959   3.081   5.134  11.729  0.2291  1.0051  0.6700
13490TIP3   OH261960   5.611   0.522  10.809  0.0687  0.3117  0.7587
13490TIP3    H161961   5.692   0.572  10.821 -0.6570  1.4517  0.9859
13490TIP3    H261962   5.548   0.563  10.868 -0.2735 -1.5421  1.7479
13491TIP3   OH261963   4.094   1.744  15.112  0.0693  0.3638  0.1834
13491TIP3    H161964   4.160   1.813  15.101  0.8446 -0.3643  0.1745
13491TIP3    H261965   4.050   1.765  15.194  0.6056  0.6137  0.4102
13492TIP3   OH261966   5.896   2.520  15.506 -0.5155 -0.3068  0.1620
13492TIP3    H161967   5.949   2.531  15.585  0.5808 -0.4832 -0.5294
13492TIP3    H261968   5.888   2.608  15.469  0.2712 -0.4345 -0.3351
13493TIP3   OH261969   4.070   0.635  14.032 -0.0605  0.0338 -0.6441
13493TIP3    H161970   4.117   0.557  14.060 -1.1114 -0.3896  0.0136
13493TIP3    H261971   4.009   0.653  14.103  0.2857  1.5677 -0.7073
13494TIP3   OH261972   0.830   2.740   4.287  0.7527 -0.5423 -0.5658
13494TIP3    H161973   0.786   2.701   4.363  2.1995 -0.0514  0.5524
13494TIP3    H261974   0.844   2.831   4.312 -0.5756  0.2007 -2.2683
13495TIP3   OH261975   0.738   6.324  15.823 -0.2985  0.5859 -0.3039
13495TIP3    H161976   0.737   6.276  15.906  0.5285 -0.5178 -0.9137
13495TIP3    H261977   0.648   6.355  15.813 -1.3098 -2.1867 -0.6355
13496TIP3   OH261978   0.661   1.275   4.293 -0.3835 -0.2966  1.0775
13496TIP3    H161979   0.694   1.349   4.243  2.1617 -0.7877  1.8468
13496TIP3    H261980   0.691   1.198   4.244 -1.0995 -0.8117  1.4250
13497TIP3   OH261981   4.173   1.568  15.745  0.0851  0.6764 -0.0001
13497TIP3    H161982   4.172   1.603  15.656  2.7094 -1.1222 -0.8544
13497TIP3    H261983   4.081   1.558  15.768 -0.6833  0.8457 -2.6601
13498TIP3   OH261984   4.492   0.955  12.693 -0.5332  0.0283  0.6991
13498TIP3    H161985   4.558   0.943  12.761  0.2881 -0.2599 -0.1192
13498TIP3    H261986   4.446   1.035  12.718 -0.1938 -0.0384  1.5523
13499TIP3   OH261987   1.354   5.594   1.793 -0.3976 -0.1017 -0.3554
13499TIP3    H161988   1.282   5.645   1.756 -1.0485 -1.1893 -0.6647
13499TIP3    H261989   1.332   5.503   1.772  0.5861 -0.5395  0.3910
13500TIP3   OH261990   1.709   4.944   1.645 -0.8414 -0.0348 -0.1079
13500TIP3    H161991   1.614   4.930   1.643 -0.7212 -1.2880  1.1570
13500TIP3    H261992   1.738   4.897   1.723  1.0153 -0.9544 -1.2747
13501TIP3   OH261993   0.142   6.093  13.537  0.2400 -0.2760  0.1846
13501TIP3    H161994   0.228   6.085  13.577 -0.1809 -2.5513  0.7667
13501TIP3    H261995   0.136   6.019  13.477  0.0169  1.8174 -2.6410
13502TIP3   OH261996   4.981   4.951  14.775 -0.4041 -0.1491 -0.5207
13502TIP3    H161997   4.997   4.965  14.868  1.1878  1.7407 -1.0044
13502TIP3    H261998   4.929   5.027  14.747 -1.7199 -1.1797 -1.0288
13503TIP3   OH261999   4.131   6.504   4.323  0.6924 -0.1868 -0.0270
13503TIP3    H162000   4.202   6.553   4.282 -0.4216  1.7002  0.1730
13503TIP3    H262001   4.153   6.502   4.416 -0.5140  2.3540  0.3887
13504TIP3   OH262002   4.934   2.510   4.569  0.0446 -0.5385  0.4887
13504TIP3    H162003   5.021   2.540   4.594  0.3483 -0.3987 -0.6727
13504TIP3    H262004   4.880   2.589   4.571  0.4883 -0.1605 -1.0284
13505TIP3   OH262005   5.968   4.005  15.722 -0.0287 -0.8408 -0.2854
13505TIP3    H162006   6.015   4.016  15.805 -0.3204 -1.1424 -0.0720
13505TIP3    H262007   5.876   3.994  15.749 -0.3653  0.5985 -0.7295
13506TIP3   OH262008   0.205   5.945   0.468  0.4600 -0.5435 -0.2423
13506TIP3    H162009   0.129   5.975   0.418 -0.6893  0.4658  1.9191
13506TIP3    H262010   0.279   5.956   0.409 -0.7532  0.8221 -1.6053
13507TIP3   OH262011   5.197   3.245  15.426 -0.1292 -0.1118  0.5611
13507TIP3    H162012   5.188   3.251  15.521  2.9982 -0.1669  0.9658
13507TIP3    H262013   5.257   3.171  15.412 -0.5665 -0.1522 -1.4685
13508TIP3   OH262014   4.889   4.719   5.820 -0.1494  0.0926  0.5689
13508TIP3    H162015   4.858   4.747   5.907  0.4746  1.4622  0.3786
13508TIP3    H262016   4.972   4.764   5.809 -0.6387  0.6378 -1.1172
13509TIP3   OH262017   1.681   5.092  13.034 -0.1013  0.1062  0.0600
13509TIP3    H162018   1.636   5.011  13.056  0.8251 -0.3076  0.4725
13509TIP3    H262019   1.627   5.131  12.965  0.6334 -2.0150 -1.8576
13510TIP3   OH262020   0.277   0.907  15.535 -0.4784  0.2150  0.7390
13510TIP3    H162021   0.265   0.813  15.546 -0.6761  0.1982  0.3850
13510TIP3    H262022   0.267   0.922  15.440  0.5629  0.4403  0.6508
13511TIP3   OH262023   2.559   0.371   2.517 -0.4475 -0.2959 -0.1752
13511TIP3    H162024   2.521   0.397   2.600  1.7445 -0.3028  0.8930
13511TIP3    H262025   2.508   0.295   2.490 -2.3823  0.7984  0.1829
13512TIP3   OH262026   4.093   2.303   1.551 -0.8799 -0.0144  0.2102
13512TIP3    H162027   4.094   2.241   1.478 -1.8039 -1.2306  1.1826
13512TIP3    H262028   4.055   2.383   1.514 -1.3291 -0.6038 -0.6473
13513TIP3   OH262029   4.937   2.242   4.605 -0.4853 -0.0477 -0.4141
13513TIP3    H162030   4.932   2.334   4.578 -2.1596 -0.9843 -3.9317
13513TIP3    H262031   4.850   2.224   4.643 -1.0235 -0.6581 -1.8564
13514TIP3   OH262032   0.514   1.328   1.180  0.1205 -0.9057  0.2063
13514TIP3    H162033   0.479   1.398   1.125  1.4092 -0.3341  0.0756
13514TIP3    H262034   0.450   1.257   1.172 -0.0965 -0.5686 -1.4638
13515TIP3   OH262035   0.094   1.601  14.360 -0.4851 -0.1713  0.1028
13515TIP3    H162036   0.138   1.588  14.276  1.7514 -2.1709  1.4723
13515TIP3    H262037   0.051   1.517  14.378 -0.5570  0.0787  1.1554
13516TIP3   OH262038   3.475   3.121  13.258 -0.3795 -0.6592 -0.0833
13516TIP3    H162039   3.434   3.198  13.297  0.7699 -0.8115  1.5096
13516TIP3    H262040   3.455   3.129  13.164 -1.5722  0.7475  0.2451
13517TIP3   OH262041   1.632   0.365  11.887  0.0462  0.4407 -0.4730
13517TIP3    H162042   1.679   0.287  11.857 -0.5815 -0.2152  0.1924
13517TIP3    H262043   1.578   0.390  11.812  1.1619  0.9739 -1.1073
13518TIP3   OH262044   5.397   2.248   2.701  0.0988  0.1635  0.1751
13518TIP3    H162045   5.422   2.178   2.641 -0.8365 -1.3327  1.4728
13518TIP3    H262046   5.389   2.206   2.786  0.9503  2.1401  1.3166
13519TIP3   OH262047   2.761   0.647   0.308  0.5728  0.2719 -0.2622
13519TIP3    H162048   2.697   0.700   0.260  0.8456  0.6946 -0.1672
13519TIP3    H262049   2.806   0.596   0.241 -1.0618 -1.3774 -0.1792
13520TIP3   OH262050   5.805   4.100  13.851 -0.1532 -0.2411  0.5780
13520TIP3    H162051   5.770   4.034  13.911  1.5729 -0.7025  1.1270
13520TIP3    H262052   5.884   4.133  13.895  0.4167  0.3503 -0.8456
13521TIP3   OH262053   2.819   0.651  10.591 -0.3817 -0.1974 -0.3792
13521TIP3    H162054   2.822   0.745  10.571 -2.0391 -0.0448 -0.0547
13521TIP3    H262055   2.895   0.636  10.647  0.9586  0.5582 -1.8791
13522TIP3   OH262056   2.278   2.202  13.904  0.9406  0.3124  0.3153
13522TIP3    H162057   2.348   2.191  13.840  0.3109 -1.0276 -0.1760
13522TIP3    H262058   2.250   2.113  13.925 -0.8543  0.8173  0.2272
13523TIP3   OH262059   3.280   1.961  16.496 -0.0905 -0.8604 -0.0279
13523TIP3    H162060   3.345   1.936  16.562  0.7737  1.4533  0.0580
13523TIP3    H262061   3.243   2.043  16.528 -3.0571 -2.0244 -0.1391
13524TIP3   OH262062   2.631   2.539   2.778 -0.0934 -0.1255  0.4733
13524TIP3    H162063   2.616   2.445   2.764 -0.3120 -0.4223  2.4558
13524TIP3    H262064   2.701   2.561   2.716  1.5894 -2.1376  1.5221
13525TIP3   OH262065   6.812   4.556   3.631  0.3493 -0.3845  0.8335
13525TIP3    H162066   6.840   4.624   3.692 -1.9902  1.8328 -0.3615
13525TIP3    H262067   6.718   4.546   3.647 -0.2533 -0.1112 -1.8980
13526TIP3   OH262068   2.405   4.142   3.082 -0.2633  0.3933 -0.6690
13526TIP3    H162069   2.465   4.204   3.123 -0.5360  0.7796 -0.8411
13526TIP3    H262070   2.367   4.093   3.155 -2.7923  2.8927 -0.1073
13527TIP3   OH262071   6.693   3.428   5.458  0.1689 -0.8581 -0.0438
13527TIP3    H162072   6.784   3.431   5.430  1.0690 -1.0841  2.5763
13527TIP3    H262073   6.663   3.341   5.434  1.6243 -1.8848  1.6525
13528TIP3   OH262074   6.104   6.596  15.476 -0.2072 -0.0443 -0.0025
13528TIP3    H162075   6.163   6.656  15.521  0.7967  1.8614 -3.4982
13528TIP3    H262076   6.161   6.526  15.444 -0.6617 -0.6093  0.3974
13529TIP3   OH262077   5.426   2.878  17.156  0.7292  0.1284  0.1979
13529TIP3    H162078   5.382   2.882  17.241  0.7871 -0.3144  0.2514
13529TIP3    H262079   5.452   2.786  17.147  0.6937  0.1673 -0.3133
13530TIP3   OH262080   2.268   0.845  12.738 -0.6906  0.2199 -0.1413
13530TIP3    H162081   2.205   0.913  12.761 -1.6555 -0.4025 -0.8932
13530TIP3    H262082   2.331   0.890  12.681  0.5391  1.2519  1.9115
13531TIP3   OH262083   3.932   6.613  16.612 -0.0606 -0.0535 -0.3079
13531TIP3    H162084   3.914   6.533  16.562 -2.4760  0.6689 -0.7221
13531TIP3    H262085   4.019   6.599  16.648  0.7746 -1.6671 -2.6770
13532TIP3   OH262086   5.843   4.516  12.762  0.1026  0.0993 -0.5788
13532TIP3    H162087   5.839   4.439  12.819 -0.7136  1.2681  1.0207
13532TIP3    H262088   5.933   4.548  12.773  0.1958 -0.1463 -0.6071
13533TIP3   OH262089   6.222   6.721  13.897 -0.6021  0.2459  0.2782
13533TIP3    H162090   6.163   6.721  13.972 -0.5312  2.2623  0.3989
13533TIP3    H262091   6.308   6.699  13.933 -0.6720  0.6599  0.7116
13534TIP3   OH262092   1.125   1.455  11.871  0.0643  0.1212 -0.2901
13534TIP3    H162093   1.080   1.525  11.919 -0.8181 -0.0414 -0.8601
13534TIP3    H262094   1.197   1.429  11.929  0.3248  1.3862  0.0052
13535TIP3   OH262095   2.582   4.240   0.376 -0.2438 -0.1396 -0.2474
13535TIP3    H162096   2.657   4.299   0.364  0.6019 -1.0895  0.2166
13535TIP3    H262097   2.506   4.299   0.382  0.7231  0.9958  1.5772
13536TIP3   OH262098   3.282   1.715  14.153 -0.2267 -0.3387  0.0487
13536TIP3    H162099   3.321   1.652  14.213 -0.4501 -0.1814  0.3634
13536TIP3    H262100   3.331   1.796  14.167 -2.8556  0.9245  3.0504
13537TIP3   OH262101   2.469   4.848  13.965 -0.1530 -0.4199  0.2620
13537TIP3    H162102   2.408   4.812  14.029 -0.3449 -2.2343 -0.8631
13537TIP3    H262103   2.552   4.804  13.984  0.8318  1.8922  1.6658
13538TIP3   OH262104   6.224   1.807   1.249  0.2734  0.0238 -0.2048
13538TIP3    H162105   6.160   1.745   1.213  1.7901 -1.6152 -0.2290
13538TIP3    H262106   6.256   1.764   1.329  0.8051  1.1643  0.2129
13539TIP3   OH262107   6.169   5.209   5.871  0.1826  0.4170 -0.1817
13539TIP3    H162108   6.137   5.209   5.962  1.2276  0.2012  0.1967
13539TIP3    H262109   6.264   5.198   5.879  0.0530 -2.2903 -1.3769
13540TIP3   OH262110   2.822   0.195   2.087  0.0106 -0.0707  0.3801
13540TIP3    H162111   2.771   0.273   2.065 -0.0169  0.0677  0.9353
13540TIP3    H262112   2.767   0.147   2.148 -0.7644 -1.4431 -1.3099
13541TIP3   OH262113   6.195   3.550  12.423 -0.1073  0.8097  0.5546
13541TIP3    H162114   6.155   3.498  12.493 -2.1933 -0.8901 -1.7241
13541TIP3    H262115   6.260   3.492  12.384 -0.2197  1.0826 -0.0457
13542TIP3   OH262116   3.676   2.509  12.014 -0.2329  0.6883 -0.2660
13542TIP3    H162117   3.722   2.474  11.937 -0.0786 -0.4235  0.3057
13542TIP3    H262118   3.620   2.437  12.043 -0.3208  1.1035  0.6386
13543TIP3   OH262119   5.888   3.872  13.414  0.0998  1.2798  0.6179
13543TIP3    H162120   5.905   3.955  13.459 -0.4583  1.2650  0.8644
13543TIP3    H262121   5.883   3.807  13.484 -1.0464  1.3027  0.5690
13544TIP3   OH262122   4.834   4.181   4.385  0.5402  0.3388 -0.4667
13544TIP3    H162123   4.842   4.165   4.291  1.0484  0.7858 -0.5053
13544TIP3    H262124   4.924   4.187   4.417  0.4045 -1.3183  0.3359
13545TIP3   OH262125   2.767   6.671  12.443  0.0811  0.2599  0.0953
13545TIP3    H162126   2.698   6.727  12.406 -1.1034 -1.1083  0.1518
13545TIP3    H262127   2.721   6.616  12.507  1.0535 -1.2626 -0.4667
13546TIP3   OH262128   5.768   1.588  15.497  0.0069 -0.5327  0.1795
13546TIP3    H162129   5.840   1.641  15.463  0.7013 -0.5423  1.5455
13546TIP3    H262130   5.689   1.625  15.458  0.5336  1.0798  0.5735
13547TIP3   OH262131   2.535   0.558   3.113 -0.0216  0.6506 -0.3423
13547TIP3    H162132   2.469   0.490   3.100 -0.3592  0.7367  0.7525
13547TIP3    H262133   2.561   0.585   3.025  0.2218 -0.9808 -0.8077
13548TIP3   OH262134   4.395   6.513   2.140 -0.3528  0.2471  0.1270
13548TIP3    H162135   4.349   6.432   2.161 -0.1833  0.1779  0.2356
13548TIP3    H262136   4.337   6.559   2.079 -0.3264 -0.0802 -0.1483
13549TIP3   OH262137   3.074   2.291  16.369  0.3796  0.1354 -0.0250
13549TIP3    H162138   3.142   2.274  16.304  0.4691  0.3622  0.0080
13549TIP3    H262139   2.992   2.280  16.321  0.4424  2.2998 -0.7252
13550TIP3   OH262140   1.073   6.223  14.259 -0.4432 -0.4772 -0.6445
13550TIP3    H162141   0.994   6.202  14.211 -0.9926 -0.1969  0.1114
13550TIP3    H262142   1.112   6.295  14.210 -0.2121 -1.1567 -1.4767
13551TIP3   OH262143   5.960   4.403  15.938  0.4880  0.2148  0.0068
13551TIP3    H162144   5.888   4.376  15.882  0.3996 -0.2784  0.3537
13551TIP3    H262145   5.938   4.370  16.025  0.9927  0.3031  0.1764
13552TIP3   OH262146   0.721   0.554  13.194  0.2180 -0.0908  0.0303
13552TIP3    H162147   0.634   0.522  13.170  0.5322 -1.6623  0.8497
13552TIP3    H262148   0.709   0.594  13.280  0.0883  0.9014 -0.4237
13553TIP3   OH262149   6.474   5.932  16.936 -0.9707  0.0278  0.4540
13553TIP3    H162150   6.398   5.965  16.983 -0.7837 -0.2758  0.9770
13553TIP3    H262151   6.520   5.876  16.999 -0.1038  0.5097  0.2725
13554TIP3   OH262152   6.285   1.483  15.782 -0.2437 -0.1512  0.1720
13554TIP3    H162153   6.301   1.417  15.850  1.2303 -2.6926 -2.3922
13554TIP3    H262154   6.218   1.444  15.726 -1.5341  1.9337  0.1674
13555TIP3   OH262155   6.541   0.968  16.296  0.4433  0.3248  0.2918
13555TIP3    H162156   6.600   0.892  16.306 -0.4396 -0.4182  0.0011
13555TIP3    H262157   6.497   0.975  16.380  0.1083  0.1602  0.1304
13556TIP3   OH262158   0.573   4.759   5.637  0.2446 -0.1893  0.1503
13556TIP3    H162159   0.594   4.802   5.554 -2.1442  0.3892 -0.2289
13556TIP3    H262160   0.566   4.666   5.614  1.5158 -0.3174  0.1641
13557TIP3   OH262161   2.775   6.077  14.942 -0.5108  0.1660  0.4799
13557TIP3    H162162   2.717   6.152  14.953 -1.5985 -0.5285 -0.3485
13557TIP3    H262163   2.720   6.001  14.960  0.2968 -0.4825  0.2753
13558TIP3   OH262164   0.004   2.190  14.738  0.2349 -0.0953  0.2299
13558TIP3    H162165   0.046   2.135  14.805  1.3963 -0.7486 -0.9883
13558TIP3    H262166   0.045   2.163  14.656 -0.5059  1.3208 -0.6418
13559TIP3   OH262167   1.351   3.186   3.270 -0.3872  0.9797  0.5654
13559TIP3    H162168   1.339   3.205   3.363 -1.2890 -1.6852  1.0690
13559TIP3    H262169   1.263   3.172   3.236  0.0529 -0.0832 -0.1985
13560TIP3   OH262170   0.681   0.515  16.540  0.0076  0.3062  0.1320
13560TIP3    H162171   0.647   0.499  16.628 -0.0638  1.2406  0.2800
13560TIP3    H262172   0.608   0.556  16.493  0.2746  0.4650 -0.1490
13561TIP3   OH262173   1.816   3.729  13.445 -0.3944 -0.1473 -0.3276
13561TIP3    H162174   1.759   3.774  13.507 -0.9809 -0.0341 -0.9392
13561TIP3    H262175   1.865   3.799  13.403 -1.0665 -0.0898 -1.0397
13562TIP3   OH262176   5.474   5.619   6.161  0.3092  0.9035 -0.0815
13562TIP3    H162177   5.466   5.666   6.244  0.6081 -0.2922  0.6591
13562TIP3    H262178   5.568   5.617   6.143  0.3501  0.1798  0.1628
13563TIP3   OH262179   2.906   0.316  15.993 -0.1595 -0.0852 -0.5703
13563TIP3    H162180   2.884   0.284  15.906  0.3223 -1.3061 -0.2549
13563TIP3    H262181   2.825   0.308  16.043 -0.1538 -0.4154 -0.6124
13564TIP3   OH262182   2.216   6.452  16.192  0.1147  0.4062 -0.1184
13564TIP3    H162183   2.149   6.465  16.125  0.3332  2.6005  0.0280
13564TIP3    H262184   2.298   6.445  16.143  0.0284 -0.2435 -0.1814
13565TIP3   OH262185   3.329   0.914   1.162 -0.7072  0.5034  0.6055
13565TIP3    H162186   3.404   0.910   1.222 -2.3388  0.0002  2.7645
13565TIP3    H262187   3.352   0.983   1.100  2.2037 -0.7363  0.1472
13566TIP3   OH262188   6.055   3.491  13.254 -0.4354  0.1843 -0.3237
13566TIP3    H162189   6.023   3.461  13.339 -0.1668 -2.4506 -1.0484
13566TIP3    H262190   6.126   3.552  13.274 -0.1814 -0.6179  1.3649
13567TIP3   OH262191   3.808   6.572   0.449  0.4177 -0.0280 -0.2044
13567TIP3    H162192   3.830   6.492   0.401  0.4252 -0.2210  0.1243
13567TIP3    H262193   3.770   6.629   0.382 -0.3360 -0.6013 -0.2829
13568TIP3   OH262194   0.194   4.854  14.386  0.5309 -0.1722  0.9457
13568TIP3    H162195   0.148   4.888  14.463 -0.4627  0.0722  0.2694
13568TIP3    H262196   0.219   4.931  14.335 -0.5390 -0.3686  0.0771
13569TIP3   OH262197   0.907   2.329  11.073  0.0869  0.0811 -0.1734
13569TIP3    H162198   0.863   2.245  11.083 -0.7257  0.4853 -0.2476
13569TIP3    H262199   0.984   2.324  11.130  0.6064 -1.0725 -0.9367
13570TIP3   OH262200   0.273   5.442  11.849 -0.1872 -0.5637  0.1593
13570TIP3    H162201   0.192   5.457  11.897 -0.2851 -2.6393  0.7302
13570TIP3    H262202   0.322   5.524  11.857 -1.6485  0.2650  0.9205
13571TIP3   OH262203   1.181   3.152   2.299  0.1634 -0.2551  0.2110
13571TIP3    H162204   1.212   3.242   2.285  0.0422 -0.0502  1.2068
13571TIP3    H262205   1.242   3.116   2.363  1.6613 -1.6866 -1.8838
13572TIP3   OH262206   1.792   0.631  13.581  0.5250 -0.7601  0.0345
13572TIP3    H162207   1.855   0.613  13.651  0.0500  0.1376  0.7242
13572TIP3    H262208   1.737   0.552  13.577  2.2069 -1.9361 -1.2034
13573TIP3   OH262209   2.196   5.971   5.620  0.4815  1.2869  0.5111
13573TIP3    H162210   2.182   5.880   5.594 -3.2130  1.9548 -0.3911
13573TIP3    H262211   2.262   6.004   5.559  0.3088 -0.2208 -0.5486
13574TIP3   OH262212   5.798   6.313   2.062 -0.1187 -0.0159  0.1640
13574TIP3    H162213   5.816   6.406   2.078 -0.0104  0.1473 -0.8500
13574TIP3    H262214   5.762   6.281   2.145 -0.5327  1.0197  0.3994
13575TIP3   OH262215   2.106   2.093   5.455 -0.4415 -0.0541  0.3482
13575TIP3    H162216   2.096   2.151   5.380  1.5193 -0.2735 -0.1298
13575TIP3    H262217   2.156   2.019   5.422  1.2327  0.2347  2.0150
13576TIP3   OH262218   0.998   2.624  13.530  0.1274 -0.3909  0.2882
13576TIP3    H162219   0.911   2.627  13.570  0.1819  1.2379  0.3400
13576TIP3    H262220   0.991   2.554  13.465 -0.7525 -1.3020  1.3165
13577TIP3   OH262221   6.728   0.114  13.227 -0.0306 -0.2428  0.5476
13577TIP3    H162222   6.745   0.034  13.177 -2.5184 -0.7948  0.4709
13577TIP3    H262223   6.720   0.183  13.160  0.5453 -0.2120  0.5031
13578TIP3   OH262224   0.543   5.688  11.566 -0.0663 -0.1260  0.6234
13578TIP3    H162225   0.587   5.768  11.595  1.1694 -0.3533 -0.5588
13578TIP3    H262226   0.608   5.619  11.577  0.4061 -0.2760 -2.3186
13579TIP3   OH262227   3.879   3.810   6.060 -0.2817 -0.1753 -0.0972
13579TIP3    H162228   3.833   3.851   5.986 -1.9183  0.5109  1.2321
13579TIP3    H262229   3.965   3.853   6.061 -0.6234  0.5776 -0.9393
13580TIP3   OH262230   4.743   3.909   3.745 -0.0918  0.1146 -1.1967
13580TIP3    H162231   4.752   3.838   3.809 -0.7771  0.5110 -0.6479
13580TIP3    H262232   4.832   3.921   3.711  0.1505 -0.5854 -0.8487
13581TIP3   OH262233   5.500   1.058   0.369  0.4886  0.2198 -1.0760
13581TIP3    H162234   5.471   1.029   0.283 -1.2050 -1.6363  0.0344
13581TIP3    H262235   5.423   1.100   0.407 -1.0379 -4.4771  1.8066
13582TIP3   OH262236   1.583   4.797  15.431 -0.2297 -0.1588 -0.3012
13582TIP3    H162237   1.507   4.740  15.427  0.6069 -1.4221  0.8980
13582TIP3    H262238   1.658   4.738  15.428  0.6524  0.6766  2.4806
13583TIP3   OH262239   4.560   1.559   1.935  0.0953 -0.0933 -0.2959
13583TIP3    H162240   4.614   1.534   2.010  0.3170 -0.5223 -0.5926
13583TIP3    H262241   4.535   1.650   1.953 -0.2104 -0.3316  0.4958
13584TIP3   OH262242   1.355   1.937   3.886 -0.2677  0.0917  0.5239
13584TIP3    H162243   1.265   1.959   3.862 -0.9410 -1.0733  1.8293
13584TIP3    H262244   1.393   2.020   3.915 -1.1276  0.4869  0.5529
13585TIP3   OH262245   3.123   0.818  16.348  0.0507  0.1027 -0.0392
13585TIP3    H162246   3.063   0.755  16.387  0.4098 -0.0245  0.3150
13585TIP3    H262247   3.090   0.903  16.376 -1.9681  0.2989 -2.5974
13586TIP3   OH262248   2.161   1.641  13.524  0.3555  0.0070  0.1031
13586TIP3    H162249   2.222   1.698  13.571 -0.1841  1.3221 -0.7519
13586TIP3    H262250   2.214   1.600  13.456  0.3833  0.8565 -0.3970
13587TIP3   OH262251   4.641   4.488   0.597 -0.2859  0.3582 -0.2504
13587TIP3    H162252   4.593   4.545   0.537 -3.0741  0.3680  1.8410
13587TIP3    H262253   4.646   4.536   0.679 -0.9888 -1.5962  1.0030
13588TIP3   OH262254   3.479   1.076  15.324  0.1321  0.1154 -0.5890
13588TIP3    H162255   3.392   1.045  15.349 -0.4434  3.2688  1.8528
13588TIP3    H262256   3.539   1.023  15.377 -0.7234  1.7738  2.2285
13589TIP3   OH262257   4.059   4.929   6.320 -0.0174  0.4111 -0.2036
13589TIP3    H162258   4.075   5.009   6.270 -3.0320  2.0697  1.1508
13589TIP3    H262259   3.968   4.905   6.298  0.6914 -2.5265 -0.3159
13590TIP3   OH262260   1.504   5.210   5.070  0.1485  0.3140  0.2187
13590TIP3    H162261   1.568   5.225   5.000 -1.1525 -0.8134 -1.2689
13590TIP3    H262262   1.526   5.124   5.105  0.1014  0.3869  0.4274
13591TIP3   OH262263   1.502   6.800   3.696  0.0451  0.1243 -0.1285
13591TIP3    H162264   1.478   6.731   3.633 -0.5811 -0.1622  0.4057
13591TIP3    H262265   1.591   6.778   3.723  0.3165  0.2384 -0.8911
13592TIP3   OH262266   6.470   0.247  10.635 -0.3156  0.0092 -0.3026
13592TIP3    H162267   6.461   0.204  10.551  0.9675  1.5571 -1.2985
13592TIP3    H262268   6.516   0.183  10.690 -1.7879 -1.2815 -0.5100
13593TIP3   OH262269   4.684   6.770   3.595 -0.0194 -0.0235  0.1952
13593TIP3    H162270   4.702   6.857   3.632 -0.2867  0.2965 -0.4011
13593TIP3    H262271   4.648   6.789   3.508 -1.0495 -0.7030  0.4590
13594TIP3   OH262272   0.439   1.363  13.166 -0.4599  0.3763  0.7039
13594TIP3    H162273   0.371   1.397  13.224  1.5311  2.0211  2.2373
13594TIP3    H262274   0.506   1.432  13.164  0.9568 -0.9295 -1.1448
13595TIP3   OH262275   1.342   4.867  13.389 -0.3106  0.2434 -0.3557
13595TIP3    H162276   1.431   4.892  13.413 -0.1085 -0.6709 -0.1248
13595TIP3    H262277   1.352   4.794  13.328 -0.8970 -0.9347  0.8941
13596TIP3   OH262278   2.932   5.993  14.745 -0.2339 -0.2517 -0.4428
13596TIP3    H162279   2.879   6.036  14.813  0.2437 -0.7409  0.2554
13596TIP3    H262280   3.003   6.054  14.727  1.5394 -1.4497  1.9203
13597TIP3   OH262281   3.675   2.726  13.241 -0.4258  0.1019 -0.4795
13597TIP3    H162282   3.633   2.708  13.325  0.4659 -0.1734 -0.0782
13597TIP3    H262283   3.699   2.818  13.244 -0.1226  0.0199 -0.2975
13598TIP3   OH262284   4.715   2.656  12.701  0.3750 -0.0513 -0.2774
13598TIP3    H162285   4.655   2.719  12.660  0.9274 -0.1498 -1.2813
13598TIP3    H262286   4.761   2.616  12.627  0.4391 -1.2242  0.3842
13599TIP3   OH262287   5.015   4.857   3.261  0.0656 -0.4002  0.7357
13599TIP3    H162288   5.004   4.885   3.170 -0.9223  2.4355  1.6111
13599TIP3    H262289   5.109   4.867   3.277 -0.0152  0.8655  0.5123
13600TIP3   OH262290   0.712   6.275  16.112 -0.3831 -0.1996  0.3082
13600TIP3    H162291   0.755   6.214  16.172 -0.0861  0.0260  0.3253
13600TIP3    H262292   0.720   6.360  16.156 -2.0252 -0.3499  0.9595
13601TIP3   OH262293   3.916   0.655  17.278 -0.1080  0.2260  0.2698
13601TIP3    H162294   3.898   0.561  17.268 -1.0331  0.4484 -0.3098
13601TIP3    H262295   3.843   0.698  17.233 -0.6377  1.2473  2.0044
13602TIP3   OH262296   1.174   3.664   6.819  0.2331  0.0252 -0.7766
13602TIP3    H162297   1.079   3.663   6.823  0.2401  0.7030 -0.3147
13602TIP3    H262298   1.196   3.605   6.747 -0.6223  1.5317 -2.3420
13603TIP3   OH262299   0.680   4.600   5.361  0.3232 -0.0164 -0.2367
13603TIP3    H162300   0.651   4.570   5.447  0.3710  0.5950 -0.0008
13603TIP3    H262301   0.679   4.522   5.306 -0.7806 -0.2057  0.0311
13604TIP3   OH262302   0.283   3.757   4.979  0.0044  0.0364  0.0151
13604TIP3    H162303   0.276   3.783   4.888 -0.9122  1.4345  0.4530
13604TIP3    H262304   0.209   3.698   4.993 -1.5621  1.9652  0.4831
13605TIP3   OH262305   0.389   0.579  15.884 -0.1997 -0.6346  0.0445
13605TIP3    H162306   0.441   0.642  15.834 -1.0552 -0.8191 -1.1018
13605TIP3    H262307   0.407   0.601  15.976  0.6006  0.3643 -0.3338
13606TIP3   OH262308   0.647   1.339  13.826  0.4670 -0.3925 -0.3199
13606TIP3    H162309   0.614   1.256  13.791 -0.5677 -0.4470  0.7208
13606TIP3    H262310   0.704   1.313  13.898 -1.2196 -0.2096  1.1460
13607TIP3   OH262311   5.555   0.890  14.093  0.6875  0.0762  0.4369
13607TIP3    H162312   5.565   0.879  14.187 -2.4614 -0.0036  0.8820
13607TIP3    H262313   5.516   0.807  14.063 -0.5690  0.9333 -0.4526
13608TIP3   OH262314   0.603   0.017  11.444 -0.1141  0.2865 -0.0991
13608TIP3    H162315   0.570   0.040  11.357 -0.4557  0.7692  0.1562
13608TIP3    H262316   0.676   0.077  11.459 -1.1131  1.3602  0.6371
13609TIP3   OH262317   2.781   1.357  14.761 -0.1091 -0.5384 -0.3739
13609TIP3    H162318   2.865   1.312  14.768  2.1056  3.0583 -1.2733
13609TIP3    H262319   2.755   1.373  14.851  1.3353  0.1977 -0.0593
13610TIP3   OH262320   0.414   1.765   5.880  0.3531  0.1589  0.2612
13610TIP3    H162321   0.459   1.688   5.844 -0.3444  0.5466 -1.5727
13610TIP3    H262322   0.386   1.814   5.802 -1.2141  1.1005  1.3769
13611TIP3   OH262323   2.385   0.418   3.695  0.5574 -0.0083 -0.0873
13611TIP3    H162324   2.315   0.380   3.642 -0.7977  1.2829  0.7053
13611TIP3    H262325   2.351   0.503   3.723  2.0473  0.2236  1.1535
13612TIP3   OH262326   5.583   4.452   0.157  0.3440  0.1959  0.0092
13612TIP3    H162327   5.511   4.506   0.124  0.6610  2.2326  2.3529
13612TIP3    H262328   5.662   4.489   0.118  0.2659 -2.8054 -3.5612
13613TIP3   OH262329   3.697   3.505  13.120 -0.0906 -0.2143 -0.5222
13613TIP3    H162330   3.730   3.583  13.165  1.7352 -0.7646 -0.8157
13613TIP3    H262331   3.602   3.509  13.132  0.1010  1.1086  0.9902
13614TIP3   OH262332   2.569   0.752   5.704 -0.3202 -0.3214  0.3324
13614TIP3    H162333   2.545   0.772   5.613 -0.3767  1.1159  0.6285
13614TIP3    H262334   2.626   0.825   5.730 -0.8316 -0.3602  1.6494
13615TIP3   OH262335   6.479   4.242   5.298 -0.1047 -0.0506  0.3450
13615TIP3    H162336   6.404   4.282   5.342 -0.9103 -0.0297 -1.0019
13615TIP3    H262337   6.532   4.316   5.269  0.4376 -0.0647  1.2486
13616TIP3   OH262338   5.823   0.908  14.002  0.6302 -0.1661  0.2658
13616TIP3    H162339   5.809   0.926  13.909 -0.0677 -2.2183 -0.0637
13616TIP3    H262340   5.735   0.904  14.039  0.8101 -1.2187  0.6123
13617TIP3   OH262341   2.802   6.327   5.796 -0.2335  0.1191 -0.0044
13617TIP3    H162342   2.884   6.304   5.840 -0.4604  0.2602  0.5107
13617TIP3    H262343   2.734   6.293   5.855 -0.5435 -0.5871 -0.7588
13618TIP3   OH262344   3.430   0.146  15.676 -0.7363  0.2942  0.4210
13618TIP3    H162345   3.434   0.055  15.648  1.9718  0.9485 -1.7700
13618TIP3    H262346   3.363   0.185  15.619  1.4494  0.5810 -2.1597
13619TIP3   OH262347   6.688   1.877   0.723 -0.0836 -0.7541  0.0884
13619TIP3    H162348   6.782   1.873   0.707 -0.1733 -0.5908 -0.5082
13619TIP3    H262349   6.649   1.835   0.646 -0.5795  1.1014 -0.7507
13620TIP3   OH262350   2.154   5.563  16.568 -0.0661 -0.6188  0.3547
13620TIP3    H162351   2.088   5.585  16.502 -0.4623 -1.1474  0.5681
13620TIP3    H262352   2.151   5.636  16.630  0.9682  0.3513 -0.6895
13621TIP3   OH262353   5.152   3.506   1.230 -0.0233 -0.2469  0.1221
13621TIP3    H162354   5.210   3.432   1.245 -0.6182 -1.3172 -2.3562
13621TIP3    H262355   5.212   3.579   1.212  0.5485 -0.2848  1.6594
13622TIP3   OH262356   0.886   5.545  14.835  0.4432  0.6405 -0.0815
13622TIP3    H162357   0.862   5.453  14.820  0.7974  0.6410 -0.6803
13622TIP3    H262358   0.972   5.540  14.878  0.3565  0.6867  0.0976
13623TIP3   OH262359   2.637   4.859  16.280  0.4295  0.2675 -0.1311
13623TIP3    H162360   2.548   4.883  16.257 -0.3662 -0.6621  1.7816
13623TIP3    H262361   2.685   4.942  16.280 -1.2286  1.3182  2.0751
13624TIP3   OH262362   1.614   0.644  11.589  0.2288 -0.0389 -0.4586
13624TIP3    H162363   1.616   0.690  11.505 -1.8755 -0.2855 -0.6933
13624TIP3    H262364   1.663   0.701  11.648  0.6971  0.7421 -1.5725
13625TIP3   OH262365   2.497   4.939  14.669 -0.4996  0.3943 -0.3264
13625TIP3    H162366   2.446   4.878  14.721  0.3169 -0.7651 -0.8167
13625TIP3    H262367   2.460   4.932  14.581 -0.5930  0.8313 -0.3217
13626TIP3   OH262368   3.929   4.512  10.515  0.2944  0.2886  0.3223
13626TIP3    H162369   3.992   4.543  10.450 -0.5753 -0.2384 -0.8228
13626TIP3    H262370   3.873   4.587  10.533 -0.0315  0.1964 -0.2636
13627TIP3   OH262371   3.345   1.071   0.642  0.0250 -0.1561  0.0566
13627TIP3    H162372   3.356   1.091   0.735 -1.8966  0.4970  0.1813
13627TIP3    H262373   3.383   0.983   0.633  1.6214  0.3724  1.1066
13628TIP3   OH262374   6.734   2.097  14.046 -0.0705  0.1767 -0.8337
13628TIP3    H162375   6.793   2.026  14.070 -0.3340  0.4333  0.7161
13628TIP3    H262376   6.793   2.166  14.014  0.3355 -0.1413 -0.7896
13629TIP3   OH262377   3.634   0.979   2.909  0.2698  0.3848  0.7153
13629TIP3    H162378   3.674   0.903   2.952 -1.5805  0.1425  2.1545
13629TIP3    H262379   3.564   1.006   2.969 -1.0436  1.3850 -1.1695
13630TIP3   OH262380   6.436   1.495  12.910  0.2831  0.4299  0.2166
13630TIP3    H162381   6.471   1.578  12.944 -1.0548  1.0744  0.1147
13630TIP3    H262382   6.434   1.437  12.985 -0.9059  1.2489  0.8575
13631TIP3   OH262383   1.678   3.312   5.784 -0.1650 -0.1094 -0.3273
13631TIP3    H162384   1.654   3.302   5.876 -0.2973 -0.0453 -0.3539
13631TIP3    H262385   1.744   3.381   5.783  0.3646 -0.6069 -0.2010
13632TIP3   OH262386   4.068   1.030  16.595  0.0058 -0.2881 -0.4126
13632TIP3    H162387   4.016   1.099  16.554 -0.3059 -0.0364  0.3736
13632TIP3    H262388   4.087   0.968  16.525  1.4301  1.2444 -1.4546
13633TIP3   OH262389   0.916   2.398  12.110 -0.6766 -0.1437  0.3281
13633TIP3    H162390   0.861   2.473  12.131 -1.5631 -0.7477  0.2320
13633TIP3    H262391   0.919   2.347  12.191 -1.3037 -0.7460 -0.0122
13634TIP3   OH262392   0.407   1.520   0.997  0.0716  0.5550 -0.0051
13634TIP3    H162393   0.356   1.501   0.918  1.2283  1.4886 -0.9977
13634TIP3    H262394   0.433   1.611   0.989 -0.2149  0.8299  1.7243
13635TIP3   OH262395   1.038   0.054   5.192  0.9890 -0.4112  0.1383
13635TIP3    H162396   1.099   0.058   5.266  2.4093  0.8940 -1.0449
13635TIP3    H262397   1.076   0.112   5.126 -1.3175  0.1214 -0.8305
13636TIP3   OH262398   5.838   2.249   1.149 -0.0362 -0.1717 -0.1398
13636TIP3    H162399   5.916   2.303   1.155 -1.2355  1.5242  1.8674
13636TIP3    H262400   5.831   2.225   1.057  0.5901  3.1605 -1.1769
13637TIP3   OH262401   2.489   4.932   3.744 -0.0362 -0.0267  0.0117
13637TIP3    H162402   2.413   4.879   3.770 -0.1290 -0.1164 -0.4414
13637TIP3    H262403   2.457   5.022   3.745 -0.0109 -0.0200  0.3081
13638TIP3   OH262404   0.652   6.364  10.652 -0.6391  0.5480 -0.4861
13638TIP3    H162405   0.624   6.300  10.588  2.0399 -0.9170 -0.3486
13638TIP3    H262406   0.613   6.335  10.734  0.0588 -0.6169 -0.5429
13639TIP3   OH262407   2.152   5.116  11.910 -0.0502  0.3095 -0.2269
13639TIP3    H162408   2.219   5.146  11.849  0.8069  0.5140  0.7776
13639TIP3    H262409   2.128   5.029  11.879  2.6920 -0.9765  0.8826
13640TIP3   OH262410   1.010   6.564  16.723  0.3573 -0.8074 -0.0004
13640TIP3    H162411   1.071   6.501  16.760  1.0044 -0.0469  0.2419
13640TIP3    H262412   1.061   6.612  16.658 -0.6193 -1.7729 -1.5631
13641TIP3   OH262413   4.213   2.499  14.228 -0.4132 -0.5079 -0.2971
13641TIP3    H162414   4.195   2.533  14.141  0.1648  0.8056  0.0647
13641TIP3    H262415   4.232   2.577  14.281 -0.3843 -1.3012  0.9086
13642TIP3   OH262416   0.249   0.160  15.247 -0.0785 -0.3019  0.4195
13642TIP3    H162417   0.241   0.155  15.343 -1.6294 -0.8437  0.2914
13642TIP3    H262418   0.252   0.068  15.220  0.4733 -0.1458 -0.0590
13643TIP3   OH262419   4.202   2.310   2.491  0.0982 -0.5644 -0.4801
13643TIP3    H162420   4.279   2.264   2.458  0.9662  0.3455  0.2112
13643TIP3    H262421   4.130   2.276   2.439  1.1060 -0.7029 -1.8536
13644TIP3   OH262422   1.458   0.635  16.606 -0.2905 -0.2113  0.7380
13644TIP3    H162423   1.392   0.630  16.538  0.8715  0.6099 -0.4813
13644TIP3    H262424   1.467   0.545  16.637  0.9446 -1.1239 -1.9742
13645TIP3   OH262425   1.748   6.395   5.745  0.1710  0.3147  0.2161
13645TIP3    H162426   1.821   6.412   5.804 -0.6993  1.0799  1.0977
13645TIP3    H262427   1.716   6.481   5.720 -1.0704 -0.0081  0.6475
13646TIP3   OH262428   3.649   3.409   0.724  0.0425  0.0489  0.8120
13646TIP3    H162429   3.742   3.423   0.743 -0.1313  3.9259 -0.3209
13646TIP3    H262430   3.603   3.449   0.797 -0.6383  2.1621 -0.6870
13647TIP3   OH262431   2.770   6.106   5.593  0.4164 -0.5918 -0.2007
13647TIP3    H162432   2.712   6.126   5.667  1.4512  1.6477  0.0991
13647TIP3    H262433   2.857   6.097   5.633  0.9519  0.4140 -1.0849
13648TIP3   OH262434   6.244   6.093  17.029  0.1268  0.1650  0.1045
13648TIP3    H162435   6.257   6.046  17.111 -1.4059 -0.3386  0.0952
13648TIP3    H262436   6.150   6.114  17.028  0.3498  1.2190 -0.9619
13649TIP3   OH262437   2.052   0.049  13.956  0.7604  0.7298 -0.0015
13649TIP3    H162438   1.988  -0.007  13.912  1.8872  1.3603 -2.6952
13649TIP3    H262439   2.000   0.104  14.015 -1.2085  1.1432 -1.9831
13650TIP3   OH262440   3.532   2.755  12.175 -0.5368 -0.1851 -0.1576
13650TIP3    H162441   3.586   2.679  12.155 -1.2506 -0.6897 -0.2199
13650TIP3    H262442   3.592   2.829  12.170  0.2323 -0.7708  0.1878
13651TIP3   OH262443   0.275   6.045  12.007  0.5698  0.2342 -0.0135
13651TIP3    H162444   0.330   6.060  12.083 -0.1676  0.7045  0.4408
13651TIP3    H262445   0.195   6.006  12.042 -0.6841  2.4389 -0.2324
13652TIP3   OH262446   1.775   2.510  13.359 -0.6216 -0.6475 -0.8544
13652TIP3    H162447   1.865   2.488  13.382  0.0759  1.2463 -1.5560
13652TIP3    H262448   1.748   2.442  13.297  0.4057 -1.1172 -0.7995
13653TIP3   OH262449   5.738   0.591  12.517 -0.3418 -0.4173 -0.1543
13653TIP3    H162450   5.769   0.662  12.573 -1.2401 -2.1325  2.7540
13653TIP3    H262451   5.804   0.583  12.448  1.3221  1.2734  1.1578
13654TIP3   OH262452   2.919   3.183   4.836 -0.9844 -0.2347  0.0463
13654TIP3    H162453   2.859   3.109   4.845  0.7693 -1.5275  2.4131
13654TIP3    H262454   3.006   3.144   4.839  0.0185  1.8046 -0.4403
13655TIP3   OH262455   4.801   2.432   3.797  0.1669 -0.1812  0.0292
13655TIP3    H162456   4.779   2.523   3.819  0.7609 -0.2064  0.7636
13655TIP3    H262457   4.717   2.387   3.792 -0.0867  0.2578  0.3501
13656TIP3   OH262458   5.505   4.524  12.326 -0.3165 -0.6915 -0.2834
13656TIP3    H162459   5.557   4.447  12.303  0.3476 -0.5370  0.6425
13656TIP3    H262460   5.564   4.579  12.377 -0.6721  0.6032 -1.2093
13657TIP3   OH262461   1.011   2.812  15.578  0.6099  0.0867  0.2487
13657TIP3    H162462   1.017   2.864  15.658  2.6235  0.1492  0.1183
13657TIP3    H262463   1.029   2.722  15.605 -2.4276 -0.5677  0.4013
13658TIP3   OH262464   4.625   5.279   2.289 -0.0209  0.0851 -0.0737
13658TIP3    H162465   4.664   5.366   2.298  0.4751 -0.0791 -0.6312
13658TIP3    H262466   4.693   5.225   2.249 -1.0864  0.0144 -1.9241
13659TIP3   OH262467   1.707   2.259  14.103 -0.3452 -0.5082 -0.4065
13659TIP3    H162468   1.653   2.180  14.112 -1.1258  0.0646  0.1305
13659TIP3    H262469   1.647   2.324  14.064  0.1914 -0.0856 -0.5329
13660TIP3   OH262470   3.736   4.041   3.256 -0.0933 -0.0792  0.4595
13660TIP3    H162471   3.746   3.947   3.273 -1.1420 -0.0534  1.3691
13660TIP3    H262472   3.793   4.083   3.321  0.6986 -0.0852 -0.2225
13661TIP3   OH262473   4.529   0.076  14.911  0.1410  0.3307 -0.0159
13661TIP3    H162474   4.597   0.012  14.890 -1.7757 -1.4631 -1.1615
13661TIP3    H262475   4.550   0.105  15.000  1.4313 -1.4456  0.3110
13662TIP3   OH262476   0.742   3.072  12.407  0.2553  0.0171  0.2078
13662TIP3    H162477   0.711   3.161  12.394  1.6124  0.4080 -0.5119
13662TIP3    H262478   0.696   3.020  12.341 -0.5587  0.1639  0.6496
13663TIP3   OH262479   1.672   5.943  13.156 -0.1158  0.2447  0.1614
13663TIP3    H162480   1.724   5.996  13.096  0.6902  0.6973  1.2167
13663TIP3    H262481   1.733   5.879  13.192  0.0928  1.5517  2.3333
13664TIP3   OH262482   0.127   2.683   4.922 -0.4228 -0.2410 -0.1167
13664TIP3    H162483   0.113   2.614   4.987 -0.8936 -1.0292 -1.0365
13664TIP3    H262484   0.045   2.732   4.921  0.2493  0.9675  1.2416
13665TIP3   OH262485   6.476   1.766   5.789  0.3037  0.2252  0.3001
13665TIP3    H162486   6.466   1.738   5.880 -0.4516  0.2024  0.2165
13665TIP3    H262487   6.558   1.727   5.761  0.1837 -0.3650  0.7569
13666TIP3   OH262488   6.292   0.362  16.696  0.0026  0.4308  0.4359
13666TIP3    H162489   6.208   0.361  16.741 -0.2501  0.5883 -0.0318
13666TIP3    H262490   6.270   0.374  16.604  0.4258 -1.3318  0.0757
13667TIP3   OH262491   6.277   1.929   5.697 -0.1828 -0.2536  0.8187
13667TIP3    H162492   6.338   1.868   5.740 -1.8849 -1.6419  1.3940
13667TIP3    H262493   6.190   1.892   5.716 -1.2759  2.2326  0.9488
13668TIP3   OH262494   5.004   1.736   1.658 -0.0677  0.0093 -1.0237
13668TIP3    H162495   5.076   1.673   1.667 -0.1862  0.0533  0.2934
13668TIP3    H262496   4.940   1.711   1.723  0.8231  2.7326  1.1079
13669TIP3   OH262497   1.268   2.828   6.835 -0.0667 -0.0351  0.1518
13669TIP3    H162498   1.197   2.875   6.878 -0.6584 -1.0035  0.2616
13669TIP3    H262499   1.266   2.860   6.744 -0.6832 -0.1023  0.1360
13670TIP3   OH262500   2.071   1.889   4.762 -0.9821  0.3128  0.3599
13670TIP3    H162501   2.085   1.930   4.847 -0.5847  0.8867  0.0175
13670TIP3    H262502   2.156   1.890   4.720 -1.1194 -0.2209  0.0575
13671TIP3   OH262503   5.514   4.878   1.392  0.0458 -0.2258 -0.2709
13671TIP3    H162504   5.573   4.872   1.316  0.2433 -0.7102 -0.0767
13671TIP3    H262505   5.546   4.813   1.453  0.7830  1.1361  0.8627
13672TIP3   OH262506   2.035   2.573   3.557 -0.0769 -0.0081  0.0089
13672TIP3    H162507   2.090   2.515   3.505  1.4710  1.9560 -0.6623
13672TIP3    H262508   2.034   2.656   3.509 -1.8051  0.7167  1.1656
13673TIP3   OH262509   1.769   0.854  16.708  0.2898 -0.5905  0.0648
13673TIP3    H162510   1.846   0.888  16.663  0.8498 -3.0773 -1.0274
13673TIP3    H262511   1.696   0.872  16.650  0.0060  1.6129  1.0204
13674TIP3   OH262512   5.218   2.407  11.807 -0.1872 -0.2932 -0.1462
13674TIP3    H162513   5.288   2.352  11.843 -0.1340 -0.1931 -0.0958
13674TIP3    H262514   5.194   2.364  11.725  0.0615 -0.2264 -0.2550
13675TIP3   OH262515   0.829   0.820  12.733  0.5997  0.2279  0.1587
13675TIP3    H162516   0.813   0.887  12.799 -0.6206 -0.0717  0.1867
13675TIP3    H262517   0.867   0.867  12.659  0.3725  0.8329  0.4257
13676TIP3   OH262518   0.373   4.637  11.320 -0.7414  0.2201  0.2502
13676TIP3    H162519   0.357   4.579  11.246 -0.7994  0.7176 -0.1321
13676TIP3    H262520   0.468   4.639  11.329 -0.7198  0.4373 -0.0324
13677TIP3   OH262521   1.372   1.922   1.265  0.1863 -0.2399  0.0524
13677TIP3    H162522   1.360   1.828   1.251 -0.2487 -0.6819  2.7887
13677TIP3    H262523   1.440   1.927   1.332 -0.8081  1.3119  1.0003
13678TIP3   OH262524   5.510   0.179   0.477 -0.0111 -0.1311  0.5027
13678TIP3    H162525   5.580   0.213   0.421  0.7726 -0.5309  1.2254
13678TIP3    H262526   5.437   0.163   0.417  0.8594 -0.6853 -0.4305
13679TIP3   OH262527   4.101   2.242   5.122 -0.0149  0.8658  0.7408
13679TIP3    H162528   4.105   2.156   5.163  1.5125 -0.0156 -1.0904
13679TIP3    H262529   4.081   2.302   5.194 -0.7328 -0.9522  2.1324
13680TIP3   OH262530   3.957   5.419  12.109  0.5028 -0.0327  0.1850
13680TIP3    H162531   3.962   5.341  12.164  0.5824  0.3175  0.6700
13680TIP3    H262532   3.987   5.490  12.164  2.0714  0.0943 -0.7748
13681TIP3   OH262533   1.573   2.424  11.834 -0.3184  0.1528 -0.2600
13681TIP3    H162534   1.649   2.464  11.794  0.1137  1.2336  1.5204
13681TIP3    H262535   1.550   2.482  11.907 -1.8059 -1.0294  0.2857
13682TIP3   OH262536   0.466   6.095  15.229 -0.2284  0.2596 -0.3561
13682TIP3    H162537   0.408   6.032  15.271  0.0257  0.0876 -0.2570
13682TIP3    H262538   0.512   6.138  15.301  0.1920 -0.0202 -0.4551
13683TIP3   OH262539   3.484   1.535  14.970  0.1876 -0.2854  0.7015
13683TIP3    H162540   3.404   1.483  14.981  0.2649 -0.2299  1.5741
13683TIP3    H262541   3.476   1.574  14.883 -0.3296 -0.9761  0.4362
13684TIP3   OH262542   5.499   2.953   0.930 -0.4671  0.5147  0.5290
13684TIP3    H162543   5.521   2.883   0.870 -1.7158 -1.3911  2.1723
13684TIP3    H262544   5.524   2.919   1.017  0.9593  3.0056  1.2021
13685TIP3   OH262545   3.533   0.846   2.500 -0.0060  0.0875 -0.0165
13685TIP3    H162546   3.473   0.773   2.512  0.8254 -0.9018 -1.6614
13685TIP3    H262547   3.619   0.812   2.526  0.4977  0.2529 -1.3958
13686TIP3   OH262548   2.794   3.952   0.588  0.7295 -0.0231 -0.9506
13686TIP3    H162549   2.702   3.960   0.565  0.4886  0.0315 -0.0115
13686TIP3    H262550   2.823   4.042   0.605  0.7382 -0.1176 -0.4546
13687TIP3   OH262551   1.463   5.279   3.884  0.2740 -0.4519  0.0626
13687TIP3    H162552   1.482   5.362   3.840 -1.0725 -0.8863 -1.4447
13687TIP3    H262553   1.500   5.212   3.827  0.3455 -0.9456  0.6797
13688TIP3   OH262554   1.961   6.421   4.783  0.9131 -0.8631 -0.1381
13688TIP3    H162555   1.999   6.481   4.846  0.2308 -0.0409 -0.4916
13688TIP3    H262556   2.032   6.402   4.722  1.2707 -0.8173  0.2559
13689TIP3   OH262557   0.854   3.822   5.084  0.1268 -0.4386  0.2082
13689TIP3    H162558   0.771   3.781   5.109  0.5024 -0.9298  0.6771
13689TIP3    H262559   0.832   3.874   5.006 -0.6129 -0.5740  0.3120
13690TIP3   OH262560   3.380   1.928   4.678 -0.4770 -0.4209 -0.3615
13690TIP3    H162561   3.300   1.978   4.661 -1.3736 -1.9571 -0.8383
13690TIP3    H262562   3.355   1.864   4.744  0.5176 -0.5821 -0.1197
13691TIP3   OH262563   6.687   4.657  13.101 -0.1353 -0.5424 -0.0159
13691TIP3    H162564   6.706   4.726  13.039 -0.1687 -1.7274 -1.3961
13691TIP3    H262565   6.757   4.662  13.166 -0.8257  1.5463  0.6376
13692TIP3   OH262566   3.915   3.682   5.557  0.1764  0.7133  0.2411
13692TIP3    H162567   3.989   3.649   5.506 -0.1676 -0.3372  0.3910
13692TIP3    H262568   3.954   3.739   5.624  0.7886  0.6263 -0.0440
13693TIP3   OH262569   1.341   5.476   2.616 -0.3956  0.2195  0.3815
13693TIP3    H162570   1.385   5.556   2.644  3.0467 -1.7118  1.0626
13693TIP3    H262571   1.322   5.491   2.523 -1.1660  2.3036  0.8237
13694TIP3   OH262572   1.789   2.104  10.277 -0.2487  0.3635 -0.3601
13694TIP3    H162573   1.729   2.148  10.337  0.6600 -0.1469  0.9752
13694TIP3    H262574   1.760   2.012  10.279 -0.7062  0.4738 -1.3463
13695TIP3   OH262575   3.956   2.015   4.797 -0.0521 -0.1027 -0.3587
13695TIP3    H162576   4.047   2.010   4.769  0.8473  1.6590  1.9580
13695TIP3    H262577   3.945   1.942   4.857  0.2808  0.5051  0.4543
13696TIP3   OH262578   1.263   5.990  14.773  0.5995  0.4560  0.7229
13696TIP3    H162579   1.168   5.989  14.763  0.3134  1.1790  2.7291
13696TIP3    H262580   1.297   5.991  14.684 -1.2743  0.5800 -0.0399
13697TIP3   OH262581   5.654   2.398   4.763  0.5965 -0.8139 -0.2976
13697TIP3    H162582   5.584   2.460   4.744  0.4717 -1.6597 -2.9811
13697TIP3    H262583   5.682   2.420   4.852 -0.7880  1.7348 -0.3983
13698TIP3   OH262584   6.487   6.676  13.979 -0.2685  0.1435  0.5852
13698TIP3    H162585   6.492   6.581  13.985 -1.6154 -0.1884 -2.1120
13698TIP3    H262586   6.578   6.706  13.981  0.2693 -1.3550 -0.1058
13699TIP3   OH262587   4.996   4.688   0.058 -0.1595 -0.4200 -0.1676
13699TIP3    H162588   4.932   4.752   0.089 -0.8017 -0.5573 -1.1456
13699TIP3    H262589   4.961   4.603   0.085 -0.3243 -0.4852 -0.5731
13700TIP3   OH262590   1.709   4.786  16.732 -0.3407  0.3012 -0.2725
13700TIP3    H162591   1.630   4.811  16.778  0.0926 -0.4897  0.9666
13700TIP3    H262592   1.763   4.742  16.798  0.6504 -0.1816 -1.3470
13701TIP3   OH262593   3.620   2.592   1.855  0.2863 -0.2819  0.3846
13701TIP3    H162594   3.583   2.677   1.831  1.5742  0.3569  0.5585
13701TIP3    H262595   3.570   2.528   1.805 -0.7613  0.5686  0.3131
13702TIP3   OH262596   6.388   5.665   3.686 -0.5441 -0.1017 -0.2397
13702TIP3    H162597   6.304   5.646   3.727  0.1928 -1.2465  0.8590
13702TIP3    H262598   6.421   5.579   3.658 -0.1845  0.4471 -1.5586
13703TIP3   OH262599   0.331   2.378   5.048 -0.2865 -0.0810 -0.3362
13703TIP3    H162600   0.400   2.441   5.070  0.5378 -0.7005 -1.0546
13703TIP3    H262601   0.339   2.309   5.113 -1.2086  0.5403  0.4678
13704TIP3   OH262602   0.503   1.193   0.605 -0.1619 -0.0681  0.2559
13704TIP3    H162603   0.548   1.110   0.616  0.2574 -0.1500 -1.6858
13704TIP3    H262604   0.439   1.196   0.676 -1.7483 -3.1129 -0.8750
13705TIP3   OH262605   3.893   5.249  16.722 -0.3065 -0.0914  0.4535
13705TIP3    H162606   3.883   5.257  16.817 -1.3453 -2.2498  0.5830
13705TIP3    H262607   3.808   5.218  16.692  0.0886  0.3413 -1.1818
13706TIP3   OH262608   3.657   5.667   1.281 -0.6870  0.1203  0.0326
13706TIP3    H162609   3.574   5.646   1.324 -0.2216 -1.1174  0.3741
13706TIP3    H262610   3.689   5.582   1.248  0.1661  0.6635 -0.5806
13707TIP3   OH262611   4.559   1.509  11.439 -0.1795  0.0976  0.4764
13707TIP3    H162612   4.501   1.575  11.403 -0.1926 -0.6437 -0.9481
13707TIP3    H262613   4.523   1.489  11.526 -1.4113  0.4167  0.0544
13708TIP3   OH262614   0.645   3.810  13.488  0.0150  0.1785 -0.0314
13708TIP3    H162615   0.626   3.806  13.582  0.8923  1.1703  0.2021
13708TIP3    H262616   0.595   3.885  13.457 -0.7263 -0.4836 -0.4883
13709TIP3   OH262617   4.315   3.850   2.978 -0.0864  0.0770 -0.1168
13709TIP3    H162618   4.329   3.787   3.049  2.2420 -1.2535 -1.6149
13709TIP3    H262619   4.368   3.817   2.906 -1.2500  2.1260 -2.0478
13710TIP3   OH262620   5.876   0.609  14.949 -0.4197  0.0856 -0.3289
13710TIP3    H162621   5.795   0.611  15.001 -0.4815  1.1154 -0.4429
13710TIP3    H262622   5.922   0.531  14.980 -0.7692  0.3066  0.7985
13711TIP3   OH262623   6.727   2.534   2.565  0.3264  0.0998 -0.1356
13711TIP3    H162624   6.761   2.571   2.483 -2.1005  2.8000 -0.0742
13711TIP3    H262625   6.665   2.468   2.537  2.2037 -1.6934 -0.3073
13712TIP3   OH262626   2.190   3.227  11.923 -0.2094 -0.6584 -0.1106
13712TIP3    H162627   2.116   3.169  11.939  0.3283 -1.4152 -0.2976
13712TIP3    H262628   2.151   3.306  11.886 -0.9782 -0.7989  0.3689
13713TIP3   OH262629   2.409   1.946   4.864  0.3931  0.0677 -0.2988
13713TIP3    H162630   2.365   1.869   4.828  0.7809 -0.4967  0.4078
13713TIP3    H262631   2.412   1.930   4.958  2.7034 -0.2434 -0.3741
13714TIP3   OH262632   3.296   4.405   3.837 -0.0342 -0.1606  0.1617
13714TIP3    H162633   3.325   4.344   3.770  0.2939  0.6101 -0.4157
13714TIP3    H262634   3.201   4.396   3.839 -0.0990  0.1818 -0.7916
13715TIP3   OH262635   2.254   1.524  13.307  0.5872 -0.1710  0.1552
13715TIP3    H162636   2.177   1.470  13.320  0.2659  0.5755  1.5239
13715TIP3    H262637   2.291   1.495  13.224 -1.4059 -0.2315 -0.7406
13716TIP3   OH262638   3.660   1.449  12.608 -0.2774  0.1775 -0.0298
13716TIP3    H162639   3.632   1.530  12.567  1.4957  0.3928 -0.9168
13716TIP3    H262640   3.662   1.385  12.537 -0.4320 -0.3273  0.4092
13717TIP3   OH262641   6.464   2.240   1.467  0.2087  0.0191 -0.4171
13717TIP3    H162642   6.404   2.307   1.502  0.2449 -0.0441 -0.2370
13717TIP3    H262643   6.551   2.276   1.483  0.2218  0.1083 -0.6748
13718TIP3   OH262644   3.527   2.398  16.088 -0.4928 -0.3434  0.1129
13718TIP3    H162645   3.589   2.339  16.044  0.1763  0.4004  0.0384
13718TIP3    H262646   3.565   2.485  16.078 -0.9344 -0.0138  1.1326
13719TIP3   OH262647   2.619   5.924  16.699 -0.2448  0.2765  0.0181
13719TIP3    H162648   2.629   5.938  16.793  1.9669  2.7486 -0.4988
13719TIP3    H262649   2.699   5.879  16.672 -1.5398 -1.8745 -0.5242
13720TIP3   OH262650   2.407   2.153  11.367  0.2938 -0.1745 -0.6328
13720TIP3    H162651   2.315   2.154  11.339  0.6890 -1.5298 -2.1528
13720TIP3    H262652   2.418   2.068  11.409  0.8496  0.0226 -0.3697
13721TIP3   OH262653   2.175   3.351  12.859  0.0572 -0.1252 -0.3019
13721TIP3    H162654   2.238   3.397  12.914  0.6085 -0.5028 -0.6134
13721TIP3    H262655   2.158   3.269  12.906  0.7274 -0.5641 -0.8183
13722TIP3   OH262656   4.630   5.382   1.475  0.2275 -0.5512 -0.4460
13722TIP3    H162657   4.561   5.430   1.521  1.6001 -0.1570  1.3331
13722TIP3    H262658   4.656   5.438   1.403  0.0037  0.1787  0.0359
13723TIP3   OH262659   0.826   6.571   2.962 -0.5421 -0.4653  0.0453
13723TIP3    H162660   0.790   6.627   3.031  0.1149  0.6806 -0.5098
13723TIP3    H262661   0.767   6.584   2.888  0.7844  1.2159 -0.7828
13724TIP3   OH262662   6.566   0.495  16.880  0.9350 -0.3931  0.1231
13724TIP3    H162663   6.514   0.437  16.935 -1.6046  1.2756 -0.3720
13724TIP3    H262664   6.639   0.441  16.850 -0.4900 -2.8676  0.8826
13725TIP3   OH262665   5.078   5.972   2.068  0.0487 -0.1432  0.3520
13725TIP3    H162666   5.030   5.889   2.061  0.8264 -0.4825 -1.5163
13725TIP3    H262667   5.149   5.953   2.129  0.0928 -0.8082  0.1086
13726TIP3   OH262668   1.128   2.747  17.030  0.5339  0.0356 -0.3381
13726TIP3    H162669   1.175   2.686  17.086 -0.4391 -0.3969  0.0309
13726TIP3    H262670   1.196   2.804  16.994  1.6997 -2.1959 -1.9532
13727TIP3   OH262671   6.680   5.535  15.307 -0.3317 -0.6961 -0.0531
13727TIP3    H162672   6.646   5.446  15.291  1.8962 -1.3518 -1.5381
13727TIP3    H262673   6.654   5.584  15.229  0.0222 -0.5529 -0.0805
13728TIP3   OH262674   2.135   6.697   0.923  0.5231 -0.0899 -0.1107
13728TIP3    H162675   2.152   6.774   0.977  1.5100  0.1756 -0.7598
13728TIP3    H262676   2.041   6.699   0.906  0.2133 -0.0985  1.4412
13729TIP3   OH262677   5.016   3.433   0.982  0.0196  0.0021  1.1253
13729TIP3    H162678   5.070   3.354   0.989 -0.7406 -0.7886 -1.0528
13729TIP3    H262679   5.046   3.489   1.054  2.4014 -1.1817  1.1518
13730TIP3   OH262680   6.321   4.436   4.076  0.3583 -0.0393  0.7466
13730TIP3    H162681   6.270   4.473   4.004  0.4921 -0.4387  0.4447
13730TIP3    H262682   6.359   4.512   4.120 -1.3147  0.3504  1.6112
13731TIP3   OH262683   3.118   3.274  13.082  0.1684 -0.0758  0.4316
13731TIP3    H162684   3.136   3.184  13.053  0.3912  0.3380 -0.7617
13731TIP3    H262685   3.128   3.327  13.003 -0.2705  0.9666  1.0597
13732TIP3   OH262686   0.000   4.960   3.334 -0.0745 -0.3155  0.2548
13732TIP3    H162687  -0.051   4.879   3.338 -0.0368 -0.4018 -0.7420
13732TIP3    H262688   0.028   4.975   3.424 -0.6241 -1.0614  0.5612
13733TIP3   OH262689   4.635   3.096  12.327  0.6031 -0.3368 -0.3141
13733TIP3    H162690   4.725   3.109  12.296  1.0361 -1.4922  0.4089
13733TIP3    H262691   4.641   3.107  12.422 -0.1262  0.0575 -0.3053
13734TIP3   OH262692   1.236   0.929  15.098  0.1640  0.4157  0.1409
13734TIP3    H162693   1.296   0.854  15.099  1.2494  1.2133 -0.8654
13734TIP3    H262694   1.225   0.952  15.190  3.1829  1.5221  0.3571
13735TIP3   OH262695   1.261   2.547   3.224 -0.0907 -0.3729  0.1687
13735TIP3    H162696   1.253   2.465   3.175  0.0921 -0.8025  0.8540
13735TIP3    H262697   1.195   2.605   3.184  0.2781 -0.5964 -0.8070
13736TIP3   OH262698   5.197   3.506  12.767 -0.1651 -0.3920 -0.2767
13736TIP3    H162699   5.292   3.502  12.762 -0.2171 -0.6207 -1.4017
13736TIP3    H262700   5.178   3.524  12.859  0.8889 -2.4385  0.3946
13737TIP3   OH262701   1.449   0.311  10.886 -0.0853 -0.0267 -0.1873
13737TIP3    H162702   1.476   0.257  10.811 -1.0166  1.0477 -1.3517
13737TIP3    H262703   1.495   0.273  10.961 -1.0255 -2.7215 -0.8379
13738TIP3   OH262704   4.875   3.569  13.675  0.3339  0.0605  0.3255
13738TIP3    H162705   4.857   3.476  13.689 -3.2620  0.7917  1.4345
13738TIP3    H262706   4.902   3.601  13.761  0.1410  0.3211  0.2880
13739TIP3   OH262707   3.379   3.401   4.494 -0.2204 -0.2913  0.1181
13739TIP3    H162708   3.331   3.341   4.438  0.0845  1.8164 -2.6199
13739TIP3    H262709   3.320   3.476   4.506 -0.0599 -0.4291  2.2696
13740TIP3   OH262710   2.968   5.494   1.654 -0.4849 -0.0690  0.1101
13740TIP3    H162711   2.900   5.502   1.588  0.5092  3.0167 -0.6867
13740TIP3    H262712   2.977   5.582   1.691  2.2769 -0.6069  0.9858
13741TIP3   OH262713   2.207   6.407   4.629  0.0452  0.3213  0.0816
13741TIP3    H162714   2.294   6.400   4.668 -0.0549 -1.0933  0.1013
13741TIP3    H262715   2.218   6.466   4.555  1.1697 -0.3407 -0.2965
13742TIP3   OH262716   3.168   6.254   2.826  0.0941 -0.0173  0.0063
13742TIP3    H162717   3.262   6.270   2.834 -0.1096  1.4272 -0.2192
13742TIP3    H262718   3.128   6.334   2.859 -1.0106  0.2353 -1.8074
13743TIP3   OH262719   4.128   4.293  16.886  0.0053 -0.1878 -0.0674
13743TIP3    H162720   4.145   4.386  16.896 -2.1698  0.2484  0.1459
13743TIP3    H262721   4.127   4.279  16.791 -0.3749  0.1807 -0.1231
13744TIP3   OH262722   1.193   1.438   0.799  0.1392 -0.1822  0.5479
13744TIP3    H162723   1.151   1.383   0.865  0.0021  0.7846  1.2851
13744TIP3    H262724   1.263   1.483   0.845  0.3273  0.1714 -0.0670
13745TIP3   OH262725   4.047   2.791   4.569  0.1673 -0.0941 -0.4357
13745TIP3    H162726   3.957   2.757   4.571 -0.2082  0.8887  0.6560
13745TIP3    H262727   4.037   2.883   4.543  0.7927  0.1918  0.3113
13746TIP3   OH262728   0.056   5.881   5.787 -0.7703 -0.3508  0.5722
13746TIP3    H162729   0.061   5.865   5.881 -1.7748 -1.2867  0.4958
13746TIP3    H262730  -0.008   5.816   5.756  0.4176 -0.8489 -0.9273
13747TIP3   OH262731   5.503   4.387   2.002  0.2449  0.6865  0.0821
13747TIP3    H162732   5.452   4.448   2.057 -1.6190  0.0258 -0.8153
13747TIP3    H262733   5.487   4.417   1.913  0.5331 -0.2282 -0.2822
13748TIP3   OH262734   5.335   3.314   3.475 -0.2322  0.1304 -0.2957
13748TIP3    H162735   5.261   3.364   3.440 -0.7535  0.0816  0.7110
13748TIP3    H262736   5.367   3.366   3.548  2.1734  1.2736 -2.0231
13749TIP3   OH262737   0.792   2.828   6.490  0.0140  0.3293 -0.9091
13749TIP3    H162738   0.792   2.835   6.394 -1.1896  0.7497 -0.8918
13749TIP3    H262739   0.862   2.887   6.518  1.1082 -0.6145 -1.5653
13750TIP3   OH262740   3.146   5.583   4.676  0.2659  0.2539 -0.3284
13750TIP3    H162741   3.120   5.516   4.613  3.9415 -0.4835 -1.2909
13750TIP3    H262742   3.132   5.542   4.761  2.8074 -2.1044 -0.8968
13751TIP3   OH262743   2.487   1.470  10.804  0.3599 -0.4158 -0.4290
13751TIP3    H162744   2.494   1.398  10.741  0.5715 -0.4867 -0.3256
13751TIP3    H262745   2.571   1.468  10.851  0.0244 -0.6551  0.1692
13752TIP3   OH262746   2.029   0.957  16.617  0.2747 -0.1633 -0.0086
13752TIP3    H162747   2.058   0.983  16.704 -0.6327  0.6785  0.0646
13752TIP3    H262748   2.109   0.953  16.565  0.6175  1.4748  0.3373
13753TIP3   OH262749   2.594   2.893  10.976  0.2307  0.2484  0.2060
13753TIP3    H162750   2.505   2.913  11.003  0.1537  1.2618 -0.7437
13753TIP3    H262751   2.607   2.801  11.001 -0.6406  0.4456  1.4730
13754TIP3   OH262752   1.472   0.626  13.625 -0.1702 -0.0356  0.0201
13754TIP3    H162753   1.479   0.582  13.540 -2.2581 -0.1771 -0.1349
13754TIP3    H262754   1.440   0.714  13.603 -1.4203 -0.3032  0.6687
13755TIP3   OH262755   6.043   0.317  11.224 -0.5440  0.0393 -0.2992
13755TIP3    H162756   6.013   0.266  11.148 -1.0338  0.9609 -0.7364
13755TIP3    H262757   6.081   0.397  11.186  1.3864 -0.5201  0.2957
13756TIP3   OH262758   0.545   1.709   0.224 -0.0813 -0.3988  0.3607
13756TIP3    H162759   0.484   1.702   0.150 -1.4287 -0.9321  1.4777
13756TIP3    H262760   0.589   1.624   0.225  0.5336 -0.0955 -0.3122
13757TIP3   OH262761   5.379   0.038  13.695  0.2390  0.0138 -0.2962
13757TIP3    H162762   5.285   0.041  13.712  0.3962 -1.1164  0.9265
13757TIP3    H262763   5.418   0.088  13.767  0.6811 -1.3075  0.4061
13758TIP3   OH262764   1.537   6.383  11.152  0.0205  0.3209  0.3893
13758TIP3    H162765   1.472   6.370  11.222  0.7848  1.8133  1.4285
13758TIP3    H262766   1.576   6.468  11.171 -0.0650  1.0147 -2.1544
13759TIP3   OH262767   1.148   1.199  10.823 -0.1587  0.5298  0.2733
13759TIP3    H162768   1.225   1.230  10.776  1.0686  1.1454  2.5469
13759TIP3    H262769   1.083   1.269  10.811  0.1753  0.7500 -0.3161
13760TIP3   OH262770   5.966   5.571   4.731 -0.6030 -0.4155  0.1391
13760TIP3    H162771   6.051   5.532   4.751 -0.4885 -0.3311 -0.1874
13760TIP3    H262772   5.960   5.647   4.789 -0.2696 -0.1705 -0.1513
13761TIP3   OH262773   1.786   5.102  16.039 -0.4766  0.5763  0.0084
13761TIP3    H162774   1.772   5.103  16.133 -0.5120 -1.9146  0.0879
13761TIP3    H262775   1.739   5.025  16.008  0.6083  0.6036 -1.8587
13762TIP3   OH262776   3.475   4.747  15.879 -0.1956 -0.3601  0.3991
13762TIP3    H162777   3.544   4.681  15.875 -0.2130 -0.5947  2.5020
13762TIP3    H262778   3.468   4.781  15.790  1.1480 -1.8258 -0.3131
13763TIP3   OH262779   5.089   4.002  12.821  0.2926 -0.6042 -0.2449
13763TIP3    H162780   5.168   4.016  12.872 -0.1273  0.6389  0.1177
13763TIP3    H262781   5.054   3.919  12.853  0.6634 -0.4267  0.6675
13764TIP3   OH262782   3.497   5.024   5.968  0.5428  0.4437  0.5563
13764TIP3    H162783   3.550   5.034   5.890 -0.2902  0.7717  0.0176
13764TIP3    H262784   3.536   4.950   6.015  0.7012 -0.1187 -0.4534
13765TIP3   OH262785   0.714   2.625   4.513 -0.0325 -0.1986  0.6919
13765TIP3    H162786   0.631   2.580   4.530  0.9244 -1.5275  2.1310
13765TIP3    H262787   0.779   2.571   4.557  1.8013  0.0750 -1.5283
13766TIP3   OH262788   0.778   1.080  11.531  0.0583 -0.5383  0.4394
13766TIP3    H162789   0.734   1.051  11.450  0.4455 -1.1210  0.4322
13766TIP3    H262790   0.718   1.053  11.601 -0.5801  0.5333  0.3204
13767TIP3   OH262791   4.033   4.427   1.091 -0.6314 -0.4677 -0.4191
13767TIP3    H162792   4.009   4.363   1.158 -5.7828  0.7440 -0.6645
13767TIP3    H262793   4.050   4.375   1.013 -0.9876 -1.6791  0.2804
13768TIP3   OH262794   5.872   0.427   5.495  0.0596  0.1441  0.3063
13768TIP3    H162795   5.896   0.336   5.511 -0.6275 -0.3356 -1.1623
13768TIP3    H262796   5.786   0.421   5.452  0.6155  1.4029 -1.0444
13769TIP3   OH262797   0.067   4.633   4.414 -0.2919 -0.1844  0.0291
13769TIP3    H162798   0.051   4.719   4.452  0.7281 -1.1411  2.8895
13769TIP3    H262799  -0.016   4.586   4.425 -0.5012  0.0546 -0.4903
13770TIP3   OH262800   0.395   4.919   6.063  0.5960  0.3987  0.1592
13770TIP3    H162801   0.409   4.983   6.132 -1.1227  2.4307 -1.2471
13770TIP3    H262802   0.334   4.855   6.101  0.5986  0.8146  0.8770
13771TIP3   OH262803   3.856   0.355   4.577  0.6226  0.3562  0.2383
13771TIP3    H162804   3.941   0.339   4.536 -0.6080 -1.6233 -1.7389
13771TIP3    H262805   3.843   0.281   4.637  0.5425  0.9973  1.0376
13772TIP3   OH262806   2.846   5.613   5.640 -0.1509 -0.1842  0.2142
13772TIP3    H162807   2.858   5.670   5.565  1.6101 -0.3074  0.3588
13772TIP3    H262808   2.934   5.597   5.673 -0.8246 -0.6426  1.9380
13773TIP3   OH262809   1.116   1.892   4.370 -0.4779  0.5625 -0.1775
13773TIP3    H162810   1.115   1.901   4.274 -0.4907  0.5115 -0.1824
13773TIP3    H262811   1.028   1.861   4.392 -0.5292  0.7400 -0.1332
13774TIP3   OH262812   5.848   0.323  11.812  0.2678  0.4443 -0.1842
13774TIP3    H162813   5.805   0.285  11.888 -0.3168  0.8135 -0.3247
13774TIP3    H262814   5.798   0.291  11.737  0.7089  0.2571 -0.4068
13775TIP3   OH262815   2.792   2.731   1.008  0.5811 -0.1022  0.7081
13775TIP3    H162816   2.700   2.742   1.029  0.4733  0.4085 -0.0088
13775TIP3    H262817   2.802   2.638   0.988 -0.1696  0.1652 -1.0320
13776TIP3   OH262818   3.888   1.164  17.163 -0.6502 -0.2407 -0.2139
13776TIP3    H162819   3.870   1.187  17.072  0.8180  0.4516 -0.3614
13776TIP3    H262820   3.925   1.244  17.201  2.3475 -1.5650 -0.0653
13777TIP3   OH262821   2.471   2.328  12.658  0.3798  0.2576 -0.4233
13777TIP3    H162822   2.553   2.320  12.708  0.6097  0.3105 -0.7884
13777TIP3    H262823   2.414   2.260  12.694  0.2091  0.8955  0.5485
13778TIP3   OH262824   3.088   2.987   4.315 -0.0270 -0.1522  0.4529
13778TIP3    H162825   3.016   3.041   4.282 -1.0598 -2.2288 -0.9582
13778TIP3    H262826   3.063   2.965   4.404 -0.0025  0.9664  0.7497
13779TIP3   OH262827   4.455   1.425  12.512  0.0744  0.4519  0.7538
13779TIP3    H162828   4.362   1.448  12.512  0.6689  3.1588  0.2993
13779TIP3    H262829   4.497   1.496  12.561  1.8759 -0.9299  1.2947
13780TIP3   OH262830   0.297   1.264   5.399 -0.6876 -0.1699 -0.4476
13780TIP3    H162831   0.356   1.190   5.413 -0.9196 -0.5018 -1.2124
13780TIP3    H262832   0.308   1.318   5.478  0.7395 -0.1462 -0.6406
13781TIP3   OH262833   3.070   1.854  15.110 -0.0106 -0.1393 -0.4797
13781TIP3    H162834   3.007   1.892  15.049  1.1055 -0.0466 -1.6293
13781TIP3    H262835   3.155   1.873  15.071  0.7768  0.2471  1.3256
13782TIP3   OH262836   4.322   6.103  15.982 -0.2553  0.2680 -0.2961
13782TIP3    H162837   4.239   6.057  15.992  0.0202 -0.6920 -1.9356
13782TIP3    H262838   4.372   6.078  16.060 -0.8725 -0.5765 -0.1487
13783TIP3   OH262839   2.198   1.027   4.734  0.3574 -0.3486  0.2094
13783TIP3    H162840   2.271   1.023   4.797  0.3414  1.4419  0.3844
13783TIP3    H262841   2.225   1.093   4.670 -0.7552 -0.2649 -0.1965
13784TIP3   OH262842   2.014   6.330  15.856 -0.3423 -0.3024 -0.3402
13784TIP3    H162843   2.072   6.267  15.812 -0.3464  0.2924 -1.2129
13784TIP3    H262844   1.946   6.275  15.896  0.7570 -1.0082  0.6385
13785TIP3   OH262845   2.078   3.880   3.584 -0.9151  0.5374  0.0084
13785TIP3    H162846   2.014   3.947   3.608 -1.2795  0.1338  0.1714
13785TIP3    H262847   2.081   3.883   3.489 -0.1555  1.5001  0.0381
13786TIP3   OH262848   1.602   4.216  14.464 -0.7279 -0.2611  0.3136
13786TIP3    H162849   1.562   4.221  14.378  0.3882  1.1810 -0.1707
13786TIP3    H262850   1.654   4.136  14.462 -1.2799 -0.6208 -0.0680
13787TIP3   OH262851   4.410   1.623  12.741 -0.2206 -0.1207 -0.1722
13787TIP3    H162852   4.316   1.608  12.735 -0.1605 -1.1595  0.9706
13787TIP3    H262853   4.433   1.598  12.830  0.8665  1.8338  0.1562
13788TIP3   OH262854   4.600   1.929   0.914  0.0888  0.0310  0.2418
13788TIP3    H162855   4.647   1.968   0.841  1.6078 -1.5470  0.3275
13788TIP3    H262856   4.647   1.958   0.992 -1.3837  1.5134  0.6466
13789TIP3   OH262857   6.642   3.853   5.081 -0.4192 -0.1823  0.2898
13789TIP3    H162858   6.644   3.782   5.146 -2.5011  0.7758  1.4896
13789TIP3    H262859   6.696   3.922   5.119  0.7448 -0.6710 -0.3994
13790TIP3   OH262860   0.497   5.207  11.762  0.4113 -1.1238 -0.4269
13790TIP3    H162861   0.554   5.163  11.698  0.2436 -0.4756 -1.0389
13790TIP3    H262862   0.474   5.290  11.720  2.2310  0.4414  1.4449
13791TIP3   OH262863   2.747   1.337   4.114  0.1332 -0.0249  0.5214
13791TIP3    H162864   2.762   1.243   4.125  1.9004  0.0679 -0.6958
13791TIP3    H262865   2.796   1.377   4.185 -1.9259 -0.0168  2.0352
13792TIP3   OH262866   3.823   4.490   4.992  0.4931 -0.4670 -0.1943
13792TIP3    H162867   3.838   4.408   5.039  0.4383  0.9176  2.3709
13792TIP3    H262868   3.898   4.545   5.013  0.0380  0.5193 -1.0403
13793TIP3   OH262869   5.086   6.395   1.844  0.3833  0.9904  0.3797
13793TIP3    H162870   5.115   6.481   1.874  0.5281  1.2542 -0.4964
13793TIP3    H262871   5.107   6.336   1.917  2.8806  1.2098 -0.0548
13794TIP3   OH262872   5.018   6.796  12.168  0.6477  0.2376  0.0826
13794TIP3    H162873   4.930   6.762  12.181  0.2675  1.5502  1.2600
13794TIP3    H262874   5.068   6.723  12.130 -0.0459 -1.6957  2.6392
13795TIP3   OH262875   1.436   0.046   2.308 -0.0406 -0.1050  1.1289
13795TIP3    H162876   1.440   0.024   2.402 -1.0945  0.7632  1.3921
13795TIP3    H262877   1.517   0.095   2.292  0.7095 -1.2403  1.3018
13796TIP3   OH262878   2.479   4.791  10.892 -0.2365 -0.6685  0.1701
13796TIP3    H162879   2.572   4.803  10.873  0.1342 -1.4843  1.3457
13796TIP3    H262880   2.470   4.697  10.909 -1.4089 -0.7136 -0.5312
13797TIP3   OH262881   1.829   5.737   0.961  0.5512  0.2534  0.1285
13797TIP3    H162882   1.744   5.726   1.004 -0.0225 -0.6666 -1.1980
13797TIP3    H262883   1.812   5.796   0.888  0.8651 -0.5703 -0.6289
13798TIP3   OH262884   4.257   4.989   3.927 -0.3577 -0.6778 -0.0611
13798TIP3    H162885   4.302   4.936   3.862 -3.1479 -1.4422 -1.4875
13798TIP3    H262886   4.222   4.926   3.990 -1.4137 -0.3235 -0.2792
13799TIP3   OH262887   0.756   2.259  12.851 -0.1698 -0.2268 -0.1953
13799TIP3    H162888   0.732   2.319  12.780 -1.0356  0.1716  0.4051
13799TIP3    H262889   0.709   2.294  12.927  0.1740 -1.0605  0.4064
13800TIP3   OH262890   0.058   1.711  13.772 -0.2649  0.0410  0.2587
13800TIP3    H162891   0.000   1.675  13.840  0.4360  0.7881  1.2816
13800TIP3    H262892   0.055   1.646  13.702 -1.9414 -0.1826  0.4922
13801TIP3   OH262893   5.368   2.653  12.853  0.1074 -0.4601 -0.2968
13801TIP3    H162894   5.415   2.594  12.913  1.7538  0.9766 -0.0955
13801TIP3    H262895   5.289   2.604  12.828  0.8710 -2.2954  0.6925
13802TIP3   OH262896   6.816   1.860   5.485 -0.1427  0.1664  0.4494
13802TIP3    H162897   6.801   1.814   5.568 -1.0289 -1.4104 -0.5312
13802TIP3    H262898   6.738   1.915   5.474 -1.4730 -1.8309 -0.6880
13803TIP3   OH262899   2.528   4.632  14.490  0.1813  0.2936  0.0083
13803TIP3    H162900   2.471   4.687  14.543 -0.6520 -0.1908 -0.3595
13803TIP3    H262901   2.519   4.544  14.527  0.1792  0.0906 -0.4581
13804TIP3   OH262902   5.935   2.562   2.702 -0.0978 -0.0609  0.2193
13804TIP3    H162903   5.842   2.580   2.685  0.1006 -0.0599 -0.9658
13804TIP3    H262904   5.974   2.648   2.719 -0.3466 -0.0805  0.8873
13805TIP3   OH262905   0.737   4.821   5.185  0.0981  0.2089  0.0568
13805TIP3    H162906   0.707   4.755   5.248  0.3575 -0.2501 -0.2950
13805TIP3    H262907   0.706   4.789   5.101  1.3018 -0.1066 -0.2708
13806TIP3   OH262908   5.434   3.366   3.219 -0.0220 -0.1001  0.0997
13806TIP3    H162909   5.419   3.361   3.314 -0.4608 -0.5668  0.0118
13806TIP3    H262910   5.348   3.387   3.182 -0.1206 -1.1064 -0.2825
13807TIP3   OH262911   4.606   1.470   3.709  0.2740  0.1043 -0.0310
13807TIP3    H162912   4.608   1.566   3.706 -0.3682  0.1460  0.5884
13807TIP3    H262913   4.678   1.443   3.652  0.0196  0.9457 -0.7909
13808TIP3   OH262914   4.063   1.355  14.009  0.2718  0.0504  0.1133
13808TIP3    H162915   3.983   1.336  13.961 -1.0761  0.3734  2.1107
13808TIP3    H262916   4.130   1.303  13.966 -1.5683 -2.5057  0.1162
13809TIP3   OH262917   4.099   0.345   0.369  0.1815 -0.2936 -0.3337
13809TIP3    H162918   4.123   0.300   0.450 -0.9111 -0.6810 -0.2058
13809TIP3    H262919   4.088   0.437   0.394  2.8163  0.2018 -0.6743
13810TIP3   OH262920   3.129   2.030   2.797 -0.3202  0.6893 -0.1105
13810TIP3    H162921   3.192   2.028   2.869  1.8132 -0.5064 -1.9070
13810TIP3    H262922   3.055   1.978   2.828 -0.4227  1.9514  1.9703
13811TIP3   OH262923   1.171   2.712  13.125  0.3773 -0.1452  0.5051
13811TIP3    H162924   1.241   2.750  13.074  0.3163 -0.6880  0.0079
13811TIP3    H262925   1.208   2.702  13.213  0.3017  1.2930  0.7236
13812TIP3   OH262926   5.587   1.317  14.264  0.4589  0.0870 -0.7506
13812TIP3    H162927   5.579   1.397  14.318 -0.4876 -0.1577 -0.5073
13812TIP3    H262928   5.522   1.257  14.301  2.0883 -1.3325 -0.0380
13813TIP3   OH262929   1.612   3.257  13.648  0.2426 -0.1409 -0.2197
13813TIP3    H162930   1.658   3.283  13.568 -0.6628  1.0701 -0.3742
13813TIP3    H262931   1.665   3.291  13.719 -1.6402  3.7326 -0.4196
13814TIP3   OH262932   3.462   0.971  12.615  0.2433  0.1885  0.8491
13814TIP3    H162933   3.390   0.979  12.678  0.1934  0.9402  0.6938
13814TIP3    H262934   3.453   1.047  12.558  1.9252  1.0086  1.6187
13815TIP3   OH262935   1.256   1.839  15.109  0.0815  0.9483  0.2555
13815TIP3    H162936   1.197   1.893  15.057  2.3505  1.9648 -1.4726
13815TIP3    H262937   1.226   1.850  15.199 -1.6936  2.2054 -0.4335
13816TIP3   OH262938   2.412   2.337  17.276 -0.3561 -0.8297  0.0091
13816TIP3    H162939   2.383   2.274  17.210 -2.8055 -0.0285  0.2367
13816TIP3    H262940   2.351   2.411  17.268 -1.2226 -0.9677  3.5584
13817TIP3   OH262941   5.986   3.779  15.500 -0.3747  1.0166 -0.1097
13817TIP3    H162942   6.028   3.754  15.583  0.6867 -1.8692 -1.3896
13817TIP3    H262943   5.901   3.814  15.526 -0.8155 -1.4133  2.1888
13818TIP3   OH262944   5.504   2.511   3.087 -0.0103  0.2767  0.2951
13818TIP3    H162945   5.589   2.546   3.061 -0.3346  1.4551  0.7647
13818TIP3    H262946   5.445   2.533   3.014 -0.1086  0.2841  0.3760
13819TIP3   OH262947   4.950   5.055  16.064 -0.7124 -0.0914 -0.1508
13819TIP3    H162948   4.939   5.127  16.126 -1.7535  0.4409 -0.9347
13819TIP3    H262949   4.942   4.976  16.118 -1.3073  0.3710  0.4555
13820TIP3   OH262950   6.375   5.354  12.314 -0.0941 -0.1523 -0.4333
13820TIP3    H162951   6.365   5.437  12.268  1.3352 -0.3334 -1.1060
13820TIP3    H262952   6.319   5.363  12.392 -2.9173  0.0077 -2.3219
13821TIP3   OH262953   0.873   2.845   6.191 -0.1401  0.7261  0.1031
13821TIP3    H162954   0.899   2.866   6.101 -2.3586  0.6279 -0.6147
13821TIP3    H262955   0.952   2.806   6.230  0.6183 -0.0721 -2.0689
13822TIP3   OH262956   1.818   1.790  10.531  0.1662 -0.2301 -0.8792
13822TIP3    H162957   1.765   1.713  10.554  1.1216 -1.4358 -2.4513
13822TIP3    H262958   1.893   1.786  10.591 -0.1779 -0.0699 -0.4365
13823TIP3   OH262959   2.839   1.691   4.155  0.4281  0.2948  0.1995
13823TIP3    H162960   2.834   1.665   4.247  0.9059  1.0886  0.4603
13823TIP3    H262961   2.932   1.712   4.141  0.5116 -0.5981 -0.6843
13824TIP3   OH262962   0.533   0.209   1.732 -0.0468  0.4517 -0.5835
13824TIP3    H162963   0.607   0.208   1.793 -1.3313 -0.9549  1.0862
13824TIP3    H262964   0.467   0.263   1.776 -1.7886 -2.2892  0.4479
13825TIP3   OH262965   4.738   4.829  15.413 -0.2356  0.4666 -0.1514
13825TIP3    H162966   4.715   4.822  15.506 -2.2787  0.2758 -0.6215
13825TIP3    H262967   4.797   4.904  15.408  0.8112 -0.1925  1.4248
13826TIP3   OH262968   1.319   1.452   5.723  0.2059 -0.1055  0.0087
13826TIP3    H162969   1.263   1.375   5.726 -0.8201  0.5686 -0.8855
13826TIP3    H262970   1.274   1.511   5.662  0.3361  1.6718  1.5538
13827TIP3   OH262971   4.194   5.595   2.133 -0.3652  0.3345  0.8598
13827TIP3    H162972   4.161   5.678   2.165 -1.9656  0.2623 -0.4923
13827TIP3    H262973   4.117   5.538   2.130  0.6909 -1.2317  1.7719
13828TIP3   OH262974   5.792   5.296  11.269 -0.0391 -0.7335  0.0118
13828TIP3    H162975   5.871   5.310  11.217 -0.8726 -2.1325 -1.7385
13828TIP3    H262976   5.824   5.252  11.348  1.1899  0.9523  0.5136
13829TIP3   OH262977   2.250   6.567  11.430  0.5520  0.3283  0.2002
13829TIP3    H162978   2.265   6.562  11.524 -0.1821 -1.5990  0.2617
13829TIP3    H262979   2.175   6.625  11.421 -0.6748 -1.0685  1.0088
13830TIP3   OH262980   2.049   1.632  15.333  0.1945  0.3998  0.0184
13830TIP3    H162981   1.959   1.663  15.321  0.3821  0.4782 -1.4131
13830TIP3    H262982   2.040   1.536  15.337  0.0162  0.4238  0.2194
13831TIP3   OH262983   6.199   5.747  11.879  0.1499  0.2915 -0.6984
13831TIP3    H162984   6.193   5.787  11.792 -4.2724  1.8607  0.0725
13831TIP3    H262985   6.224   5.819  11.937  0.0524 -0.0005 -0.2879
13832TIP3   OH262986   2.430   6.166   2.801 -0.2517 -0.1607 -0.3966
13832TIP3    H162987   2.414   6.250   2.845  0.7593  0.6731 -1.5237
13832TIP3    H262988   2.344   6.136   2.773 -0.6488  0.4317  0.1713
13833TIP3   OH262989   0.712   0.446   5.657 -0.1528  0.3379  0.0201
13833TIP3    H162990   0.805   0.451   5.678 -0.0812 -0.7372  0.0301
13833TIP3    H262991   0.707   0.377   5.590 -0.9267  0.4737 -0.0655
13834TIP3   OH262992   3.787   1.721  13.670 -0.0783  0.0636  0.4302
13834TIP3    H162993   3.874   1.687  13.650  0.1663 -0.0199  1.5794
13834TIP3    H262994   3.764   1.681  13.753 -2.0586 -1.4194 -0.7671
13835TIP3   OH262995   5.488   3.884   3.372  0.4707  0.7252 -0.7884
13835TIP3    H162996   5.504   3.807   3.317  0.1242  1.0215 -1.3137
13835TIP3    H262997   5.404   3.918   3.341 -0.4043  0.1360  0.8193
13836TIP3   OH262998   5.419   1.689   4.523 -0.0994 -0.4341  0.2691
13836TIP3    H162999   5.424   1.702   4.428  0.4677  0.1956  0.3730
13836TIP3    H263000   5.425   1.778   4.559  0.7828 -0.7481  0.9188
13837TIP3   OH263001   6.214   0.939  13.272 -0.6894 -0.3619 -0.2112
13837TIP3    H163002   6.299   0.905  13.301 -1.6840 -1.8579  1.1444
13837TIP3    H263003   6.155   0.865  13.282 -2.4483  1.0400  0.2578
13838TIP3   OH263004   4.194   0.424  14.977 -0.0628 -0.4010 -0.1009
13838TIP3    H163005   4.243   0.432  14.895  1.2683 -0.6063  0.6506
13838TIP3    H263006   4.252   0.375  15.035 -0.2600  1.1813  1.5281
13839TIP3   OH263007   5.699   1.394   3.400  0.2300  0.2444 -0.2164
13839TIP3    H163008   5.620   1.375   3.450  1.3515 -1.6681  0.9779
13839TIP3    H263009   5.770   1.361   3.455  1.6396 -0.7191 -2.4868
13840TIP3   OH263010   2.671   1.683  15.298  0.4518  0.1174 -0.0590
13840TIP3    H163011   2.626   1.768  15.295 -0.7250 -0.4369  0.7524
13840TIP3    H263012   2.732   1.685  15.225  0.1898  1.5283 -0.2633
13841TIP3   OH263013   6.168   3.675  15.733 -0.5910  0.2724 -0.1279
13841TIP3    H163014   6.171   3.630  15.817 -1.6263  0.2569 -0.0804
13841TIP3    H263015   6.255   3.714  15.723  0.0817 -1.1031  0.1712
13842TIP3   OH263016   0.989   6.264   4.719 -0.4744  0.7218 -0.1863
13842TIP3    H163017   0.945   6.244   4.802 -0.0907 -0.5944 -0.2734
13842TIP3    H263018   0.919   6.298   4.663 -1.2475 -0.5812 -0.0636
13843TIP3   OH263019   0.147   5.868  13.335 -0.3175  0.0537  0.5614
13843TIP3    H163020   0.092   5.919  13.276 -0.6035  0.1868  0.9371
13843TIP3    H263021   0.212   5.827  13.278  0.7211  1.8578  0.3831
13844TIP3   OH263022   2.088   3.642   3.301  0.0324 -0.4385 -0.1829
13844TIP3    H163023   2.081   3.708   3.232 -0.4734 -0.6750 -0.3608
13844TIP3    H263024   2.011   3.657   3.356 -1.5533 -2.5497 -1.6837
13845TIP3   OH263025   3.831   6.218  10.841  0.2357  0.0870  0.3808
13845TIP3    H163026   3.796   6.142  10.795  1.7749  0.6800 -1.9111
13845TIP3    H263027   3.776   6.291  10.812  0.9334  0.3924 -0.2081
13846TIP3   OH263028   4.909   4.978   4.404  0.8952 -0.3812  0.7022
13846TIP3    H163029   4.911   4.905   4.465  0.9641  0.6215  1.9417
13846TIP3    H263030   5.001   4.991   4.378  1.2125  0.6285  2.2034
13847TIP3   OH263031   4.122   1.885  15.694 -0.2374 -0.0619 -0.0140
13847TIP3    H163032   4.095   1.825  15.624 -0.5350 -1.2697  1.1036
13847TIP3    H263033   4.115   1.833  15.774  1.1348  0.9707  0.8085
13848TIP3   OH263034   4.370   0.962   4.443  0.3544 -0.1894 -0.2656
13848TIP3    H163035   4.321   0.902   4.499  1.0305 -1.4461 -0.9688
13848TIP3    H263036   4.460   0.929   4.445  0.4162 -0.2593 -2.0291
13849TIP3   OH263037   4.358   0.878  10.140 -0.0626 -0.4608 -0.7374
13849TIP3    H163038   4.286   0.898  10.199  0.3942  1.6799 -0.8327
13849TIP3    H263039   4.432   0.928  10.174  0.8839 -1.1786 -1.6839
13850TIP3   OH263040   5.739   5.043   2.440 -0.2949  0.1412  0.0746
13850TIP3    H163041   5.750   5.138   2.430 -1.2926  0.3879  1.1022
13850TIP3    H263042   5.779   5.023   2.524 -0.4380 -0.2760  0.0456
13851TIP3   OH263043   3.809   4.458   5.341  0.2617  0.1582 -0.1915
13851TIP3    H163044   3.837   4.369   5.363  2.7039  0.9099  0.1049
13851TIP3    H263045   3.811   4.460   5.245  1.8078  0.2909 -0.1886
13852TIP3   OH263046   6.725   2.077  14.358  0.4047 -0.0940  0.1383
13852TIP3    H163047   6.812   2.111  14.338  0.4587  0.6668  1.5626
13852TIP3    H263048   6.724   1.989  14.320  0.7386  0.9295 -2.4280
13853TIP3   OH263049   5.175   2.733  14.787 -0.0313 -0.3470  0.4093
13853TIP3    H163050   5.224   2.806  14.826 -0.5529 -1.1533  2.7618
13853TIP3    H263051   5.237   2.660  14.789  0.1581 -0.2365 -0.9863
13854TIP3   OH263052   3.738   0.530   5.306  0.5996  0.4012  0.1775
13854TIP3    H163053   3.685   0.553   5.382  2.6435  1.0464  1.5176
13854TIP3    H263054   3.698   0.450   5.271 -1.1957  0.8522  1.0775
13855TIP3   OH263055   5.658   5.835  15.270 -0.2086  0.0444  0.0649
13855TIP3    H163056   5.586   5.833  15.333 -1.5742  0.9698 -1.3668
13855TIP3    H263057   5.668   5.928  15.248  2.4393  0.1252  1.2680
13856TIP3   OH263058   4.373   4.121   0.517  0.1901  0.2828 -0.6936
13856TIP3    H163059   4.367   4.157   0.428  0.6673 -0.0389 -0.8579
13856TIP3    H263060   4.393   4.029   0.505  1.1754  0.4252 -0.2440
13857TIP3   OH263061   2.604   6.077  12.166 -0.1053  0.4980 -0.1540
13857TIP3    H163062   2.587   6.046  12.077 -0.8816  1.7219 -0.4546
13857TIP3    H263063   2.622   5.997  12.216 -1.4025 -0.3922 -1.0291
13858TIP3   OH263064   3.532   3.081  14.214  0.0139  0.1570 -0.2609
13858TIP3    H163065   3.440   3.068  14.194  0.2195 -1.2897 -0.3470
13858TIP3    H263066   3.536   3.169  14.252 -1.6618 -0.4382  1.4292
13859TIP3   OH263067   4.054   3.097  11.564 -0.6879  0.0980  0.1404
13859TIP3    H163068   4.117   3.125  11.631  0.4293 -0.6983 -0.5340
13859TIP3    H263069   4.027   3.179  11.521  0.2621  0.4236  0.1295
13860TIP3   OH263070   4.479   5.411  15.713  0.4763  0.1763 -0.6377
13860TIP3    H163071   4.515   5.482  15.766 -0.6587  0.2433  0.0847
13860TIP3    H263072   4.386   5.431  15.707  0.3692 -0.5537 -1.5476
13861TIP3   OH263073   2.202   4.202  13.803 -0.1021 -0.0813 -0.5682
13861TIP3    H163074   2.195   4.215  13.898  1.2845 -1.2763 -0.2634
13861TIP3    H263075   2.296   4.203  13.786 -0.0567 -3.6966 -1.2835
13862TIP3   OH263076   5.697   0.821   0.389 -0.0129 -1.0869 -0.8096
13862TIP3    H163077   5.654   0.905   0.400  1.1618 -0.6477  0.7057
13862TIP3    H263078   5.629   0.756   0.408 -0.4570 -0.4446 -0.1668
13863TIP3   OH263079   0.196   2.136   1.570 -0.8154 -0.4378 -0.2473
13863TIP3    H163080   0.265   2.081   1.606 -1.5854 -1.6577 -0.5771
13863TIP3    H263081   0.209   2.222   1.612  2.9441  0.4448 -2.7644
13864TIP3   OH263082   4.379   2.856   2.868 -0.4597  0.9162 -0.1585
13864TIP3    H163083   4.426   2.897   2.795 -2.0084  0.7829 -1.2943
13864TIP3    H263084   4.432   2.875   2.945  0.8655  1.6827 -1.2211
13865TIP3   OH263085   3.398   6.142   4.349  0.1319  0.0583  0.0794
13865TIP3    H163086   3.420   6.141   4.442  1.8683  0.1884 -0.3029
13865TIP3    H263087   3.446   6.217   4.313  0.1245 -0.4633 -1.0747
13866TIP3   OH263088   4.802   3.520  14.957  0.0018  0.3960 -0.2430
13866TIP3    H163089   4.708   3.509  14.942 -0.2998 -0.7796  2.1696
13866TIP3    H263090   4.808   3.580  15.031  1.1619  0.3133 -0.2472
13867TIP3   OH263091   4.713   3.195   3.074  0.1984 -0.7232  0.2598
13867TIP3    H163092   4.662   3.261   3.026 -1.4127 -0.9397  1.5445
13867TIP3    H263093   4.753   3.244   3.146 -0.1831 -0.9561  0.6375
13868TIP3   OH263094   5.655   4.676   1.536  0.6646 -0.5127  0.2464
13868TIP3    H163095   5.665   4.584   1.510 -1.4382 -1.4682  2.4412
13868TIP3    H263096   5.623   4.672   1.626  0.6631  2.4070  0.4662
13869TIP3   OH263097   4.255   3.157  15.539  0.0373 -0.3829 -0.1513
13869TIP3    H163098   4.187   3.101  15.576  0.2511  1.1102  2.7624
13869TIP3    H263099   4.314   3.175  15.612  1.2410  1.7454 -1.5346
13870TIP3   OH263100   0.289   4.456   0.922  0.3333 -0.5704 -0.8765
13870TIP3    H163101   0.236   4.505   0.985  1.4995  1.3383 -1.3001
13870TIP3    H263102   0.355   4.413   0.976 -0.9995 -2.1862 -0.4477
13871TIP3   OH263103   5.801   2.645   2.194  0.4690  0.3237  0.2484
13871TIP3    H163104   5.816   2.676   2.104  3.7212 -2.6141 -0.4316
13871TIP3    H263105   5.845   2.710   2.249  1.1795  0.5382 -0.5529
13872TIP3   OH263106   2.652   2.708   1.602  0.0186 -0.8223  0.4187
13872TIP3    H163107   2.617   2.787   1.562  0.6425 -1.8353 -2.3711
13872TIP3    H263108   2.576   2.666   1.643 -0.7185  0.1781  0.1010
13873TIP3   OH263109   0.749   4.846  13.896  0.0688 -0.1074  0.3536
13873TIP3    H163110   0.764   4.772  13.837  0.6328  0.2482  0.0371
13873TIP3    H263111   0.801   4.826  13.974  1.7502  0.8060 -0.4748
13874TIP3   OH263112   5.412   5.492   3.628  0.3248 -0.4472 -0.2128
13874TIP3    H163113   5.357   5.552   3.678  0.6612 -0.2626 -0.0592
13874TIP3    H263114   5.436   5.542   3.550  2.1629  0.3431  0.7977
13875TIP3   OH263115   3.667   4.643  17.211 -0.4661  0.1271  0.1474
13875TIP3    H163116   3.682   4.616  17.302  0.9793  0.4156  0.0189
13875TIP3    H263117   3.748   4.621  17.166 -1.1614  0.0096 -1.0830
13876TIP3   OH263118   2.737   3.547   1.564  0.0134 -0.1857  0.1520
13876TIP3    H163119   2.667   3.571   1.504 -0.7300 -0.7562  0.7815
13876TIP3    H263120   2.783   3.475   1.520 -0.1535 -0.2022  0.0019
13877TIP3   OH263121   4.788   4.736   6.080  0.7298 -0.3445  0.3757
13877TIP3    H163122   4.722   4.786   6.129  0.1811 -0.7520  0.0631
13877TIP3    H263123   4.816   4.667   6.141 -0.3920 -1.2229 -0.0655
13878TIP3   OH263124   3.079   5.714  15.756  0.2171  0.6175 -0.4161
13878TIP3    H163125   3.130   5.718  15.676  0.7585  2.3879 -0.0281
13878TIP3    H263126   3.141   5.736  15.825 -0.3146 -0.5591  0.4798
13879TIP3   OH263127   2.457   5.392   0.319 -0.1419 -0.5527  0.1965
13879TIP3    H163128   2.457   5.314   0.264  0.4090  0.0569 -0.6882
13879TIP3    H263129   2.367   5.397   0.352 -1.3940  0.6505 -3.0013
13880TIP3   OH263130   1.852   3.648   3.434 -0.0105  0.4348  0.0586
13880TIP3    H163131   1.758   3.652   3.417  0.1742  0.4247 -0.9988
13880TIP3    H263132   1.860   3.584   3.505 -0.6717 -0.8489 -0.9762
13881TIP3   OH263133   0.676   3.367  15.496 -0.1417  0.2891 -0.2926
13881TIP3    H163134   0.757   3.357  15.547  0.3983 -0.8015 -1.3392
13881TIP3    H263135   0.627   3.287  15.512 -1.3809  1.2171  0.8718
13882TIP3   OH263136   2.149   5.657   4.326  0.4944 -0.5337 -0.3647
13882TIP3    H163137   2.066   5.666   4.279  0.1356 -0.1691  0.3189
13882TIP3    H263138   2.202   5.600   4.271 -0.3419 -1.0678 -0.6368
13883TIP3   OH263139   5.179   0.419  14.165 -0.4135  0.5466 -0.7671
13883TIP3    H163140   5.153   0.384  14.250 -1.1476 -0.4375 -1.3806
13883TIP3    H263141   5.161   0.513  14.172 -1.0091  0.3898 -0.0239
13884TIP3   OH263142   3.538   4.138  16.425 -0.0153 -0.3196 -0.6555
13884TIP3    H163143   3.627   4.165  16.449 -1.1769  3.0375  0.5401
13884TIP3    H263144   3.513   4.075  16.492  0.3111  1.3585  1.1272
13885TIP3   OH263145   4.126   4.603  17.202 -0.1145 -0.4246 -0.0048
13885TIP3    H163146   4.081   4.561  17.276  0.0773 -0.6959 -0.0440
13885TIP3    H263147   4.208   4.555  17.192 -0.6075 -1.0756 -1.0727
13886TIP3   OH263148   2.024   0.803   4.871  0.3637  0.5974 -0.6828
13886TIP3    H163149   2.033   0.889   4.829  0.4192  0.3250 -1.2323
13886TIP3    H263150   1.946   0.812   4.926 -0.2172  0.6988 -1.5016
13887TIP3   OH263151   0.813   3.534   1.765 -0.2548  0.2797 -0.3992
13887TIP3    H163152   0.867   3.606   1.798 -0.8939  0.8478 -0.5707
13887TIP3    H263153   0.848   3.516   1.678 -0.1618  0.4714 -0.4029
13888TIP3   OH263154   0.822   0.331  16.377  0.1761 -0.1890  0.3896
13888TIP3    H163155   0.799   0.403  16.435  1.3099 -0.4079  1.1398
13888TIP3    H263156   0.846   0.373  16.295  1.0362  0.3198  0.8904
13889TIP3   OH263157   6.779   3.997  12.733  0.5758 -0.2691 -0.0973
13889TIP3    H163158   6.780   3.992  12.638 -0.7549 -0.2872 -0.1318
13889TIP3    H263159   6.686   4.001  12.756  0.6475 -3.5474  1.3614
13890TIP3   OH263160   2.729   1.555  14.601 -0.9635 -0.1495  0.1796
13890TIP3    H163161   2.790   1.621  14.633 -1.7105  0.3044  0.7027
13890TIP3    H263162   2.745   1.479  14.658  0.9027 -0.9625 -1.3424
13891TIP3   OH263163   3.929   4.943  15.558  0.6158  0.4272  0.3569
13891TIP3    H163164   3.854   4.999  15.538 -0.7310 -1.0695  1.0066
13891TIP3    H263165   3.953   4.903  15.475  0.7761  0.9902  0.1277
13892TIP3   OH263166   1.129   2.248   5.022  0.4998  0.1157 -0.1945
13892TIP3    H163167   1.139   2.342   5.007  0.3373  0.3699  1.1398
13892TIP3    H263168   1.046   2.241   5.071  0.6983 -0.6763  0.0273
13893TIP3   OH263169   6.131   3.219  13.502  0.0630 -0.2245  0.2256
13893TIP3    H163170   6.075   3.295  13.514 -1.2913 -0.9508 -1.1913
13893TIP3    H263171   6.177   3.235  13.419  0.4857 -0.5190  0.3965
13894TIP3   OH263172   4.685   0.410   5.302 -0.2379 -0.3044  0.4360
13894TIP3    H163173   4.718   0.428   5.214  1.7602  1.3685  1.4409
13894TIP3    H263174   4.732   0.332   5.330 -0.1902 -0.3031  0.3596
13895TIP3   OH263175   4.311   0.262   3.362 -0.3938  0.2918 -0.3945
13895TIP3    H163176   4.299   0.281   3.455 -0.5427 -3.1947  0.4482
13895TIP3    H263177   4.245   0.315   3.318  0.4459  2.9160  1.2999
13896TIP3   OH263178   2.442   1.629   0.030 -0.2372 -0.0610  0.4862
13896TIP3    H163179   2.389   1.562  -0.015  0.1064  0.1769 -0.2894
13896TIP3    H263180   2.492   1.580   0.095 -1.1866 -0.3318  1.0288
13897TIP3   OH263181   4.607   4.123  11.745  0.3723  0.3159  0.1202
13897TIP3    H163182   4.565   4.037  11.757  1.5187 -0.2638  0.1224
13897TIP3    H263183   4.540   4.177  11.704 -0.1620 -0.7826 -0.4950
13898TIP3   OH263184   3.361   4.379   4.704 -0.1993 -0.4946 -0.5568
13898TIP3    H163185   3.418   4.312   4.666 -0.0812  0.0652 -1.4002
13898TIP3    H263186   3.381   4.458   4.654 -1.1266 -0.0940 -0.3104
13899TIP3   OH263187   1.417   2.197  12.312  0.3758 -0.5984  0.0863
13899TIP3    H163188   1.335   2.181  12.266  0.6106  0.5019 -0.7625
13899TIP3    H263189   1.485   2.183  12.245  0.7486  0.5586  0.1995
13900TIP3   OH263190   4.569   0.125   5.564  0.1931  0.1789 -0.0091
13900TIP3    H163191   4.473   0.131   5.562  0.1987  0.3090 -1.5083
13900TIP3    H263192   4.586   0.035   5.593 -0.3354  0.5050  1.3986
13901TIP3   OH263193   1.807   6.517  14.829  0.3515  0.1925 -0.3095
13901TIP3    H163194   1.738   6.455  14.807  0.0837 -0.1034  1.2080
13901TIP3    H263195   1.888   6.476  14.800 -0.0999  0.6739 -2.3728
13902TIP3   OH263196   0.209   3.107   6.253  0.8628 -0.0745  0.2606
13902TIP3    H163197   0.166   3.191   6.273 -0.9667 -0.9209  0.1308
13902TIP3    H263198   0.154   3.068   6.186  2.2509 -0.9668 -0.3884
13903TIP3   OH263199   0.060   0.396  13.703  0.5595 -0.0409 -0.8111
13903TIP3    H163200   0.151   0.425  13.703  1.0874 -1.4279  1.4255
13903TIP3    H263201   0.064   0.305  13.674  0.0726 -0.4590  0.3617
13904TIP3   OH263202   4.876   2.049   2.442 -0.5792 -0.1743 -0.2197
13904TIP3    H163203   4.908   2.089   2.361 -1.9287  0.3068 -0.5422
13904TIP3    H263204   4.786   2.026   2.423 -0.6221 -0.9435  0.8482
13905TIP3   OH263205   0.289   4.157   4.111  0.6816 -0.1902  0.3724
13905TIP3    H163206   0.195   4.172   4.099  0.6445 -0.2928  0.5425
13905TIP3    H263207   0.307   4.186   4.200  1.1316  1.4024 -0.2049
13906TIP3   OH263208   4.470   0.524  14.529 -0.1544  0.1214  0.1499
13906TIP3    H163209   4.491   0.494  14.440 -1.0533 -1.0233  0.3064
13906TIP3    H263210   4.422   0.606  14.515 -0.1571  0.0312 -0.4110
13907TIP3   OH263211   0.825   1.000   3.742 -0.6793  0.0471 -0.1719
13907TIP3    H163212   0.907   1.047   3.727 -1.2491  0.9840 -0.4311
13907TIP3    H263213   0.778   1.009   3.659 -0.8280 -0.9304 -0.1971
13908TIP3   OH263214   2.721   5.423   3.904 -0.2322 -0.3281  0.3131
13908TIP3    H163215   2.695   5.341   3.863 -2.2056  0.3439  0.1248
13908TIP3    H263216   2.777   5.465   3.839  0.7888 -1.4859  0.4104
13909TIP3   OH263217   1.673   6.360  15.700 -0.2758 -0.4114  0.0267
13909TIP3    H163218   1.654   6.304  15.625 -1.5306  0.8347 -0.6482
13909TIP3    H263219   1.767   6.376  15.695 -0.1799 -1.1340 -0.7095
13910TIP3   OH263220   5.351   0.872  16.574 -0.3240  0.0323 -0.1374
13910TIP3    H163221   5.422   0.835  16.521 -1.4300 -1.5626 -0.5802
13910TIP3    H263222   5.315   0.942  16.520 -1.0942 -1.2245 -1.3143
13911TIP3   OH263223   3.308   2.802   3.239 -0.2321 -0.0875  0.1458
13911TIP3    H163224   3.363   2.846   3.303  0.5337 -0.7641 -0.0374
13911TIP3    H263225   3.272   2.726   3.285 -1.4784  0.6397  0.4336
13912TIP3   OH263226   2.558   4.004  16.362  0.3976  0.0624  0.3089
13912TIP3    H163227   2.648   3.972  16.363  0.8071  1.1659  0.1906
13912TIP3    H263228   2.522   3.972  16.280  0.2479 -1.5180  0.9719
13913TIP3   OH263229   1.322   3.895  12.128 -0.4497  0.4816  0.4349
13913TIP3    H163230   1.348   3.804  12.114 -0.1682  0.5930  0.2305
13913TIP3    H263231   1.367   3.922  12.207 -1.0378  0.2470  0.8562
13914TIP3   OH263232   0.607   4.135   1.928 -0.0107 -0.2617  0.1390
13914TIP3    H163233   0.633   4.044   1.944  2.2248  0.3952  0.4602
13914TIP3    H263234   0.683   4.187   1.951 -1.6699  1.8522  1.2405
13915TIP3   OH263235   1.330   5.265   0.057 -0.0526 -0.1746  0.0146
13915TIP3    H163236   1.279   5.319   0.118 -0.9489 -0.5540 -0.3686
13915TIP3    H263237   1.418   5.261   0.095 -0.8612 -1.3777  1.9588
13916TIP3   OH263238   4.838   2.923  11.713 -0.1384 -0.3967 -0.9081
13916TIP3    H163239   4.795   2.886  11.790 -0.0057  0.2535 -0.5196
13916TIP3    H263240   4.778   2.991  11.682 -0.3416 -0.8693 -1.5703
13917TIP3   OH263241   3.234   0.307  14.551 -0.5693 -0.3109  0.4305
13917TIP3    H163242   3.298   0.274  14.488 -1.3895 -0.1422 -0.5022
13917TIP3    H263243   3.221   0.399  14.526  0.6605  0.4043  2.1540
13918TIP3   OH263244   4.157   1.787  11.554  0.1646 -0.3827 -0.2630
13918TIP3    H163245   4.218   1.809  11.625  1.6638 -2.1265 -0.9307
13918TIP3    H263246   4.112   1.708  11.584  0.2608 -0.7009 -0.9413
13919TIP3   OH263247   4.608   6.152   0.088 -0.0310 -0.1054 -0.2509
13919TIP3    H163248   4.581   6.114   0.005 -2.9104  0.8054  0.1726
13919TIP3    H263249   4.614   6.247   0.071 -0.2486  0.0463  0.4842
13920TIP3   OH263250   3.580   5.417   4.088 -0.1684 -0.2880 -0.4460
13920TIP3    H163251   3.581   5.347   4.152 -0.1195  0.6137  0.5739
13920TIP3    H263252   3.672   5.439   4.075 -0.1842 -0.3932 -0.7301
13921TIP3   OH263253   0.697   2.491  16.170 -0.4045 -0.3354  0.5448
13921TIP3    H163254   0.669   2.419  16.113 -1.4265  0.8722 -0.5506
13921TIP3    H263255   0.654   2.569  16.133  3.1528  1.4351 -0.3220
13922TIP3   OH263256   0.519   5.964  13.486  0.2331 -0.5158 -0.2290
13922TIP3    H163257   0.551   6.023  13.418  1.4638 -1.0438 -0.1217
13922TIP3    H263258   0.514   6.019  13.565  2.0012 -0.6674  0.0283
13923TIP3   OH263259   3.563   3.428  13.440  0.3058  0.4221 -0.3619
13923TIP3    H163260   3.494   3.410  13.376  0.0721  0.3469 -0.0913
13923TIP3    H263261   3.544   3.516  13.471  0.2910  0.3737 -0.2355
13924TIP3   OH263262   5.355   3.710  15.023 -0.2634 -0.6848  0.3838
13924TIP3    H163263   5.330   3.628  15.065 -3.7115  0.7576  1.4698
13924TIP3    H263264   5.362   3.773  15.094  2.5255  0.0654 -0.4056
13925TIP3   OH263265   5.731   5.963   2.753 -0.4887 -0.1520  0.3960
13925TIP3    H163266   5.775   5.920   2.679 -0.0084 -0.2837  0.7552
13925TIP3    H263267   5.697   5.891   2.805  0.5005 -0.1267  1.1137
13926TIP3   OH263268   1.545   5.192   0.237 -0.5800 -0.0984  1.0976
13926TIP3    H163269   1.622   5.247   0.224 -1.0554  0.4671  0.6343
13926TIP3    H263270   1.580   5.111   0.275  0.4277 -0.3479 -0.2458
13927TIP3   OH263271   5.680   1.596   3.030 -0.2035  0.2168  0.1274
13927TIP3    H163272   5.749   1.532   3.048  0.2821  0.8121  0.4373
13927TIP3    H263273   5.601   1.544   3.015  0.1806 -0.4455  0.3942
13928TIP3   OH263274   1.358   0.760   0.482  0.3226 -0.5315  0.3022
13928TIP3    H163275   1.306   0.836   0.509 -0.8514  0.1485 -3.3333
13928TIP3    H263276   1.438   0.798   0.446  1.8638 -1.3930  2.6194
13929TIP3   OH263277   1.865   2.913   6.598 -0.3855  0.0325 -0.2428
13929TIP3    H163278   1.875   2.987   6.658  0.9703 -0.7525  0.5682
13929TIP3    H263279   1.833   2.842   6.654  0.9260 -0.7176 -0.3881
13930TIP3   OH263280   5.558   0.742   5.342 -0.5866  0.1361 -0.6473
13930TIP3    H163281   5.494   0.758   5.411 -0.0564 -0.5300  0.0088
13930TIP3    H263282   5.572   0.829   5.303 -1.4504  0.3870 -0.4267
13931TIP3   OH263283   0.650   5.903  11.663 -0.5361  0.2783  0.0544
13931TIP3    H163284   0.681   5.963  11.731  1.3010 -0.4016 -0.1391
13931TIP3    H263285   0.611   5.961  11.597  2.8413  1.5723 -1.0379
13932TIP3   OH263286   2.254   0.961  11.854  0.4698 -0.3592  0.0332
13932TIP3    H163287   2.235   1.034  11.796  0.4574 -0.1753  0.2646
13932TIP3    H263288   2.347   0.943  11.841  0.0769 -1.5321 -1.4115
13933TIP3   OH263289   6.009   6.089   0.977  0.1940  0.2742 -0.0317
13933TIP3    H163290   6.023   6.182   0.961  2.1606 -0.0299 -0.3410
13933TIP3    H263291   5.964   6.058   0.898  0.2950  0.8048 -0.3019
13934TIP3   OH263292   4.039   3.438   4.229  0.3756  0.2525  0.0958
13934TIP3    H163293   4.042   3.347   4.199  0.2723  0.0298  0.7331
13934TIP3    H263294   4.126   3.453   4.267  0.0590  0.0738  0.9307
13935TIP3   OH263295   5.814   4.576   2.632  0.3012  1.2269  0.0172
13935TIP3    H163296   5.843   4.575   2.723 -2.5629  1.6098  1.0358
13935TIP3    H263297   5.879   4.629   2.587  3.2358 -1.0758  1.2214
13936TIP3   OH263298   6.760   2.765  10.821 -0.1409  0.4460 -0.0783
13936TIP3    H163299   6.692   2.712  10.779  0.4072 -0.5610  0.2738
13936TIP3    H263300   6.839   2.712  10.815 -0.1477 -0.0378  2.7627
13937TIP3   OH263301   0.151   6.509   2.340 -0.0812 -0.3110 -0.2764
13937TIP3    H163302   0.204   6.467   2.408 -0.6584  1.3408  1.2529
13937TIP3    H263303   0.095   6.570   2.387 -1.1008  0.2917 -2.1783
13938TIP3   OH263304   2.354   3.625  11.805  0.5176 -0.0668  0.2597
13938TIP3    H163305   2.298   3.698  11.829 -0.2814 -0.2514 -0.9347
13938TIP3    H263306   2.322   3.598  11.719  1.4137 -1.2074  0.2605
13939TIP3   OH263307   0.807   4.982  14.905  0.2012 -0.5108  0.4011
13939TIP3    H163308   0.750   4.905  14.896 -0.0760 -0.4242  1.2979
13939TIP3    H263309   0.872   4.956  14.971  0.0649  0.0435  0.7597
13940TIP3   OH263310   5.501   6.037   3.273  0.3351 -0.1433 -0.0157
13940TIP3    H163311   5.574   6.098   3.276  0.9578 -0.8665 -0.0319
13940TIP3    H263312   5.423   6.092   3.276  0.8643  0.7319 -1.3457
13941TIP3   OH263313   4.979   1.743  14.521 -0.0268  0.6501 -0.3659
13941TIP3    H163314   4.974   1.778  14.610  1.7016 -1.4555  0.6430
13941TIP3    H263315   4.908   1.679  14.516 -0.3349  1.0060 -0.6438
13942TIP3   OH263316   1.399   4.833   1.366  0.1088 -0.8370  0.2473
13942TIP3    H163317   1.312   4.871   1.365 -0.3679 -1.9047 -0.4307
13942TIP3    H263318   1.389   4.747   1.325  1.4510 -1.0353  0.2702
13943TIP3   OH263319   0.382   3.403   0.030 -0.0419  0.9412  0.3887
13943TIP3    H163320   0.287   3.403   0.043 -0.2028 -2.2700  0.0643
13943TIP3    H263321   0.417   3.443   0.110 -1.6302  0.3439  1.4407
13944TIP3   OH263322   3.687   3.295   4.797 -0.0489 -0.4777 -0.4745
13944TIP3    H163323   3.673   3.340   4.880  0.4587  0.4213 -0.8644
13944TIP3    H263324   3.720   3.209   4.823 -0.2839 -0.3589  0.2637
13945TIP3   OH263325   4.412   0.741  15.986 -0.0738  0.3771 -0.0128
13945TIP3    H163326   4.401   0.725  16.080 -1.0695 -0.4646 -0.2591
13945TIP3    H263327   4.479   0.679  15.959  1.5591  1.8559  0.4613
13946TIP3   OH263328   0.280   3.871   1.248  0.1591  0.2956 -0.1894
13946TIP3    H163329   0.203   3.816   1.265  1.1060 -1.2828 -0.8109
13946TIP3    H263330   0.323   3.879   1.333 -0.1239  0.3060 -0.0447
13947TIP3   OH263331   4.342   1.910   2.195 -0.5035 -0.6268  0.2083
13947TIP3    H163332   4.354   1.815   2.198  0.0105 -0.6260 -1.2077
13947TIP3    H263333   4.250   1.921   2.169 -1.1692 -0.6900  2.3522
13948TIP3   OH263334   6.607   2.458  12.926 -0.2131  0.0231  1.0506
13948TIP3    H163335   6.588   2.393  12.859 -1.4244 -1.5436  2.8159
13948TIP3    H263336   6.699   2.480  12.913 -0.3955 -0.2548 -1.0579
13949TIP3   OH263337   0.603   1.436  12.177 -0.9216  0.1521 -0.2032
13949TIP3    H163338   0.636   1.428  12.088  3.1245  0.8314  1.0370
13949TIP3    H263339   0.582   1.347  12.204 -3.2637  0.0466 -2.0580
13950TIP3   OH263340   3.939   0.124   1.532  0.0276 -0.0697 -0.3937
13950TIP3    H163341   3.925   0.041   1.578  0.8518 -0.3476 -0.6279
13950TIP3    H263342   3.906   0.109   1.443  1.5642 -0.6763 -0.9013
13951TIP3   OH263343   6.444   0.162   2.011 -0.1044 -0.4222 -0.0650
13951TIP3    H163344   6.428   0.087   1.954  0.6663  0.7988 -2.0141
13951TIP3    H263345   6.536   0.184   1.997 -0.3216  0.9076  0.4052
13952TIP3   OH263346   1.356   0.367  16.593 -0.5046 -0.6364 -0.4117
13952TIP3    H163347   1.440   0.335  16.624  0.6364  2.7278  0.3551
13952TIP3    H263348   1.293   0.299  16.619  1.4581 -1.5929  2.2710
13953TIP3   OH263349   3.362   1.032   4.086 -0.1071 -0.2832 -0.3791
13953TIP3    H163350   3.407   0.955   4.119  1.8613 -0.0492 -2.3401
13953TIP3    H263351   3.269   1.014   4.102  0.5155 -0.9543  3.4575
13954TIP3   OH263352   6.011   5.895  13.655 -0.1051  0.1094 -0.3057
13954TIP3    H163353   5.941   5.915  13.718  0.1114  1.0947 -0.3669
13954TIP3    H263354   6.031   5.803  13.671 -0.1264  0.3107  1.0164
13955TIP3   OH263355   2.289   5.579  14.002  0.8477 -0.3599 -0.1675
13955TIP3    H163356   2.203   5.552  13.969  1.1713 -2.4678  0.5594
13955TIP3    H263357   2.351   5.550  13.935  1.0043  1.6191 -0.9396
13956TIP3   OH263358   4.994   3.964   3.587 -0.0169  0.2079  0.3480
13956TIP3    H163359   5.054   3.892   3.565  0.0545  0.2223  0.4954
13956TIP3    H263360   4.960   3.993   3.502  0.2114  0.2237  0.2599
13957TIP3   OH263361   0.430   0.252   0.194 -0.3607 -0.0168 -0.2338
13957TIP3    H163362   0.403   0.225   0.282 -0.1348 -0.3130 -0.2522
13957TIP3    H263363   0.485   0.180   0.164 -0.7815 -0.1149 -0.7816
13958TIP3   OH263364   5.095   2.682   6.080 -0.4835 -0.6553  0.5944
13958TIP3    H163365   5.162   2.737   6.120 -0.8752 -1.1990  2.0896
13958TIP3    H263366   5.130   2.660   5.994  0.6222  0.2010  0.8029
13959TIP3   OH263367   3.567   6.582  13.123  0.1831 -0.0530  0.4351
13959TIP3    H163368   3.475   6.565  13.099  0.0420  1.3803 -0.1305
13959TIP3    H263369   3.567   6.581  13.219 -0.7023  1.1644  0.4813
13960TIP3   OH263370   0.329   4.917  16.283 -0.0023 -0.4341 -0.1402
13960TIP3    H163371   0.281   4.999  16.296 -1.6316 -1.3654  0.0670
13960TIP3    H263372   0.365   4.895  16.369 -0.8248 -0.6517  0.1658
13961TIP3   OH263373   6.197   1.863   3.130  0.4407 -0.0597  0.6266
13961TIP3    H163374   6.196   1.822   3.043 -0.4185 -1.7340  1.3539
13961TIP3    H263375   6.121   1.921   3.130 -0.5657 -1.3325  0.7769
13962TIP3   OH263376   6.116   6.670  10.495 -0.3808 -0.5744 -0.2946
13962TIP3    H163377   6.080   6.758  10.487 -1.8218 -1.2591 -2.1389
13962TIP3    H263378   6.080   6.622  10.420  0.6871 -2.6289  0.4115
13963TIP3   OH263379   3.879   3.329  15.810 -0.5066 -0.0113 -0.1058
13963TIP3    H163380   3.969   3.328  15.843 -0.4555  1.6643 -0.1192
13963TIP3    H263381   3.846   3.241  15.829  1.1609 -0.7065 -0.2151
13964TIP3   OH263382   2.979   1.949  13.639  0.1388 -0.1348  0.1421
13964TIP3    H163383   3.000   2.041  13.654 -0.0563  0.2848 -1.8842
13964TIP3    H263384   3.064   1.904  13.645  0.9263  0.7725 -2.5890
13965TIP3   OH263385   6.149   5.205   5.248  0.1482  0.2482  0.4271
13965TIP3    H163386   6.155   5.228   5.340  3.2409  2.6544 -0.2204
13965TIP3    H263387   6.097   5.275   5.209  0.3406  0.1975  0.0774
13966TIP3   OH263388   3.921   2.269  14.612 -0.3475 -0.5200  0.1095
13966TIP3    H163389   3.930   2.174  14.623 -0.7529 -0.5373  0.3083
13966TIP3    H263390   3.952   2.286  14.523  0.3507 -0.7484  0.2987
13967TIP3   OH263391   0.421   3.983  15.828 -0.8111 -0.3524 -1.1563
13967TIP3    H163392   0.514   3.961  15.839 -0.2590  2.6587  2.1372
13967TIP3    H263393   0.419   4.034  15.747  0.9504  1.4373 -0.1722
13968TIP3   OH263394   5.329   0.039   5.253 -0.0623  0.0123 -0.4789
13968TIP3    H163395   5.319   0.124   5.296 -0.3133 -0.6475  0.8249
13968TIP3    H263396   5.374  -0.015   5.318  1.0143 -0.5759 -1.6737
13969TIP3   OH263397   6.520   1.723  15.427  0.0578  0.0267  0.1359
13969TIP3    H163398   6.518   1.690  15.517  1.0519 -0.0722  0.1329
13969TIP3    H263399   6.459   1.666  15.379 -1.3044  0.7512  0.9406
13970TIP3   OH263400   4.683   0.436   1.594  0.0916  0.2305  0.2980
13970TIP3    H163401   4.613   0.370   1.601 -0.6929  0.9496 -0.5822
13970TIP3    H263402   4.742   0.401   1.527 -1.2537  1.1964 -1.4763
13971TIP3   OH263403   0.358   4.370   4.925 -0.2545 -0.1418 -0.3569
13971TIP3    H163404   0.392   4.443   4.977  0.6886 -0.1128 -0.9973
13971TIP3    H263405   0.266   4.393   4.909 -0.1971  0.4792  0.1890
13972TIP3   OH263406   0.837   0.564   5.246 -0.4596  0.1059 -0.3529
13972TIP3    H163407   0.841   0.469   5.258  0.8623  0.1105 -0.6048
13972TIP3    H263408   0.907   0.584   5.184  1.6562  1.5951  2.2627
13973TIP3   OH263409   2.992   2.460  13.741  0.3256 -0.6931  0.4722
13973TIP3    H163410   3.014   2.377  13.783  3.5075 -0.8365 -1.2047
13973TIP3    H263411   2.926   2.499  13.799  1.3243 -2.7463  3.2272
13974TIP3   OH263412   4.233   4.148   0.111 -0.2012 -0.2426 -0.5225
13974TIP3    H163413   4.173   4.144   0.036 -0.0601  1.9818 -0.8239
13974TIP3    H263414   4.244   4.057   0.138 -3.3784 -0.8084 -0.7195
13975TIP3   OH263415   2.314   5.884   0.558  0.5113  0.2166  0.2405
13975TIP3    H163416   2.306   5.944   0.632  0.5541 -0.5110  0.8532
13975TIP3    H263417   2.247   5.817   0.574 -0.2375  0.6447 -0.9711
13976TIP3   OH263418   2.479   1.182   0.345  0.8303  0.3456  0.0187
13976TIP3    H163419   2.552   1.146   0.296 -0.7924 -1.2993 -1.3679
13976TIP3    H263420   2.483   1.138   0.430  3.8990  3.5162  1.7392
13977TIP3   OH263421   2.448   3.805   2.524 -0.0474  0.6381  0.8318
13977TIP3    H163422   2.506   3.880   2.517  0.2575  0.3978  0.7260
13977TIP3    H263423   2.452   3.780   2.616  0.9305 -0.0795  0.6161
13978TIP3   OH263424   4.548   4.216  15.595  0.1593 -0.2148 -1.2676
13978TIP3    H163425   4.510   4.302  15.613  0.5045 -0.3989  0.4884
13978TIP3    H263426   4.487   4.176  15.532 -1.5874  0.2142  0.0875
13979TIP3   OH263427   0.153   1.051   3.774 -0.1280  0.3604  0.1064
13979TIP3    H163428   0.145   0.958   3.796 -0.9820  0.7001  1.3044
13979TIP3    H263429   0.247   1.064   3.761  0.1572 -0.4054  1.2492
13980TIP3   OH263430   0.580   4.021  11.180  0.0247  0.0438  0.0247
13980TIP3    H163431   0.554   4.101  11.225  0.5148  1.0174 -1.3628
13980TIP3    H263432   0.522   3.954  11.215 -2.1205  1.4874 -0.5701
13981TIP3   OH263433   4.970   3.940  12.521  0.1929 -0.7447 -0.3011
13981TIP3    H163434   4.925   4.006  12.573 -2.9176 -1.2256 -2.1278
13981TIP3    H263435   4.905   3.910  12.458  2.2782 -3.6395 -1.3230
13982TIP3   OH263436   4.384   5.538   0.663 -0.1075  0.1161 -0.4197
13982TIP3    H163437   4.471   5.576   0.668  0.5952 -1.4235 -0.5493
13982TIP3    H263438   4.326   5.613   0.650  1.2524  1.1013 -1.0317
13983TIP3   OH263439   4.893   4.934   5.184  0.3536  0.0254 -0.1971
13983TIP3    H163440   4.967   4.882   5.153  0.0962 -0.3193 -0.2397
13983TIP3    H263441   4.845   4.875   5.242 -0.6768 -0.2318 -1.2645
13984TIP3   OH263442   0.822   3.982   6.057 -0.4851 -0.0977 -0.6344
13984TIP3    H163443   0.891   4.042   6.085 -0.7205 -0.2062  0.2262
13984TIP3    H263444   0.849   3.897   6.091 -2.0602  0.2137  1.6872
13985TIP3   OH263445   1.222   1.366  16.885  0.6841 -0.0532 -0.0363
13985TIP3    H163446   1.256   1.347  16.972  1.9324 -1.6242 -0.8132
13985TIP3    H263447   1.276   1.313  16.826 -1.7344 -0.9694 -1.5577
13986TIP3   OH263448   3.255   2.144   2.524 -0.4251 -0.1806  0.4116
13986TIP3    H163449   3.287   2.152   2.435 -0.2615 -0.2368  0.4660
13986TIP3    H263450   3.185   2.079   2.519  0.5133 -1.2178  0.5707
13987TIP3   OH263451   2.451   1.624  15.477 -0.4004  0.3573 -0.0951
13987TIP3    H163452   2.536   1.643  15.438 -0.4159 -1.0141 -0.8460
13987TIP3    H263453   2.395   1.603  15.402 -0.2548 -3.0199  0.6298
13988TIP3   OH263454   5.458   1.729  10.925 -0.3997  0.2476 -0.2165
13988TIP3    H163455   5.461   1.699  10.834  1.1589  1.7769 -0.7399
13988TIP3    H263456   5.489   1.820  10.921 -2.6935  1.2213  1.5321
13989TIP3   OH263457   6.800   3.712  14.665 -0.1108 -0.0947  0.2133
13989TIP3    H163458   6.863   3.782  14.682  0.2925 -0.4443  0.1403
13989TIP3    H263459   6.845   3.652  14.605 -0.4187 -0.4759  0.3618
13990TIP3   OH263460   4.345   5.087   4.166 -0.4908  0.5715  0.2046
13990TIP3    H163461   4.320   5.057   4.079  0.9205 -1.8699  0.5569
13990TIP3    H263462   4.440   5.103   4.159 -0.8530  3.3133  0.5551
13991TIP3   OH263463   4.410   0.713   1.839  0.0769  0.0414 -0.3040
13991TIP3    H163464   4.458   0.699   1.757  0.0371 -0.7509 -0.1993
13991TIP3    H263465   4.372   0.800   1.830  0.8009  0.3188 -0.7615
13992TIP3   OH263466   1.182   5.865   2.921  0.1206  1.0844  0.1130
13992TIP3    H163467   1.230   5.902   2.994 -0.9162 -0.1160  1.4552
13992TIP3    H263468   1.158   5.941   2.867  1.1492  1.9522  0.8533
13993TIP3   OH263469   1.200   0.637  16.855 -0.2457 -0.4506 -0.1814
13993TIP3    H163470   1.169   0.614  16.767  1.4646 -0.9980 -0.6937
13993TIP3    H263471   1.251   0.561  16.882  2.0935  1.0116 -0.1724
13994TIP3   OH263472   2.524   5.226  14.624 -0.3503  0.0866  0.0796
13994TIP3    H163473   2.466   5.211  14.699  0.2720  2.1702  1.0601
13994TIP3    H263474   2.606   5.183  14.649 -0.2279  0.5511  0.4971
13995TIP3   OH263475   4.794   3.379   0.454 -0.4397  0.1670  0.1330
13995TIP3    H163476   4.806   3.345   0.365  0.1344 -0.2538  0.3560
13995TIP3    H263477   4.840   3.463   0.454 -0.3996  0.1455  0.0420
13996TIP3   OH263478   6.684   4.723  14.334  0.1433 -0.1724 -0.4367
13996TIP3    H163479   6.678   4.676  14.250  1.1822  0.2484 -0.7663
13996TIP3    H263480   6.600   4.708  14.376 -0.7499  0.3581 -1.9512
13997TIP3   OH263481   3.498   4.264   5.663  0.0272 -0.1822  0.3666
13997TIP3    H163482   3.492   4.274   5.568 -0.3360  0.1576  0.4202
13997TIP3    H263483   3.504   4.169   5.677 -2.1146 -0.4099  0.0968
13998TIP3   OH263484   5.705   3.610   3.047  0.3607 -0.2874 -0.0026
13998TIP3    H163485   5.682   3.668   2.974  0.9516 -0.3446 -0.2471
13998TIP3    H263486   5.753   3.667   3.108 -1.4081  0.1287  1.0840
13999TIP3   OH263487   2.154   6.316   2.599 -0.3117  0.1191 -0.1100
13999TIP3    H163488   2.227   6.298   2.539  2.0819  0.5773  2.4473
13999TIP3    H263489   2.149   6.238   2.655 -0.1573  1.0563  1.2539
14000TIP3   OH263490   3.674   0.164   0.026 -0.6111 -0.1637  0.0444
14000TIP3    H163491   3.727   0.118  -0.039  0.5528  0.7629  0.2832
14000TIP3    H263492   3.590   0.120   0.025  0.2597 -1.9075 -0.1452
14001TIP3   OH263493   0.072   1.922   3.681  0.3278 -0.2977 -0.8415
14001TIP3    H163494   0.080   1.962   3.594 -2.5672 -0.9012 -1.5120
14001TIP3    H263495   0.014   1.846   3.667 -0.6098 -0.1466  1.6786
14002TIP3   OH263496   2.063   1.425   5.050  0.4996 -0.2070 -0.3568
14002TIP3    H163497   1.989   1.482   5.029  0.3602 -0.1855  0.1919
14002TIP3    H263498   2.111   1.417   4.967  0.0262 -0.0179 -0.6544
14003TIP3   OH263499   0.932   6.383  10.695  0.1340  0.0057 -0.8997
14003TIP3    H163500   0.941   6.296  10.735 -0.5995  1.2016  2.1019
14003TIP3    H263501   0.841   6.388  10.669  0.6322 -0.8076 -3.0119
14004TIP3   OH263502   3.836   5.215   5.478 -0.1830  0.0835 -0.1084
14004TIP3    H163503   3.741   5.204   5.471 -0.4516  2.4526 -1.0699
14004TIP3    H263504   3.872   5.128   5.463 -2.2221 -1.0720  1.2714
14005TIP3   OH263505   5.508   3.301   3.981  0.3759  0.3274 -0.0373
14005TIP3    H163506   5.457   3.266   4.054  1.9684 -0.4893  0.7427
14005TIP3    H263507   5.480   3.250   3.905  2.7919 -3.0539  1.1001
14006TIP3   OH263508   4.377   0.410  14.769 -0.0028 -0.0058  0.4736
14006TIP3    H163509   4.390   0.470  14.695 -1.8499 -0.9962 -0.7352
14006TIP3    H263510   4.465   0.398  14.805  0.5975  2.4820  0.0620
14007TIP3   OH263511   4.063   6.618  11.303 -0.2229  0.0528  0.5108
14007TIP3    H163512   3.991   6.619  11.239 -0.0281  1.2358  0.2845
14007TIP3    H263513   4.019   6.609  11.388 -0.6222  0.3975  0.3444
14008TIP3   OH263514   5.733   5.843  16.749 -0.1024 -0.2973 -0.1628
14008TIP3    H163515   5.742   5.859  16.655  1.4957 -1.0048 -0.1649
14008TIP3    H263516   5.674   5.911  16.779  0.2356  0.6284 -1.4952
14009TIP3   OH263517   3.066   1.037   1.429 -0.0851  0.6043 -0.6141
14009TIP3    H163518   3.146   0.996   1.464  0.2017 -0.7451 -2.6432
14009TIP3    H263519   3.032   1.090   1.502  0.3955 -2.0279  1.7192
14010TIP3   OH263520   0.676   0.390  13.834  0.1882  0.7740 -0.1094
14010TIP3    H163521   0.679   0.430  13.921 -3.5653  0.5847  0.2986
14010TIP3    H263522   0.729   0.447  13.779 -0.9920  3.5561  1.4514
14011TIP3   OH263523   0.305   1.170  15.344  0.1103  0.4278 -0.5934
14011TIP3    H163524   0.382   1.180  15.288 -0.4476  0.8617 -1.3023
14011TIP3    H263525   0.337   1.185  15.433  0.6402  1.6557 -0.9804
14012TIP3   OH263526   2.656   1.902  15.909  0.2536 -0.6992 -0.3379
14012TIP3    H163527   2.705   1.825  15.937 -0.0174 -0.6583  0.2554
14012TIP3    H263528   2.716   1.949  15.851  0.6384 -1.0417 -0.2220
14013TIP3   OH263529   4.051   5.024   1.223  0.1487 -0.0119  0.1982
14013TIP3    H163530   4.044   5.073   1.140 -0.6232 -2.6005 -1.3779
14013TIP3    H263531   4.145   5.006   1.231  0.2842  0.6216  0.1370
14014TIP3   OH263532   3.380   5.996   1.650 -0.5607 -0.0347  0.1140
14014TIP3    H163533   3.454   5.935   1.655 -1.4247 -1.0969  0.4700
14014TIP3    H263534   3.420   6.082   1.637  0.7577 -0.5111  0.7997
14015TIP3   OH263535   6.424   1.570   1.668 -0.4472 -0.3269  0.1207
14015TIP3    H163536   6.405   1.534   1.755  0.6460 -1.1293  0.0483
14015TIP3    H263537   6.519   1.578   1.666 -0.5388  0.8916 -0.5569
14016TIP3   OH263538   6.774   5.463  16.714 -0.5591  0.2664  0.0594
14016TIP3    H163539   6.772   5.524  16.641  1.9622  1.9474  1.2518
14016TIP3    H263540   6.759   5.378  16.675  1.9001  0.9398 -2.6475
14017TIP3   OH263541   0.466   1.886  12.214  0.5350 -0.0639  0.3217
14017TIP3    H163542   0.453   1.798  12.248  0.5570  0.1194  0.8199
14017TIP3    H263543   0.486   1.874  12.122  1.3651 -0.6395  0.5656
14018TIP3   OH263544   2.581   2.610   5.040  0.1912 -0.2148  0.5055
14018TIP3    H163545   2.661   2.632   5.089 -0.4026  2.0950  0.5688
14018TIP3    H263546   2.522   2.684   5.057 -1.6534 -1.4524 -0.2282
14019TIP3   OH263547   5.083   5.573   6.464 -0.6967  0.0181  0.5699
14019TIP3    H163548   5.113   5.649   6.414  0.5292 -1.2342 -0.7070
14019TIP3    H263549   4.988   5.578   6.461 -0.6599  0.3215 -1.4447
14020TIP3   OH263550   5.007   0.649  16.383 -0.3351  0.5891 -0.3149
14020TIP3    H163551   5.093   0.633  16.424 -0.7288 -1.2966 -0.1202
14020TIP3    H263552   4.965   0.712  16.441  0.5840  0.8841  0.0636
14021TIP3   OH263553   1.888   6.709   4.497 -0.0320 -0.5247  0.4840
14021TIP3    H163554   1.920   6.738   4.583 -1.9364  1.0282  0.7421
14021TIP3    H263555   1.865   6.617   4.510 -0.0796 -0.3706  1.6026
14022TIP3   OH263556   1.333   3.011   4.108  0.0191 -0.1801  0.3192
14022TIP3    H163557   1.273   2.985   4.039 -0.3161  2.7337 -0.6265
14022TIP3    H263558   1.301   2.966   4.186 -0.4743 -2.3862 -1.0723
14023TIP3   OH263559   1.106   5.960   3.940 -0.8195 -0.2093 -0.4539
14023TIP3    H163560   1.021   5.970   3.897 -0.8559 -1.6805 -0.7735
14023TIP3    H263561   1.119   5.865   3.946  0.3190 -0.0116  0.5580
14024TIP3   OH263562   5.461   2.404  12.698 -0.2521  0.6283 -0.0311
14024TIP3    H163563   5.420   2.473  12.646 -0.4318  0.2629 -0.3814
14024TIP3    H263564   5.549   2.394  12.660 -0.5741 -0.0120 -0.6239
14025TIP3   OH263565   6.043   4.266  11.194  0.0487  0.0217  0.2769
14025TIP3    H163566   5.954   4.236  11.211  0.0570  0.8798  2.0917
14025TIP3    H263567   6.032   4.344  11.140 -0.4301  0.9414  1.6442
14026TIP3   OH263568   0.072   4.719   3.832  0.2763  0.3013 -0.6139
14026TIP3    H163569   0.165   4.709   3.854 -0.0163  1.2059  1.1713
14026TIP3    H263570   0.065   4.808   3.798  0.1445  0.0485 -1.2527
14027TIP3   OH263571   3.025   0.484   5.985  0.1784 -0.2990 -0.0746
14027TIP3    H163572   3.023   0.395   5.950 -1.4027 -0.5345  0.5466
14027TIP3    H263573   2.989   0.538   5.914  0.6955 -0.2184 -0.2769
14028TIP3   OH263574   0.066   6.637  15.694  0.3629 -0.3817  0.5314
14028TIP3    H163575   0.078   6.726  15.729 -0.5394 -0.1975  0.3945
14028TIP3    H263576   0.071   6.580  15.771 -3.1020  0.1299  1.3047
14029TIP3   OH263577   4.264   5.221  16.531 -0.0311 -0.3753 -0.4044
14029TIP3    H163578   4.350   5.257  16.511 -0.1658 -0.3151 -0.8979
14029TIP3    H263579   4.269   5.195  16.623  0.1335  0.7059 -0.0931
14030TIP3   OH263580   2.630   1.196   4.733 -0.3553 -0.3558  0.0662
14030TIP3    H163581   2.587   1.214   4.650 -1.8896 -0.7421  0.7483
14030TIP3    H263582   2.602   1.266   4.791  1.4921  0.4722  0.0342
14031TIP3   OH263583   0.531   2.078  17.145  0.2935  0.0219  0.4260
14031TIP3    H163584   0.469   2.008  17.125 -1.0885  1.3655 -0.1929
14031TIP3    H263585   0.483   2.136  17.204  1.7993 -0.0879  1.8097
14032TIP3   OH263586   5.925   5.094   5.068  0.4099  0.3950 -0.0714
14032TIP3    H163587   5.974   5.128   5.143 -1.1599  1.8744  0.3502
14032TIP3    H263588   5.845   5.057   5.106  0.9454 -1.6674 -0.7741
14033TIP3   OH263589   4.860   1.614   3.898 -0.1420  0.4207 -0.0663
14033TIP3    H163590   4.950   1.581   3.896 -0.2039  0.2955 -1.3536
14033TIP3    H263591   4.867   1.702   3.860 -0.7173  0.0099 -1.1383
14034TIP3   OH263592   3.509   1.600  16.422  0.3642 -0.0865 -0.3162
14034TIP3    H163593   3.452   1.608  16.498 -2.2970 -0.0636 -2.1826
14034TIP3    H263594   3.515   1.505  16.407 -0.1149 -0.0434 -0.7805
14035TIP3   OH263595   3.508   5.687   0.803  0.0209  0.5464 -1.1518
14035TIP3    H163596   3.516   5.592   0.800  3.7872  0.4736  2.4686
14035TIP3    H263597   3.459   5.704   0.884  2.1662  1.5615  0.0261
14036TIP3   OH263598   2.229   4.672  13.439  0.0058 -0.4003  0.0189
14036TIP3    H163599   2.185   4.756  13.426  2.1177  0.5409 -1.5570
14036TIP3    H263600   2.164   4.618  13.485 -0.8553  2.5899  2.6803
14037TIP3   OH263601   2.653   3.446  16.864 -0.4212  0.5182  1.2114
14037TIP3    H163602   2.585   3.452  16.796 -0.3122 -0.4805  0.9959
14037TIP3    H263603   2.735   3.443  16.815 -0.3683 -0.7080  1.3357
14038TIP3   OH263604   1.412   3.404  13.775  0.4123  0.5698 -0.8470
14038TIP3    H163605   1.334   3.412  13.719 -1.6579 -1.7592  1.4201
14038TIP3    H263606   1.475   3.355  13.722 -0.1386  1.3134 -2.2614
14039TIP3   OH263607   6.349   0.581   5.993 -0.1731 -0.2783 -0.3926
14039TIP3    H163608   6.412   0.525   6.039  1.4108  0.6887 -1.3136
14039TIP3    H263609   6.264   0.542   6.014  0.7712 -2.2603  0.0345
14040TIP3   OH263610   0.922   5.535   0.984 -0.1138  0.1062 -0.3371
14040TIP3    H163611   1.017   5.528   0.985 -0.0656  0.6577  0.9858
14040TIP3    H263612   0.891   5.449   0.955  0.7431 -0.8404  1.4264
14041TIP3   OH263613   3.360   6.422   2.351  0.3887 -0.5615 -0.3003
14041TIP3    H163614   3.292   6.488   2.335  1.6594  1.1409  0.9257
14041TIP3    H263615   3.345   6.393   2.441 -0.3904 -2.2950 -0.9505
14042TIP3   OH263616   3.649   1.888   1.267 -0.1762  0.1732  0.8537
14042TIP3    H163617   3.721   1.843   1.224  0.4273  0.1290  1.8586
14042TIP3    H263618   3.645   1.974   1.225  0.4677  0.1701  0.7766
14043TIP3   OH263619   2.814   1.288  11.406 -0.0399  0.5055 -0.4861
14043TIP3    H163620   2.908   1.283  11.425 -0.1235  1.8853  0.3783
14043TIP3    H263621   2.774   1.226  11.467  0.1717  1.1098  0.2825
14044TIP3   OH263622   6.691   6.398   4.072 -0.2086  0.2347 -0.3257
14044TIP3    H163623   6.719   6.308   4.057  1.6228  0.8242 -0.6058
14044TIP3    H263624   6.771   6.445   4.094 -1.5087  1.1343  3.2947
14045TIP3   OH263625   4.992   4.390  12.702 -0.1378 -0.1134  0.1042
14045TIP3    H163626   5.077   4.420  12.670  1.0250 -2.5054  0.7374
14045TIP3    H263627   4.929   4.453  12.666  1.9265  2.1061  0.1451
14046TIP3   OH263628   4.333   1.217  13.411  0.2908  0.3172  0.2495
14046TIP3    H163629   4.284   1.136  13.392  2.0023 -0.8672  0.6935
14046TIP3    H263630   4.422   1.198  13.384  1.0295  1.5552  1.6711
14047TIP3   OH263631   4.850   3.288  13.692  0.0945 -0.4229 -0.3620
14047TIP3    H163632   4.811   3.283  13.779  1.4849  2.7987  0.6133
14047TIP3    H263633   4.928   3.233  13.696  0.1293 -0.3166  0.4489
14048TIP3   OH263634   4.110   4.333  12.269  0.0481 -0.3281 -0.4048
14048TIP3    H163635   4.043   4.394  12.299 -0.1906  0.4475 -2.3728
14048TIP3    H263636   4.065   4.250  12.257  0.1099 -0.6103  1.0734
14049TIP3   OH263637   2.653   0.963   2.257 -0.2897 -0.0080 -0.4541
14049TIP3    H163638   2.746   0.939   2.256 -0.2598  0.1069 -0.4449
14049TIP3    H263639   2.621   0.929   2.341  0.2090  1.6969  0.4788
14050TIP3   OH263640   1.622   1.178  14.797  0.4929 -0.2640 -0.2299
14050TIP3    H163641   1.649   1.118  14.867  2.4409 -0.3364 -0.9900
14050TIP3    H263642   1.532   1.154  14.779  0.5894 -1.5993  0.8713
14051TIP3   OH263643   3.534   3.964  11.064  0.3565  0.5617 -0.2042
14051TIP3    H163644   3.570   3.891  11.114  1.1397 -0.8335 -2.6572
14051TIP3    H263645   3.608   4.024  11.051 -0.0144  1.2761  0.8326
14052TIP3   OH263646   0.829   0.957  13.958  0.2229 -0.6934 -0.1321
14052TIP3    H163647   0.804   0.883  13.902  1.3069 -0.7459 -0.5566
14052TIP3    H263648   0.880   0.917  14.028  1.4543 -0.2781 -0.7695
14053TIP3   OH263649   5.276   2.051  13.278 -1.1137 -0.1682  0.1224
14053TIP3    H163650   5.274   2.035  13.372 -0.3626 -0.7150  0.0592
14053TIP3    H263651   5.213   2.122  13.263 -1.4513 -0.2831  0.9908
14054TIP3   OH263652   0.031   6.096  12.901 -0.4006  0.0706  0.1630
14054TIP3    H163653   0.115   6.132  12.931 -1.0890  0.6250  1.4914
14054TIP3    H263654   0.037   6.098  12.805  0.0526  2.7278  0.1637
14055TIP3   OH263655   3.790   1.175  14.731  0.1691  0.4992 -0.6901
14055TIP3    H163656   3.767   1.255  14.777  0.0663  1.5928 -2.5364
14055TIP3    H263657   3.878   1.153  14.762 -1.0749 -0.6695  2.3755
14056TIP3   OH263658   0.660   2.870   2.661  0.6996 -0.0181  0.3452
14056TIP3    H163659   0.691   2.788   2.699 -0.1921 -0.1262  0.8820
14056TIP3    H263660   0.585   2.845   2.607  0.9899  0.3359 -0.2273
14057TIP3   OH263661   2.412   5.017   2.094  0.3130 -0.1576  0.1043
14057TIP3    H163662   2.347   4.968   2.145 -1.0630  0.2518 -1.1807
14057TIP3    H263663   2.364   5.093   2.062  1.7605  0.7506  0.0296
14058TIP3   OH263664   6.601   5.911  13.644  0.3961 -0.1587  0.1707
14058TIP3    H163665   6.546   5.957  13.581 -1.1938 -1.4639  0.5073
14058TIP3    H263666   6.604   5.821  13.611  1.5178 -0.3349  0.7126
14059TIP3   OH263667   1.068   5.469   5.140 -0.0463  0.4411 -0.2244
14059TIP3    H163668   0.990   5.447   5.089 -0.7288  0.3308  0.8362
14059TIP3    H263669   1.139   5.468   5.076 -0.5044 -1.8581 -0.7977
14060TIP3   OH263670   1.313   6.474   5.158 -0.1730  0.3817  0.4396
14060TIP3    H163671   1.332   6.524   5.237  0.2794 -0.7184  1.0419
14060TIP3    H263672   1.395   6.430   5.137 -0.2201  0.8292 -0.7852
14061TIP3   OH263673   0.202   4.398  17.130 -0.3008  0.2799  0.1465
14061TIP3    H163674   0.200   4.467  17.064 -2.5736 -0.4606 -0.6487
14061TIP3    H263675   0.121   4.411  17.180  0.0772 -0.8031  1.0699
14062TIP3   OH263676   1.380   4.741  14.178  0.0689  0.0880 -0.4515
14062TIP3    H163677   1.345   4.816  14.131 -0.6025  0.3547  0.4457
14062TIP3    H263678   1.327   4.667  14.148 -0.8561  0.3803  0.4077
14063TIP3   OH263679   4.744   4.516  13.526  0.3820  0.5362  0.4976
14063TIP3    H163680   4.823   4.497  13.576  1.3493 -0.1281 -1.2223
14063TIP3    H263681   4.712   4.431  13.498 -0.0893  0.9100 -0.1186
14064TIP3   OH263682   2.864   5.392   5.382 -0.1486 -0.1223 -0.1869
14064TIP3    H163683   2.931   5.446   5.422  1.7203 -3.5060  1.6611
14064TIP3    H263684   2.813   5.358   5.456 -1.2822 -0.8277 -1.2523
14065TIP3   OH263685   1.614   6.597  13.791  0.1771 -0.4988  0.2610
14065TIP3    H163686   1.619   6.629  13.881 -1.0331  0.5725 -0.0213
14065TIP3    H263687   1.644   6.671  13.738 -0.8063 -0.4735 -0.2967
14066TIP3   OH263688   4.974   4.543  13.666 -0.1345 -0.0583  0.4237
14066TIP3    H163689   5.058   4.527  13.624 -0.5539  0.7606 -0.7569
14066TIP3    H263690   4.989   4.618  13.723  0.0371 -0.1817  0.5417
14067TIP3   OH263691   6.143   0.514   5.097 -0.5777 -0.0157  0.2401
14067TIP3    H163692   6.180   0.478   5.177 -0.9320 -0.4304  0.2182
14067TIP3    H263693   6.073   0.454   5.073  1.1161 -1.3298 -1.7634
14068TIP3   OH263694   0.759   0.509   6.208 -0.0329 -0.4817  1.0022
14068TIP3    H163695   0.807   0.546   6.282  0.6841  1.5973 -0.3948
14068TIP3    H263696   0.825   0.459   6.159  0.6224  1.7110 -0.4842
14069TIP3   OH263697   6.329   2.697  14.205  0.2395  0.1652  0.2917
14069TIP3    H163698   6.424   2.696  14.213  0.5614  2.2503 -2.1437
14069TIP3    H263699   6.310   2.639  14.131 -0.2547  0.7436 -0.0398
14070TIP3   OH263700   0.586   3.385  13.586  0.1550 -0.6504 -0.1703
14070TIP3    H163701   0.494   3.406  13.598 -0.6029 -2.5639 -1.9948
14070TIP3    H263702   0.610   3.334  13.663 -1.7599 -4.2524 -1.7264
14071TIP3   OH263703   4.455   6.059  16.262  0.2431 -0.8432  0.4253
14071TIP3    H163704   4.541   6.077  16.224 -0.7714  2.6326 -0.5991
14071TIP3    H263705   4.464   6.084  16.354  0.1850  0.2539  0.1488
14072TIP3   OH263706   2.290   1.292  15.628  0.3557  0.3169 -0.4172
14072TIP3    H163707   2.366   1.300  15.686  1.0217  2.9216 -1.5176
14072TIP3    H263708   2.325   1.306  15.541 -0.8948 -1.9299 -1.3751
14073TIP3   OH263709   3.755   1.862  12.846 -0.1416 -0.0954 -0.3296
14073TIP3    H163710   3.789   1.907  12.924  0.5592  1.2883 -1.3740
14073TIP3    H263711   3.668   1.833  12.871 -0.7149  2.0582  0.3892
14074TIP3   OH263712   1.056   1.021   6.353 -0.5121  0.1255 -0.1648
14074TIP3    H163713   0.990   1.090   6.358  0.8971  1.4336  2.1060
14074TIP3    H263714   1.134   1.064   6.318 -0.0204 -0.6694 -0.0676
14075TIP3   OH263715   1.749   3.454   5.287 -0.0949  0.5786 -0.1993
14075TIP3    H163716   1.699   3.514   5.341 -0.9436 -0.9669  0.8245
14075TIP3    H263717   1.683   3.403   5.239  0.4945 -0.7556  0.3436
14076TIP3   OH263718   2.689   0.695  15.674 -0.2364  0.0713  0.2399
14076TIP3    H163719   2.651   0.621  15.626 -0.5318  0.0437  0.5065
14076TIP3    H263720   2.691   0.767  15.611  0.0052 -0.1496 -0.0071
14077TIP3   OH263721   5.785   0.387   2.331 -0.1353 -0.0836  0.5908
14077TIP3    H163722   5.731   0.410   2.255  0.3468 -1.1926 -0.1267
14077TIP3    H263723   5.871   0.426   2.312  0.4563 -1.6979 -0.2542
14078TIP3   OH263724   3.517   5.855   2.599 -0.2326 -0.7893 -0.1106
14078TIP3    H163725   3.538   5.920   2.532 -0.7195 -0.7276 -0.2071
14078TIP3    H263726   3.428   5.826   2.578 -1.0527  0.4207  1.4504
14079TIP3   OH263727   2.364   0.675  15.437  0.4598  0.0459 -0.2135
14079TIP3    H163728   2.289   0.621  15.460  0.1025  0.8215  0.4667
14079TIP3    H263729   2.327   0.762  15.420  1.3257  0.7351  1.2853
14080TIP3   OH263730   0.490   1.591  16.679  0.1496  0.4031  0.2445
14080TIP3    H163731   0.579   1.583  16.646  0.2498 -0.2402  0.6394
14080TIP3    H263732   0.496   1.563  16.771 -0.7790 -1.5190 -0.2239
14081TIP3   OH263733   3.096   4.728   3.667 -0.4699  0.2513  0.0415
14081TIP3    H163734   3.129   4.811   3.634  1.2624  0.7462  2.7275
14081TIP3    H263735   3.174   4.683   3.701 -1.4488 -2.2186 -0.7101
14082TIP3   OH263736   5.317   5.193  11.590  0.0206  0.3594  0.4655
14082TIP3    H163737   5.406   5.200  11.556  0.6495 -0.6494  1.8184
14082TIP3    H263738   5.320   5.120  11.652 -1.7030  0.4335  0.6984
14083TIP3   OH263739   5.257   0.418   0.239 -0.0679 -0.0945  0.6584
14083TIP3    H163740   5.219   0.418   0.151  0.8377 -0.0058  0.2488
14083TIP3    H263741   5.183   0.428   0.298 -0.7701 -0.8684 -0.0685
14084TIP3   OH263742   3.356   2.274  14.735 -0.3199 -0.1019 -0.1406
14084TIP3    H163743   3.337   2.301  14.645  0.3821  0.7279 -0.0488
14084TIP3    H263744   3.436   2.222  14.729 -0.2143  0.0404  0.0113
14085TIP3   OH263745   2.138   1.121  11.089  0.2889  0.4837  0.1655
14085TIP3    H163746   2.109   1.071  11.013  1.2448  0.8730 -0.4572
14085TIP3    H263747   2.181   1.198  11.053  1.4358  0.2952  1.0855
14086TIP3   OH263748   5.424   6.578  13.599 -0.1574 -0.3419  0.6846
14086TIP3    H163749   5.430   6.671  13.622  1.3625 -0.3524  0.4387
14086TIP3    H263750   5.462   6.532  13.674 -2.9782 -0.9840  1.8529
14087TIP3   OH263751   4.424   4.603   1.142  0.7752 -0.5580  0.1580
14087TIP3    H163752   4.476   4.683   1.146  1.6632 -1.0419 -0.9298
14087TIP3    H263753   4.359   4.613   1.211  0.4087  1.4048 -0.4112
14088TIP3   OH263754   3.922   2.020   0.856 -0.1588 -0.2487 -0.1398
14088TIP3    H163755   3.969   1.940   0.883  1.4498  0.4602 -0.7107
14088TIP3    H263756   3.834   2.010   0.893  0.7357 -1.1770  1.8933
14089TIP3   OH263757   6.766   5.705   0.822 -0.5449  0.2698  0.8124
14089TIP3    H163758   6.818   5.747   0.752  0.1433  0.9453  1.6962
14089TIP3    H263759   6.709   5.775   0.854 -1.7964 -0.3846  0.0738
14090TIP3   OH263760   1.185   2.431  13.211  0.8018  0.3157  0.5458
14090TIP3    H163761   1.269   2.396  13.181  0.9508  1.4406 -0.3966
14090TIP3    H263762   1.152   2.482  13.138 -1.7742 -1.8139  0.0649
14091TIP3   OH263763   6.035   3.312   2.534 -0.3554 -0.1049 -0.0110
14091TIP3    H163764   5.991   3.395   2.550 -2.8804 -1.3296 -0.1365
14091TIP3    H263765   6.121   3.337   2.498  0.0391  2.4431  2.3803
14092TIP3   OH263766   6.110   4.010  12.543  0.0413  0.6360  0.2329
14092TIP3    H163767   6.028   3.999  12.590 -0.2128 -3.0288 -0.7883
14092TIP3    H263768   6.084   4.027  12.452  0.4565  0.6111  0.1060
14093TIP3   OH263769   5.588   0.858   0.082 -0.1043 -0.1099  0.3412
14093TIP3    H163770   5.495   0.849   0.104 -0.1957 -0.1861 -0.0762
14093TIP3    H263771   5.594   0.945   0.042 -0.3081 -0.7848 -1.2149
14094TIP3   OH263772   6.771   4.332  10.481  0.3336 -0.1033  0.1295
14094TIP3    H163773   6.844   4.376  10.525  1.2659 -1.2831 -0.2048
14094TIP3    H263774   6.693   4.366  10.525  1.1402  0.2294  1.3551
14095TIP3   OH263775   6.646   5.045   0.197  0.9562  0.1646  0.0761
14095TIP3    H163776   6.599   5.128   0.208 -0.8992 -0.6077 -1.6049
14095TIP3    H263777   6.664   5.040   0.103  0.7212 -1.5033  0.0956
14096TIP3   OH263778   0.855   1.418   1.466  0.2759  0.1322 -0.1549
14096TIP3    H163779   0.919   1.407   1.396  0.2532  0.2825 -0.2004
14096TIP3    H263780   0.903   1.464   1.535  0.0715  0.7253 -0.4019
14097TIP3   OH263781   4.862   3.496  13.406  0.1404 -0.5769 -0.0127
14097TIP3    H163782   4.843   3.517  13.497 -2.4622 -0.3742 -0.5236
14097TIP3    H263783   4.854   3.580  13.360 -1.7774 -1.1417 -0.8327
14098TIP3   OH263784   6.554   0.143   5.531 -0.1177 -0.4032  0.2376
14098TIP3    H163785   6.648   0.126   5.527 -0.2911 -1.5986  0.7036
14098TIP3    H263786   6.536   0.153   5.624 -0.6294 -1.3432  0.2483
14099TIP3   OH263787   5.304   0.989   0.132  0.1589  0.7306  0.4523
14099TIP3    H163788   5.254   0.985   0.051 -0.2225  0.1071  0.7083
14099TIP3    H263789   5.248   1.036   0.193 -1.5401 -2.5447  1.6680
14100TIP3   OH263790   6.806   2.058   6.360  0.6081 -0.5409 -0.2112
14100TIP3    H163791   6.822   2.106   6.441 -0.6260 -1.5982  0.6890
14100TIP3    H263792   6.711   2.064   6.347  0.4474 -2.5284 -0.1840
14101TIP3   OH263793   5.769   3.730   0.475  1.0194  0.4751 -0.0439
14101TIP3    H163794   5.845   3.770   0.432  0.7198  1.8471  0.6410
14101TIP3    H263795   5.748   3.791   0.546  0.4759 -0.8787  0.9891
14102TIP3   OH263796   3.925   6.337   1.004  0.0130  0.4144  0.4509
14102TIP3    H163797   3.972   6.383   1.074 -1.1069  2.2602  0.0396
14102TIP3    H263798   3.983   6.342   0.928  0.3413  0.1867  0.6792
14103TIP3   OH263799   4.732   3.578  14.080 -0.0892 -0.2765 -0.3742
14103TIP3    H163800   4.686   3.550  14.159  2.0044 -0.7951  0.7360
14103TIP3    H263801   4.758   3.668  14.097  0.3956 -0.3977 -0.4448
14104TIP3   OH263802   6.714   2.076  12.436 -0.0076 -0.5385  0.1235
14104TIP3    H163803   6.716   1.981  12.443 -0.8579 -0.5294  0.7112
14104TIP3    H263804   6.760   2.107  12.514 -1.0773 -0.4780  0.7581
14105TIP3   OH263805   3.778   3.741  16.245 -0.1568 -0.1211  0.1153
14105TIP3    H163806   3.742   3.652  16.248  1.5641 -0.8392  0.6824
14105TIP3    H263807   3.761   3.776  16.333  2.6483 -1.4106  1.2991
14106TIP3   OH263808   3.624   3.866   0.094 -0.1643  0.0349  0.0293
14106TIP3    H163809   3.547   3.878   0.150  0.4274 -0.0957  0.8916
14106TIP3    H263810   3.680   3.805   0.143 -0.1734 -1.0517 -1.2673
14107TIP3   OH263811   2.391   2.646  13.844  0.6449 -0.4580 -0.4936
14107TIP3    H163812   2.386   2.588  13.920  2.6670 -0.2659 -0.1486
14107TIP3    H263813   2.363   2.731  13.878  1.2834 -0.4306 -0.0079
14108TIP3   OH263814   4.145   2.430  13.479  0.1198 -0.0792  0.2227
14108TIP3    H163815   4.207   2.364  13.507  1.0903  1.1778  1.1747
14108TIP3    H263816   4.157   2.437  13.384  0.2870 -0.9497  0.1722
14109TIP3   OH263817   1.073   3.507  15.260 -0.2787 -0.0018  0.9845
14109TIP3    H163818   1.058   3.571  15.329 -0.3235  0.1459  0.8381
14109TIP3    H263819   1.037   3.425  15.295 -0.9569  0.2304  0.8516
14110TIP3   OH263820   0.158   3.934  10.540  0.0493 -0.3822  0.0034
14110TIP3    H163821   0.094   3.934  10.610  0.4918  0.6723  0.4362
14110TIP3    H263822   0.180   4.027  10.528  1.3899 -0.7089 -0.2206
14111TIP3   OH263823   3.450   4.622  14.750  0.7606  0.1409 -0.8244
14111TIP3    H163824   3.423   4.678  14.822  0.1433  0.5102 -1.3376
14111TIP3    H263825   3.545   4.632  14.746  0.7365  0.5488 -0.4198
14112TIP3   OH263826   1.122   2.936  13.461  0.8957 -0.3157 -0.3726
14112TIP3    H163827   1.205   2.970  13.427 -0.6093  2.4031 -1.6611
14112TIP3    H263828   1.070   2.917  13.383 -0.2588 -0.4174  0.4026
14113TIP3   OH263829   1.127   1.422  11.506 -0.5235  0.2784  0.4693
14113TIP3    H163830   1.046   1.400  11.552 -0.4291  0.5589  0.7762
14113TIP3    H263831   1.144   1.514  11.528 -0.9906  0.7218 -0.9168
14114TIP3   OH263832   0.363   1.823   1.902 -0.0725  0.1333 -0.7736
14114TIP3    H163833   0.382   1.784   1.987 -1.9958 -0.6960 -0.6841
14114TIP3    H263834   0.268   1.830   1.898 -0.0290  0.4554 -2.7345
14115TIP3   OH263835   4.432   2.154   5.373  0.4804 -0.3233 -0.4628
14115TIP3    H163836   4.460   2.132   5.462 -2.7714  1.8082  1.3031
14115TIP3    H263837   4.480   2.234   5.352 -0.4636  0.5211  0.4621
14116TIP3   OH263838   6.295   5.077  15.651 -0.0194  0.3564  0.1523
14116TIP3    H163839   6.341   5.032  15.722  0.6197  2.7600  1.3467
14116TIP3    H263840   6.216   5.024  15.638  0.4416 -0.8342  1.8020
14117TIP3   OH263841   4.235   2.752   5.766  0.4605 -0.1108 -0.1634
14117TIP3    H163842   4.310   2.807   5.786  2.6475 -1.7942 -3.0170
14117TIP3    H263843   4.260   2.665   5.797 -0.2825 -0.7142 -1.2197
14118TIP3   OH263844   0.564   1.493   4.519  0.3376  0.3236 -0.2530
14118TIP3    H163845   0.506   1.417   4.506  0.5630 -0.6199  3.2666
14118TIP3    H263846   0.652   1.456   4.523  0.5865  0.9448  0.1942
14119TIP3   OH263847   4.016   1.377   0.034 -0.0809  0.5837 -0.2362
14119TIP3    H163848   3.999   1.329   0.116  0.9176 -0.7070 -0.7381
14119TIP3    H263849   4.106   1.408   0.044 -0.1806  0.9853 -0.5862
14120TIP3   OH263850   3.027   4.992  15.249 -0.2716  0.7181  0.3915
14120TIP3    H163851   3.083   4.938  15.305 -1.2586 -1.2610 -0.4443
14120TIP3    H263852   3.088   5.042  15.195  0.7394 -1.1009 -0.2291
14121TIP3   OH263853   4.345   3.892  16.976  0.2548 -0.1480 -0.0525
14121TIP3    H163854   4.387   3.977  16.971 -2.9962  1.7046  0.8182
14121TIP3    H263855   4.299   3.883  16.893  2.6112 -2.4109 -1.2574
14122TIP3   OH263856   2.331   0.309   3.142 -0.4301 -0.6684  0.4600
14122TIP3    H163857   2.269   0.238   3.124 -0.1923 -0.6609 -0.4186
14122TIP3    H263858   2.415   0.265   3.154  0.0119 -0.4674 -1.5229
14123TIP3   OH263859   2.275   3.187  10.869  0.5048  0.5833  0.5915
14123TIP3    H163860   2.315   3.101  10.881  0.4555  0.6325  1.1455
14123TIP3    H263861   2.183   3.175  10.894 -0.8309 -0.3857 -3.8880
14124TIP3   OH263862   6.339   5.736  16.503  0.0700 -0.2112  0.1672
14124TIP3    H163863   6.335   5.779  16.588  2.4659 -1.6994  1.1425
14124TIP3    H263864   6.348   5.643  16.524 -1.5313 -0.8997 -1.8020
14125TIP3   OH263865   6.135   3.099  15.561 -0.0353  0.2799  0.4251
14125TIP3    H163866   6.131   3.194  15.558  0.0437  0.2635 -2.0381
14125TIP3    H263867   6.060   3.070  15.509 -2.0443 -1.1575  3.7637
14126TIP3   OH263868   2.067   1.146   0.014  0.1314  0.1222  0.4009
14126TIP3    H163869   2.133   1.138  -0.054  0.4187 -0.3332  0.7283
14126TIP3    H263870   2.010   1.217  -0.016 -1.1215 -1.5926 -1.4448
14127TIP3   OH263871   1.137   2.025  11.147 -0.1183  0.3601 -0.5558
14127TIP3    H163872   1.166   2.025  11.056 -1.6088  0.9558 -1.0694
14127TIP3    H263873   1.084   1.946  11.155  1.3257 -0.5746  0.2916
14128TIP3   OH263874   0.438   5.657   2.619 -0.3595  0.1390 -1.0978
14128TIP3    H163875   0.363   5.671   2.562 -0.9432 -0.1102 -0.4062
14128TIP3    H263876   0.427   5.720   2.690 -0.8314 -0.9949 -0.1169
14129TIP3   OH263877   6.692   1.486  15.869 -0.0122  0.5544 -0.2788
14129TIP3    H163878   6.769   1.528  15.909  0.3733 -1.0009  0.6919
14129TIP3    H263879   6.723   1.401  15.840 -1.0663  0.4345 -1.1183
14130TIP3   OH263880   0.168   1.049   1.852  0.1694  0.0281 -0.2934
14130TIP3    H163881   0.229   0.997   1.903  0.1487 -0.4654 -0.7596
14130TIP3    H263882   0.126   0.986   1.793  2.1185  0.9288 -2.8347
14131TIP3   OH263883   1.446   4.346  15.000  1.0113  0.1807 -0.6412
14131TIP3    H163884   1.359   4.337  14.962 -0.0621 -0.1218  1.6554
14131TIP3    H263885   1.445   4.431  15.044  0.9710 -0.8039  1.3773
14132TIP3   OH263886   4.712   5.532  10.626 -0.0024  0.3804  0.2077
14132TIP3    H163887   4.773   5.604  10.643  3.2976 -2.1060  0.0724
14132TIP3    H263888   4.755   5.481  10.557 -2.3008 -1.5665  0.0988
14133TIP3   OH263889   5.648   6.044  14.918  0.7123 -0.5347 -0.5714
14133TIP3    H163890   5.619   6.046  14.826  1.2174  1.9138 -0.7450
14133TIP3    H263891   5.731   6.091  14.918  0.5444 -0.1726  1.2069
14134TIP3   OH263892   0.957   3.294  15.037 -0.0207  0.6253  0.0534
14134TIP3    H163893   0.868   3.328  15.044 -0.3465  0.2302 -1.6717
14134TIP3    H263894   0.953   3.207  15.077 -0.5328  0.4381 -0.3921
14135TIP3   OH263895   0.605   5.558  13.683 -0.5220 -0.6713  0.5212
14135TIP3    H163896   0.654   5.526  13.608 -0.9851  0.3899 -0.2769
14135TIP3    H263897   0.622   5.652  13.684 -1.4744 -0.4856  1.0141
14136TIP3   OH263898   4.144   1.609  14.103  0.3047 -0.2369 -0.1820
14136TIP3    H163899   4.079   1.642  14.165  1.3265 -0.3756  1.0259
14136TIP3    H263900   4.112   1.523  14.077 -1.7215  1.0747 -2.3418
14137TIP3   OH263901   3.474   0.324   3.245 -0.5330 -0.0725  0.5453
14137TIP3    H163902   3.540   0.335   3.314 -1.4966  1.5125  1.2828
14137TIP3    H263903   3.485   0.401   3.189 -3.8789  2.2066  2.6450
14138TIP3   OH263904   4.722   2.821   2.878  0.4040 -0.7399  0.1683
14138TIP3    H163905   4.672   2.893   2.840  0.4019 -0.7097  0.2276
14138TIP3    H263906   4.772   2.785   2.805  1.5432  0.2613  0.4172
14139TIP3   OH263907   6.525   4.403  10.559  0.0007  0.1174  0.1581
14139TIP3    H163908   6.433   4.384  10.536  0.0726 -1.6380  1.0989
14139TIP3    H263909   6.522   4.490  10.598 -0.5387  2.0432 -3.7024
14140TIP3   OH263910   2.470   6.497   4.257  0.5317  0.3625  0.7605
14140TIP3    H163911   2.556   6.534   4.234  1.5227 -0.0220  3.5639
14140TIP3    H263912   2.481   6.403   4.248  0.2269  0.3366  0.6471
14141TIP3   OH263913   6.194   4.053  16.323  0.0505 -0.1575  0.4075
14141TIP3    H163914   6.270   4.089  16.368 -0.4564 -0.4532  1.5399
14141TIP3    H263915   6.228   3.976  16.278  0.6784  0.4494 -0.1737
14142TIP3   OH263916   2.874   4.689  11.585  0.3385 -0.0259 -0.0136
14142TIP3    H163917   2.883   4.701  11.490 -0.6662 -0.9066 -0.2402
14142TIP3    H263918   2.891   4.776  11.621  1.6641  0.1239 -0.9118
14143TIP3   OH263919   6.040   2.376   3.679 -0.5425 -0.2687 -0.2796
14143TIP3    H163920   6.021   2.282   3.687 -0.6380 -0.1850  0.5921
14143TIP3    H263921   6.030   2.395   3.586  2.3881 -1.7660 -1.0114
14144TIP3   OH263922   3.140   1.901  11.224  0.5933  0.0580  0.0229
14144TIP3    H163923   3.049   1.929  11.232  0.6624  0.3407 -0.1772
14144TIP3    H263924   3.139   1.834  11.155  0.4266 -0.4536  0.5129
14145TIP3   OH263925   0.747   1.740   5.941 -0.0535 -0.3700 -0.8902
14145TIP3    H163926   0.742   1.770   5.850  0.0848 -2.2506 -1.5707
14145TIP3    H263927   0.839   1.718   5.953  0.1778  1.0334  0.1481
14146TIP3   OH263928   3.296   4.751   3.463 -0.3997 -0.4641  0.0520
14146TIP3    H163929   3.336   4.736   3.377 -0.7802 -0.6760 -0.0876
14146TIP3    H263930   3.347   4.695   3.522 -1.4310 -1.9026 -0.3726
14147TIP3   OH263931   5.460   2.574   3.337 -0.2630 -0.0229 -0.2085
14147TIP3    H163932   5.365   2.560   3.343 -0.1467 -0.7295  0.0020
14147TIP3    H263933   5.480   2.561   3.244 -0.4153  0.4535 -0.3142
14148TIP3   OH263934   0.245   6.317   5.723  0.5619  0.0085 -0.5909
14148TIP3    H163935   0.304   6.376   5.770 -1.2812  0.9217  0.7312
14148TIP3    H263936   0.217   6.254   5.789  0.6522 -0.8892 -1.3972
14149TIP3   OH263937   0.045   5.440  12.009 -0.2758  0.3760  0.0234
14149TIP3    H163938  -0.010   5.489  12.070 -1.1710  0.4898 -0.8512
14149TIP3    H263939   0.006   5.352  12.007  1.7202 -0.6765  2.1092
14150TIP3   OH263940   2.017   0.698  16.501  0.6046  0.0339 -0.2951
14150TIP3    H163941   2.015   0.787  16.537  0.8163 -0.3562  0.7407
14150TIP3    H263942   2.032   0.710  16.408  0.8671  1.0776 -0.1377
14151TIP3   OH263943   6.578   2.782   2.635 -0.2234  0.2708 -0.3964
14151TIP3    H163944   6.588   2.687   2.634 -0.6601  0.2253 -0.7850
14151TIP3    H263945   6.628   2.811   2.711  0.0900 -0.2487 -0.4019
14152TIP3   OH263946   6.706   1.669   5.698 -0.7870 -1.2669  0.4622
14152TIP3    H163947   6.770   1.615   5.745  1.7383  0.6654 -0.5084
14152TIP3    H263948   6.706   1.634   5.609  0.7424  0.1038 -0.1298
14153TIP3   OH263949   2.864   2.822  13.837 -0.7415 -0.0460 -0.1161
14153TIP3    H163950   2.782   2.854  13.800 -0.6559  1.8538  1.1673
14153TIP3    H263951   2.883   2.882  13.909  0.7795 -1.5959  0.8805
14154TIP3   OH263952   6.560   2.930   5.203 -0.2037  0.0378 -0.0151
14154TIP3    H163953   6.604   2.902   5.283 -1.1082  0.3375  0.6067
14154TIP3    H263954   6.482   2.874   5.198  0.9684 -1.5433 -1.9062
14155TIP3   OH263955   4.698   0.331  11.685  0.8314  0.2501 -0.3635
14155TIP3    H163956   4.640   0.381  11.741 -0.4188 -1.4410 -0.0629
14155TIP3    H263957   4.662   0.342  11.597  0.8513  0.2851 -0.3671
14156TIP3   OH263958   0.484   6.254  12.586  0.4831  0.1838  0.0353
14156TIP3    H163959   0.441   6.194  12.524  2.2068  0.3275 -1.3870
14156TIP3    H263960   0.560   6.206  12.617  1.3334  1.2514 -0.3511
14157TIP3   OH263961   0.129   4.669  11.871  0.4011 -0.5662 -0.2484
14157TIP3    H163962   0.094   4.744  11.920  0.1180 -0.3432 -0.7897
14157TIP3    H263963   0.220   4.662  11.901  0.3796 -0.1194 -0.0611
14158TIP3   OH263964   6.263   1.743  12.802 -0.2416 -0.3417 -0.2237
14158TIP3    H163965   6.310   1.784  12.875 -0.1148 -0.6847 -0.1110
14158TIP3    H263966   6.256   1.651  12.827 -1.5228 -0.1904  0.0462
14159TIP3   OH263967   0.233   2.377  14.420 -0.0362 -0.2230 -0.0562
14159TIP3    H163968   0.313   2.369  14.369 -0.2400  2.5795 -0.9697
14159TIP3    H263969   0.176   2.308  14.386  1.0108 -0.4920 -1.3357
14160TIP3   OH263970   1.890   2.783   4.557  0.0833  0.4424  0.4098
14160TIP3    H163971   1.965   2.724   4.552 -1.6455 -1.7819 -1.1520
14160TIP3    H263972   1.892   2.831   4.474 -0.4512  0.0609  0.1730
14161TIP3   OH263973   5.237   4.097   1.622  0.0241  0.4164 -0.2435
14161TIP3    H163974   5.240   4.005   1.596 -2.2553  0.3309 -0.4141
14161TIP3    H263975   5.328   4.124   1.625  0.7507 -1.8528 -0.1414
14162TIP3   OH263976   0.258   4.310  13.904  0.1119 -0.2456 -0.4726
14162TIP3    H163977   0.210   4.280  13.827  0.0001 -0.3125 -0.3768
14162TIP3    H263978   0.327   4.245  13.917 -0.9799 -1.2427  0.5676
14163TIP3   OH263979   4.431   0.148  12.195  0.3828 -0.1407  0.0497
14163TIP3    H163980   4.454   0.104  12.114  0.9723 -0.3328  0.3128
14163TIP3    H263981   4.502   0.126  12.255 -0.0279  0.0268  0.6074
14164TIP3   OH263982   4.278   5.304   4.651  1.0145 -0.0654 -0.4141
14164TIP3    H163983   4.358   5.307   4.599  2.1083  0.1354  1.2060
14164TIP3    H263984   4.307   5.276   4.738 -0.2875  2.3900  0.9091
14165TIP3   OH263985   4.124   5.334  16.158  0.1658 -0.8839 -0.1208
14165TIP3    H163986   4.152   5.396  16.226 -0.3128  0.3857 -1.0423
14165TIP3    H263987   4.098   5.389  16.085 -0.4481 -2.1896 -0.9181
14166TIP3   OH263988   1.595   0.583   5.977  0.1475 -0.3120 -0.0417
14166TIP3    H163989   1.669   0.579   6.037  0.3054  0.5654 -0.1592
14166TIP3    H263990   1.634   0.577   5.890  0.1935  1.0626 -0.1399
14167TIP3   OH263991   4.282   6.622  15.627 -0.0819 -0.2039  0.1809
14167TIP3    H163992   4.207   6.660  15.580 -0.2932 -0.0955  0.5985
14167TIP3    H263993   4.357   6.675  15.601 -0.1794 -0.2109 -0.1141
14168TIP3   OH263994   0.269   3.729  15.837  0.5058  0.0574 -0.1514
14168TIP3    H163995   0.178   3.751  15.822  0.4079  0.0908  0.4577
14168TIP3    H263996   0.316   3.812  15.830  0.3647  0.1919  0.4414
14169TIP3   OH263997   4.191   6.035  15.607 -0.6557 -0.0341 -0.0138
14169TIP3    H163998   4.220   5.986  15.530  1.0433  0.6079  0.1909
14169TIP3    H263999   4.196   6.126  15.580 -0.1703  0.1883  0.8057
14170TIP3   OH264000   5.240   2.507   5.368  0.4510 -0.5150 -0.1578
14170TIP3    H164001   5.219   2.417   5.346 -0.8612 -0.7494  1.7694
14170TIP3    H264002   5.335   2.507   5.381  0.5555 -1.4529 -0.8168
14171TIP3   OH264003   4.680   2.731   3.835 -0.5936  0.1243 -0.2808
14171TIP3    H164004   4.762   2.734   3.884 -1.6435 -1.4869  1.7257
14171TIP3    H264005   4.625   2.799   3.874 -0.4132  0.8942 -1.3158
14172TIP3   OH264006   3.521   2.208   0.703  0.1793 -0.0445 -0.6313
14172TIP3    H164007   3.431   2.219   0.735 -0.0379  0.8989 -1.5065
14172TIP3    H264008   3.516   2.226   0.609  1.2396 -0.2533 -0.7421
14173TIP3   OH264009   4.248   0.937   3.020  0.2175  0.4917 -0.6913
14173TIP3    H164010   4.250   1.014   3.077  1.7264 -1.0400  1.5258
14173TIP3    H264011   4.217   0.970   2.936 -1.1151  3.1210  0.6847
14174TIP3   OH264012   2.459   2.627   0.803  0.2766 -0.1900 -0.3198
14174TIP3    H164013   2.523   2.562   0.773 -0.6335 -1.1768 -0.2200
14174TIP3    H264014   2.438   2.601   0.892 -0.9070 -0.4433 -0.6471
14175TIP3   OH264015   3.576   2.144   3.741  0.4098  0.6656 -0.1909
14175TIP3    H164016   3.563   2.168   3.650 -1.1026 -0.6567 -0.3475
14175TIP3    H264017   3.489   2.126   3.775  1.1228 -0.8889  0.9526
14176TIP3   OH264018   3.634   2.193  14.663  0.4547  0.0702  0.4336
14176TIP3    H164019   3.708   2.145  14.701  0.5207  0.8282  1.2883
14176TIP3    H264020   3.665   2.220  14.577  0.2371 -1.8444 -0.2883
14177TIP3   OH264021   6.086   0.251   5.639 -0.0279 -0.0395  0.3021
14177TIP3    H164022   6.123   0.170   5.674 -0.8690 -1.7889 -2.5718
14177TIP3    H264023   6.162   0.308   5.625  1.1430 -1.9056 -1.4062
14178TIP3   OH264024   1.242   6.429  14.167  0.5866 -0.2631 -0.0421
14178TIP3    H164025   1.236   6.517  14.204 -0.5869 -0.6434  0.7400
14178TIP3    H264026   1.325   6.395  14.200  1.6532  0.9552 -1.3459
14179TIP3   OH264027   4.145   3.523   3.686  0.4004 -0.1019 -0.1005
14179TIP3    H164028   4.144   3.465   3.762  0.5668 -1.1456 -0.8590
14179TIP3    H264029   4.099   3.474   3.618  1.7929  0.0236 -1.1996
14180TIP3   OH264030   1.867   4.792  16.243  0.1028 -0.1166 -0.0269
14180TIP3    H164031   1.960   4.775  16.228  0.2790  2.2885 -2.3987
14180TIP3    H264032   1.861   4.886  16.258 -1.9797 -0.1063 -0.4996
14181TIP3   OH264033   2.274   2.816   0.700  0.5796  0.4044 -0.1086
14181TIP3    H164034   2.343   2.868   0.658  1.3647 -1.7369 -1.6654
14181TIP3    H264035   2.308   2.726   0.698 -0.9163 -0.2757  2.0236
14182TIP3   OH264036   0.946   3.510  16.067  0.3009 -0.4071  0.0268
14182TIP3    H164037   0.973   3.503  15.975 -1.0072  1.3260 -0.5563
14182TIP3    H264038   0.906   3.597  16.073 -1.1635 -1.1468  1.8279
14183TIP3   OH264039   2.180   5.748  13.382 -0.3307 -0.3730 -0.4494
14183TIP3    H164040   2.264   5.737  13.337  0.1178  1.5389 -0.1645
14183TIP3    H264041   2.167   5.666  13.430  1.7639 -0.3952  0.1503
14184TIP3   OH264042   3.176   2.192   0.182  0.0676  0.0828 -0.4707
14184TIP3    H164043   3.235   2.170   0.110  0.6280 -0.3940  0.1158
14184TIP3    H264044   3.223   2.259   0.232 -0.1040  0.0677 -0.2881
14185TIP3   OH264045   2.692   0.930  12.388 -0.5131 -0.0963 -0.5379
14185TIP3    H164046   2.676   1.024  12.392  0.2052  0.0355 -0.7204
14185TIP3    H264047   2.623   0.892  12.442 -0.0909  0.6220  0.5365
14186TIP3   OH264048   5.721   6.264   2.628  0.1475 -0.0262  0.0901
14186TIP3    H164049   5.807   6.262   2.585 -0.9252  0.2571 -2.2594
14186TIP3    H264050   5.705   6.357   2.645  0.5628 -0.1369  1.1605
14187TIP3   OH264051   1.055   3.690   6.488 -0.2093  0.9786  0.5046
14187TIP3    H164052   1.118   3.762   6.495 -0.2296  0.8618  2.0552
14187TIP3    H264053   1.009   3.689   6.572 -0.2559 -0.8149  0.4962
14188TIP3   OH264054   6.032   4.964  13.980 -0.2812  0.1449 -0.5017
14188TIP3    H164055   6.085   4.889  14.006  1.1070  1.2416 -0.0855
14188TIP3    H264056   6.061   5.035  14.036 -1.7939  0.9399 -0.6725
14189TIP3   OH264057   4.148   5.082   5.859  0.0911  0.1008 -0.1318
14189TIP3    H164058   4.184   5.109   5.943  1.2424 -1.7827  0.0421
14189TIP3    H264059   4.174   5.152   5.798  0.1233  0.9801  0.8718
14190TIP3   OH264060   4.543   3.562  13.829  0.4170  0.4772 -0.2606
14190TIP3    H164061   4.616   3.563  13.891 -0.8966 -0.7111  1.3946
14190TIP3    H264062   4.481   3.499  13.866 -2.3307  2.8216 -0.5285
14191TIP3   OH264063   0.967   4.029  11.456  0.8634 -0.2241  0.1694
14191TIP3    H164064   0.995   4.024  11.364  3.5625 -0.9147  0.9229
14191TIP3    H264065   0.907   4.103  11.458 -0.0971 -0.8235 -2.3153
14192TIP3   OH264066   2.210   1.203   3.319 -0.2867  0.3847 -0.0198
14192TIP3    H164067   2.294   1.248   3.329 -0.1904 -0.0471  1.3000
14192TIP3    H264068   2.217   1.126   3.375 -0.9874 -0.5201 -1.1258
14193TIP3   OH264069   3.912   4.160   0.085 -0.2876  0.4868 -0.6192
14193TIP3    H164070   3.959   4.077   0.083 -0.1072  0.5845 -0.3778
14193TIP3    H264071   3.901   4.183  -0.008  1.8606  1.4334 -0.6928
14194TIP3   OH264072   3.597   0.829  12.335 -0.3534  0.0097  0.1189
14194TIP3    H164073   3.598   0.738  12.305  3.3734  0.4187 -1.6204
14194TIP3    H264074   3.657   0.829  12.410 -1.2547  0.8836  0.8643
14195TIP3   OH264075   5.003   5.916  16.639 -0.4161 -0.1106  0.6525
14195TIP3    H164076   4.971   5.851  16.702  0.9775 -1.5397 -0.0386
14195TIP3    H264077   5.054   5.865  16.576 -1.4147  1.3197 -1.4252
14196TIP3   OH264078   1.842   5.238   2.991 -0.2537 -0.0871  0.0824
14196TIP3    H164079   1.774   5.258   2.927 -0.1797  0.9391  0.3034
14196TIP3    H264080   1.834   5.308   3.056 -0.1472 -0.9494  1.0460
14197TIP3   OH264081   2.888   1.286  12.572 -0.0754  0.3291  0.4064
14197TIP3    H164082   2.907   1.250  12.486 -0.5113  0.4971  0.2364
14197TIP3    H264083   2.874   1.210  12.628  1.3464  0.1844  0.6074
14198TIP3   OH264084   4.028   3.375  10.651 -0.2809 -0.3442 -0.4578
14198TIP3    H164085   3.934   3.352  10.652 -0.3058 -0.2462 -0.5426
14198TIP3    H264086   4.057   3.359  10.740 -0.7370  1.1175 -0.0262
14199TIP3   OH264087   1.157   4.105   5.824 -0.5821 -0.5806 -0.7618
14199TIP3    H164088   1.164   4.131   5.916  0.2301 -0.0799 -0.9549
14199TIP3    H264089   1.111   4.177   5.782 -0.9734 -0.8199 -0.7496
14200TIP3   OH264090   3.313   0.042  16.213 -0.6402 -0.2584 -0.0043
14200TIP3    H164091   3.397   0.079  16.238 -0.0016 -1.3592 -0.4218
14200TIP3    H264092   3.335  -0.020  16.143 -1.9302  0.2301 -0.8723
14201TIP3   OH264093   0.037   1.952  11.509 -0.4637 -0.0440  0.2123
14201TIP3    H164094   0.025   1.976  11.601 -0.8978  2.3910 -0.4054
14201TIP3    H264095   0.125   1.982  11.487 -0.7185  0.2639 -0.4123
14202TIP3   OH264096   2.868   3.636   4.126  0.3974 -0.4647 -0.3646
14202TIP3    H164097   2.920   3.659   4.202  1.1510 -2.3420 -0.2577
14202TIP3    H264098   2.886   3.705   4.062 -0.1271  1.0493  1.0470
14203TIP3   OH264099   3.932   4.687  14.252 -1.0875 -0.3020  0.0082
14203TIP3    H164100   3.992   4.615  14.232 -1.5005 -0.1539 -2.0257
14203TIP3    H264101   3.916   4.728  14.167 -3.6955 -0.0538  0.5407
14204TIP3   OH264102   6.128   2.624  17.276  0.5747  0.0074 -0.0403
14204TIP3    H164103   6.182   2.673  17.337 -0.8224 -0.5019  1.6676
14204TIP3    H264104   6.054   2.682  17.257 -0.1923 -0.7267  0.6249
14205TIP3   OH264105   0.701   2.207   3.880 -0.5633  0.2379 -0.1508
14205TIP3    H164106   0.771   2.259   3.841  1.1732 -0.9728  1.2213
14205TIP3    H264107   0.641   2.271   3.918  0.2802  1.2832 -0.5447
14206TIP3   OH264108   0.806   4.069  14.857 -0.6376  0.1932 -0.1361
14206TIP3    H164109   0.785   3.981  14.887 -1.4415  0.0152 -1.1477
14206TIP3    H264110   0.720   4.111  14.844 -0.2810  0.8932 -0.3158
14207TIP3   OH264111   5.821   2.404   2.011  0.0667  0.7021  0.4345
14207TIP3    H164112   5.771   2.465   2.065 -1.4387 -0.3580  0.2918
14207TIP3    H264113   5.825   2.323   2.063 -3.3373 -1.1041 -1.7841
14208TIP3   OH264114   4.744   5.152  13.739 -0.3886 -0.2614  0.4871
14208TIP3    H164115   4.719   5.155  13.647 -2.3991  0.2264  0.9911
14208TIP3    H264116   4.723   5.063  13.768 -1.3691  0.0640  0.8407
14209TIP3   OH264117   5.369   0.891  13.511 -0.0504  0.1056  0.0934
14209TIP3    H164118   5.285   0.850  13.533  0.4594 -0.0225  2.0253
14209TIP3    H264119   5.422   0.881  13.591  1.5328  0.8670 -0.8106
14210TIP3   OH264120   5.427   4.623  17.051 -0.2251 -0.0321  0.0814
14210TIP3    H164121   5.410   4.717  17.052 -0.6072 -0.1065  0.7988
14210TIP3    H264122   5.410   4.594  17.140  0.7484 -0.6336  0.0845
14211TIP3   OH264123   5.024   6.514  15.122  0.2285 -0.3959  0.4794
14211TIP3    H164124   5.037   6.602  15.087  0.9446 -0.5268  0.4070
14211TIP3    H264125   5.109   6.490  15.159  0.0105 -1.0220  0.5858
14212TIP3   OH264126   4.813   2.349   2.894 -0.1542  0.0524  0.3141
14212TIP3    H164127   4.821   2.322   2.803  1.5822  1.0759  0.1101
14212TIP3    H264128   4.720   2.345   2.913 -0.7516  1.4335 -2.0169
14213TIP3   OH264129   0.591   1.279   2.738 -0.0605  0.3219  0.1133
14213TIP3    H164130   0.554   1.198   2.774 -0.3496  1.1325  1.7102
14213TIP3    H264131   0.673   1.291   2.785  0.0561  0.8976 -0.2273
14214TIP3   OH264132   2.095   2.326   4.983  0.4019  0.5651 -0.3823
14214TIP3    H164133   2.129   2.415   4.995 -2.0792  1.5180  0.2297
14214TIP3    H264134   2.065   2.323   4.892 -2.1171  1.4402  0.3227
14215TIP3   OH264135   0.907   4.279  15.663  0.5881 -0.1166 -0.5080
14215TIP3    H164136   0.904   4.344  15.733  0.4262  1.8889 -2.2520
14215TIP3    H264137   0.998   4.248  15.663  0.9028  0.7793 -0.1930
14216TIP3   OH264138   4.665   2.859  14.718  0.4283 -0.3316  0.0473
14216TIP3    H164139   4.701   2.804  14.649  2.2850 -0.9695  1.4503
14216TIP3    H264140   4.631   2.798  14.783  3.7481 -0.0175  2.2819
14217TIP3   OH264141   0.137   1.846  14.489 -0.5761 -0.6415 -0.1548
14217TIP3    H164142   0.181   1.820  14.569  2.1666 -0.5824 -1.5059
14217TIP3    H264143   0.131   1.766  14.437 -1.2172 -0.4602 -0.3657
14218TIP3   OH264144   1.988   1.926  15.366  0.4749  0.0993  0.4333
14218TIP3    H164145   2.042   1.848  15.355  1.5586  0.7990  0.6817
14218TIP3    H264146   2.050   1.999  15.366 -0.6810  1.2959 -2.9173
14219TIP3   OH264147   5.618   4.095   5.451  0.4972  0.2547 -0.0649
14219TIP3    H164148   5.710   4.084   5.476  0.4834 -1.2440 -0.5661
14219TIP3    H264149   5.605   4.190   5.447  2.1643  0.4974 -0.4863
14220TIP3   OH264150   1.429   0.372   2.089  0.0902 -0.0741 -0.1111
14220TIP3    H164151   1.416   0.319   2.010 -0.0206 -1.9646  1.1160
14220TIP3    H264152   1.411   0.462   2.061 -0.2457 -0.7322 -2.1499
14221TIP3   OH264153   3.672   1.503   0.721 -0.0076  0.0589  0.2007
14221TIP3    H164154   3.687   1.510   0.816  0.8853 -1.2267  0.1796
14221TIP3    H264155   3.734   1.564   0.682  1.2809 -1.0849  0.3743
14222TIP3   OH264156   2.883   5.746  12.053 -0.3758 -0.5334 -0.1788
14222TIP3    H164157   2.960   5.694  12.075 -0.0307  0.3751  0.8474
14222TIP3    H264158   2.828   5.687  12.001  0.3116 -1.6984  0.3823
14223TIP3   OH264159   3.188   3.289  11.777 -0.1624  0.5065  0.6381
14223TIP3    H164160   3.262   3.334  11.736 -0.0757  0.6713  0.9743
14223TIP3    H264161   3.154   3.232  11.708 -0.2481  1.0547  0.2198
14224TIP3   OH264162   1.576   3.373   4.330 -0.2597  0.5233 -0.1061
14224TIP3    H164163   1.497   3.330   4.364  0.8041 -0.8898  0.6924
14224TIP3    H264164   1.631   3.387   4.407  1.2219 -0.6158 -0.8935
14225TIP3   OH264165   2.628   2.357   4.592 -0.0464 -0.2144  0.4015
14225TIP3    H164166   2.558   2.336   4.653 -0.0757  1.9928  1.2066
14225TIP3    H264167   2.591   2.338   4.506 -1.4440  0.3551  0.8545
14226TIP3   OH264168   4.026   5.689  16.303  0.0531  0.2843  0.7394
14226TIP3    H164169   4.105   5.638  16.320 -0.0584  0.1114  0.7420
14226TIP3    H264170   3.954   5.630  16.325 -0.0852  0.2124  0.1045
14227TIP3   OH264171   1.274   5.978   6.594 -0.2369 -0.5653 -0.5526
14227TIP3    H164172   1.360   5.957   6.558  0.0471 -1.2824  0.5015
14227TIP3    H264173   1.214   5.966   6.520  0.5867  0.2719 -1.3909
14228TIP3   OH264174   4.219   1.069   4.825 -0.3848  0.0606  0.6473
14228TIP3    H164175   4.143   1.036   4.872 -0.3254  0.7749  1.2556
14228TIP3    H264176   4.241   0.999   4.763 -2.4829  0.4908 -0.6681
14229TIP3   OH264177   4.435   1.966   5.909  0.2600  0.3558  0.5053
14229TIP3    H164178   4.412   1.900   5.844  0.7772  0.5392  0.1249
14229TIP3    H264179   4.466   1.916   5.985  0.9018  0.1528  0.1237
14230TIP3   OH264180   6.423   2.604   5.414 -0.3856 -0.2794 -0.4631
14230TIP3    H164181   6.372   2.685   5.406  2.9080  2.1914  1.3826
14230TIP3    H264182   6.389   2.563   5.494  0.1696  1.1508  0.5522
14231TIP3   OH264183   5.545   2.371  15.000  0.3346  0.7693 -0.4658
14231TIP3    H164184   5.586   2.295  14.958 -0.3326  0.7680 -1.1376
14231TIP3    H264185   5.607   2.442  14.987  1.0614  0.3064  0.3493
14232TIP3   OH264186   1.539   0.882  16.563  0.0203 -0.2249  0.1857
14232TIP3    H164187   1.488   0.805  16.586 -1.4276  0.7156  0.2193
14232TIP3    H264188   1.512   0.903  16.474 -0.9437  1.2733  0.8024
14233TIP3   OH264189   2.619   2.664  15.819 -0.0153 -0.0433  0.1437
14233TIP3    H164190   2.536   2.697  15.852 -0.4130 -0.7186 -0.1553
14233TIP3    H264191   2.598   2.628  15.732  1.0208  1.8273 -0.9540
14234TIP3   OH264192   6.710   0.112   5.984 -0.5096 -0.4814  0.3515
14234TIP3    H164193   6.777   0.044   5.985 -0.3475 -0.3213  0.5258
14234TIP3    H264194   6.679   0.117   6.074  1.3265  1.4785  0.9640
14235TIP3   OH264195   6.114   2.963   5.735  0.3049 -0.2003 -0.1787
14235TIP3    H164196   6.129   2.892   5.672  2.6702  0.4856 -0.4781
14235TIP3    H264197   6.198   2.972   5.781 -0.0269  2.1482  0.0870
14236TIP3   OH264198   1.390   1.186   4.663 -0.1164 -0.3461 -0.6077
14236TIP3    H164199   1.455   1.140   4.610 -0.5647 -0.6402 -0.9041
14236TIP3    H264200   1.387   1.138   4.745  0.9466  0.4027 -0.0961
14237TIP3   OH264201   5.934   5.564  17.062 -0.5871  0.0026 -0.3542
14237TIP3    H164202   5.982   5.481  17.058 -1.2508 -0.3709 -0.8086
14237TIP3    H264203   5.882   5.566  16.982  0.1550  1.3389 -0.8341
14238TIP3   OH264204   6.791   0.984  16.540  1.2191 -0.1124  0.3411
14238TIP3    H164205   6.805   0.902  16.586  2.7320 -0.0984 -0.0328
14238TIP3    H264206   6.745   0.960  16.460 -1.3910 -0.1441  1.7463
14239TIP3   OH264207   5.692   1.666  11.390 -0.2142  0.5276 -0.4879
14239TIP3    H164208   5.655   1.603  11.452 -0.9768  0.6183 -0.8350
14239TIP3    H264209   5.675   1.752  11.429 -1.3413  0.6229 -1.1339
14240TIP3   OH264210   2.703   5.379  12.077  0.0166  0.1359 -0.5523
14240TIP3    H164211   2.618   5.344  12.051 -1.9416  2.9062  1.5487
14240TIP3    H264212   2.696   5.389  12.172  3.3540 -1.0279 -0.0663
14241TIP3   OH264213   0.522   1.987  13.691 -0.1098  0.1363 -0.0335
14241TIP3    H164214   0.470   2.068  13.689  0.1429  0.2942 -0.3754
14241TIP3    H264215   0.494   1.939  13.613  0.6039  0.4451 -0.4884
14242TIP3   OH264216   5.325   3.004   5.244  0.5480 -0.4154 -0.1963
14242TIP3    H164217   5.273   3.065   5.296  0.4665 -1.1052  0.5500
14242TIP3    H264218   5.399   2.981   5.300  1.7389  0.6340 -1.2881
14243TIP3   OH264219   6.747   0.977  15.759 -0.0991 -0.5052  0.3291
14243TIP3    H164220   6.789   1.058  15.787  0.7529 -0.3210 -1.3128
14243TIP3    H264221   6.815   0.911  15.766 -0.5660 -0.9310  0.9253
14244TIP3   OH264222   0.338   0.177   4.262  0.3891  0.0306  0.5325
14244TIP3    H164223   0.430   0.201   4.271  0.9709 -0.2800 -3.1050
14244TIP3    H264224   0.301   0.244   4.205 -1.4878 -0.2780  1.3029
14245TIP3   OH264225   3.763   3.505  10.988  0.7178 -0.2745  0.4573
14245TIP3    H164226   3.723   3.424  10.957  1.2175 -0.1484 -0.5502
14245TIP3    H264227   3.698   3.573  10.969  0.2385 -0.4408  1.4332
14246TIP3   OH264228   1.328   4.799   5.238 -0.3375  0.3880 -0.1045
14246TIP3    H164229   1.407   4.847   5.215 -0.6010  0.1550 -1.6276
14246TIP3    H264230   1.270   4.864   5.278  0.6614  0.5191  1.2077
14247TIP3   OH264231   1.272   5.946  12.766  0.5924 -0.1546 -0.5612
14247TIP3    H164232   1.227   5.873  12.723  1.6354 -0.5918 -0.9356
14247TIP3    H264233   1.300   6.003  12.695  2.4201 -0.9363 -0.5247
14248TIP3   OH264234   2.622   0.933  16.966  0.1185 -0.0012 -0.7200
14248TIP3    H164235   2.629   0.970  16.877  0.2640  0.8639 -0.3628
14248TIP3    H264236   2.611   0.839  16.952  1.1438 -0.0076 -1.6365
14249TIP3   OH264237   6.300   0.294   1.784 -0.0358 -0.7942  0.3393
14249TIP3    H164238   6.328   0.312   1.874 -0.2650 -0.5474  0.3616
14249TIP3    H264239   6.227   0.233   1.793 -0.6224 -0.1052  0.3684
14250TIP3   OH264240   3.982   4.026   4.253 -0.6903  0.3322 -0.1328
14250TIP3    H164241   4.021   3.939   4.247 -0.8074  0.2437  0.3145
14250TIP3    H264242   3.920   4.030   4.180  0.7473  0.7948 -1.3808
14251TIP3   OH264243   1.932   3.561  12.812 -0.0064 -0.0494 -0.2322
14251TIP3    H164244   1.976   3.476  12.814 -1.0429 -0.5919  0.9932
14251TIP3    H264245   1.998   3.623  12.845  0.6933 -0.3825 -0.9586
14252TIP3   OH264246   2.289   3.172  13.863  0.2728 -0.0975 -0.2090
14252TIP3    H164247   2.232   3.170  13.786  1.0396  0.4063 -0.8143
14252TIP3    H264248   2.357   3.236  13.841  1.9056 -1.6973 -0.1133
14253TIP3   OH264249   6.168   1.801  13.571  0.0658  0.2918 -0.5254
14253TIP3    H164250   6.121   1.782  13.490  1.0943 -0.0940 -1.0495
14253TIP3    H264251   6.248   1.845  13.543  0.3223  0.3712  0.2995
14254TIP3   OH264252   6.816   0.447  14.780 -0.4232  0.0890 -0.1829
14254TIP3    H164253   6.727   0.445  14.816 -0.4259 -1.0470 -0.2378
14254TIP3    H264254   6.830   0.359  14.745  1.5153 -0.4311  1.7181
14255TIP3   OH264255   2.615   2.368  13.827  0.3074 -0.3660 -0.2905
14255TIP3    H164256   2.597   2.304  13.896  0.3483 -0.0283  0.0361
14255TIP3    H264257   2.690   2.418  13.858  1.0729 -0.9641 -1.1048
14256TIP3   OH264258   1.738   2.073   3.541 -0.1696 -0.8545 -0.3774
14256TIP3    H164259   1.674   2.017   3.585 -0.7535  0.6984  0.8206
14256TIP3    H264260   1.685   2.133   3.489  0.3358 -0.0565  0.0182
14257TIP3   OH264261   5.812   4.413   1.188 -0.2236  0.0817  0.1800
14257TIP3    H164262   5.834   4.505   1.171 -1.6194  0.4031  0.0237
14257TIP3    H264263   5.894   4.366   1.173 -0.1325  0.9471 -2.4627
14258TIP3   OH264264   4.320   4.719  16.144  0.2469 -0.1220 -0.2077
14258TIP3    H164265   4.400   4.751  16.103 -0.4069  1.7404 -0.1437
14258TIP3    H264266   4.350   4.659  16.212  1.4569 -1.2767 -1.6989
14259TIP3   OH264267   2.614   4.436   2.805  0.0754 -0.3130  0.5968
14259TIP3    H164268   2.641   4.365   2.863  0.2216 -0.8054 -0.0638
14259TIP3    H264269   2.622   4.400   2.717 -1.8699 -0.2024  0.3181
14260TIP3   OH264270   5.409   5.999  15.065 -0.1391  0.2758  0.1204
14260TIP3    H164271   5.501   6.008  15.038  0.2488 -0.1643  1.2103
14260TIP3    H264272   5.365   6.073  15.024  0.1069 -1.0460 -2.7516
14261TIP3   OH264273   2.199   5.232  13.145 -0.9650 -0.4225 -1.0862
14261TIP3    H164274   2.110   5.204  13.124 -1.8516  1.5068 -0.1589
14261TIP3    H264275   2.220   5.298  13.079  0.0964 -1.3833 -1.7435
14262TIP3   OH264276   3.169   3.004   4.853 -0.1878 -0.1451  0.6808
14262TIP3    H164277   3.242   3.065   4.845 -0.2934  0.0708  1.2711
14262TIP3    H264278   3.188   2.935   4.790 -0.3743  0.8044 -0.4584
14263TIP3   OH264279   4.977   5.643  14.821 -0.4800 -0.1995 -0.2745
14263TIP3    H164280   4.937   5.563  14.854  0.3979 -0.4892  0.1225
14263TIP3    H264281   4.926   5.713  14.860 -0.0231 -0.5449  0.9957
14264TIP3   OH264282   1.243   1.175   0.895  0.0812  0.2365 -0.4407
14264TIP3    H164283   1.335   1.183   0.871  0.0897  1.8360 -0.0342
14264TIP3    H264284   1.244   1.161   0.990 -0.0808 -0.3614 -0.5265
14265TIP3   OH264285   2.221   0.179  11.339  0.3132 -0.1541  0.4746
14265TIP3    H164286   2.178   0.226  11.410  0.0216  0.2988  0.0031
14265TIP3    H264287   2.165   0.194  11.263  1.9195  1.5408 -0.4661
14266TIP3   OH264288   3.481   3.683  15.692 -0.5273 -0.1321  0.6160
14266TIP3    H164289   3.480   3.592  15.721 -0.0117  0.1669  1.6098
14266TIP3    H264290   3.399   3.720  15.725 -1.0339 -0.3674 -0.3121
14267TIP3   OH264291   6.264   4.688  14.990 -0.0350 -0.3474  0.5199
14267TIP3    H164292   6.243   4.736  15.070  2.7182 -0.2052  1.2364
14267TIP3    H264293   6.353   4.656  15.003 -0.2618 -2.1288 -1.6584
14268TIP3   OH264294   5.704   0.175   1.700  0.4520 -0.0119  0.3566
14268TIP3    H164295   5.642   0.248   1.698  1.5928  0.9736 -1.5345
14268TIP3    H264296   5.649   0.097   1.710 -1.0935  0.8406 -1.0840
14269TIP3   OH264297   6.565   3.888   0.755  0.0701  1.0580  0.2276
14269TIP3    H164298   6.529   3.963   0.801 -1.6438  0.4810 -0.1021
14269TIP3    H264299   6.489   3.845   0.715  1.1176 -0.2875 -0.4198
14270TIP3   OH264300   6.181   1.101  14.659  0.0495 -0.1933  0.1446
14270TIP3    H164301   6.167   1.157  14.582  0.1522 -0.8448 -0.3540
14270TIP3    H264302   6.103   1.114  14.712  0.2980  0.8174  0.2857
14271TIP3   OH264303   4.885   4.577  11.810  0.1780 -0.0226  0.4989
14271TIP3    H164304   4.806   4.524  11.815  0.4947 -0.4289  1.4222
14271TIP3    H264305   4.957   4.515  11.818  0.6105  0.3351 -0.4000
14272TIP3   OH264306   4.460   5.403   6.546 -0.0302  0.2480  0.8801
14272TIP3    H164307   4.451   5.324   6.599  1.9917 -1.0742 -0.5889
14272TIP3    H264308   4.396   5.392   6.476  0.0101  0.0512  0.8722
14273TIP3   OH264309   0.428   5.117   0.006 -0.4799 -0.5736 -0.8998
14273TIP3    H164310   0.386   5.098   0.089 -0.9306  1.7473 -0.5272
14273TIP3    H264311   0.469   5.034  -0.020 -0.5490 -1.4271  1.4727
14274TIP3   OH264312   6.578   1.929  11.423  0.2693 -0.4308  0.0251
14274TIP3    H164313   6.575   1.904  11.330 -0.8465 -1.5884  0.3463
14274TIP3    H264314   6.664   1.900  11.452  0.0673 -1.3972 -0.3077
14275TIP3   OH264315   2.758   3.488  11.809 -0.3281  0.0304 -0.1806
14275TIP3    H164316   2.680   3.432  11.802 -1.0395  1.0362 -0.4701
14275TIP3    H264317   2.823   3.444  11.755 -0.4860 -1.1412  0.5353
14276TIP3   OH264318   5.614   0.490   2.144  0.1303  0.3437 -0.2512
14276TIP3    H164319   5.530   0.531   2.164 -0.0446 -0.2745  0.3536
14276TIP3    H264320   5.671   0.562   2.117 -0.2043  0.9642  0.6394
14277TIP3   OH264321   5.858   3.404  12.589  0.4738 -0.3118 -0.2637
14277TIP3    H164322   5.852   3.499  12.601 -1.3149 -0.1419 -2.0186
14277TIP3    H264323   5.918   3.375  12.658  0.6183  2.0019  0.6732
14278TIP3   OH264324   5.931   0.228   4.301  0.1385  0.8785  0.9109
14278TIP3    H164325   6.000   0.292   4.283  1.5678 -0.5337  1.1568
14278TIP3    H264326   5.945   0.159   4.236  0.4407 -0.5258  2.3996
14279TIP3   OH264327   2.494   3.342  13.793 -0.7020  0.2393  0.3939
14279TIP3    H164328   2.576   3.318  13.835 -0.9517  0.0958  0.8061
14279TIP3    H264329   2.480   3.433  13.816  0.5050  0.9986 -1.5945
14280TIP3   OH264330   3.010   5.020   5.920  0.3861  0.2024  1.0979
14280TIP3    H164331   3.097   5.017   5.961 -0.0209  2.5848  2.2891
14280TIP3    H264332   2.950   4.994   5.989  0.0519 -0.7147  0.4874
14281TIP3   OH264333   1.117   5.878  15.130 -0.0440  0.1129 -0.2524
14281TIP3    H164334   1.060   5.905  15.057  2.0845 -0.0681 -2.0755
14281TIP3    H264335   1.075   5.799  15.164 -2.7795  1.8910  0.8572
14282TIP3   OH264336   5.977   4.405  16.486 -0.6985  0.3894 -0.7262
14282TIP3    H164337   6.024   4.470  16.538 -1.1776  0.6602 -0.6200
14282TIP3    H264338   5.892   4.446  16.468 -0.3504  0.5068 -2.1643
14283TIP3   OH264339   5.699   5.987  11.321 -0.1395 -0.8251  0.3290
14283TIP3    H164340   5.684   6.030  11.405  1.5577  1.0220 -0.2194
14283TIP3    H264341   5.621   5.935  11.306 -1.0126 -0.2305  2.4706
14284TIP3   OH264342   5.112   5.340   2.765  0.0915  0.2035 -0.0241
14284TIP3    H164343   5.129   5.258   2.812  0.8050  1.8542  2.8843
14284TIP3    H264344   5.093   5.403   2.834 -1.4508  2.3086 -2.2081
14285TIP3   OH264345   0.938   3.362   3.247  0.1897 -0.3069 -1.4069
14285TIP3    H164346   1.003   3.424   3.278 -0.4305 -1.0160  1.6953
14285TIP3    H264347   0.885   3.411   3.184 -0.1107  2.2666  0.6986
14286TIP3   OH264348   0.111   3.022   2.934  0.0360 -0.0818  0.2306
14286TIP3    H164349   0.107   2.945   2.991  0.9739  0.6723  1.3672
14286TIP3    H264350   0.187   3.006   2.878 -0.8289 -0.7785 -0.7806
14287TIP3   OH264351   3.212   2.681  16.097 -0.3837  0.4633  0.5761
14287TIP3    H164352   3.257   2.616  16.151 -0.0946  0.4238  0.2913
14287TIP3    H264353   3.123   2.648  16.088 -0.8207  1.1317  2.1509
14288TIP3   OH264354   1.145   4.286  14.248 -0.1247 -0.2517 -0.4535
14288TIP3    H164355   1.069   4.329  14.210  0.7768  2.3371  0.4537
14288TIP3    H264356   1.192   4.250  14.173 -1.6839 -0.9969 -1.1119
14289TIP3   OH264357   0.315   5.371  11.176 -0.2477  0.2940  0.1542
14289TIP3    H164358   0.368   5.311  11.123  0.9635  1.0523  0.4543
14289TIP3    H264359   0.243   5.396  11.119 -0.1451 -0.5460 -0.3755
14290TIP3   OH264360   2.616   4.348  12.601  0.5686 -1.0763 -0.2165
14290TIP3    H164361   2.584   4.359  12.690 -0.3451 -1.7233 -0.4524
14290TIP3    H264362   2.664   4.428  12.583 -1.3044  0.1662 -0.0007
14291TIP3   OH264363   2.501   1.288  15.787 -0.7077  0.1301  0.6355
14291TIP3    H164364   2.541   1.229  15.723 -2.3063  2.5811 -2.9158
14291TIP3    H264365   2.574   1.315  15.844  1.2528 -0.7067 -1.3352
14292TIP3   OH264366   5.090   0.098  13.723  0.0876 -0.2924 -0.1497
14292TIP3    H164367   4.998   0.080  13.703 -0.1957 -1.4198  1.9147
14292TIP3    H264368   5.092   0.109  13.818  1.7431  2.0543 -0.3804
14293TIP3   OH264369   2.407   0.387  13.740  0.3487 -0.2186  0.1030
14293TIP3    H164370   2.339   0.323  13.718 -1.2094  2.0589 -2.4168
14293TIP3    H264371   2.361   0.453  13.792  1.3164  0.0423  0.6391
14294TIP3   OH264372   5.269   2.872   1.977 -0.5595  0.2008  0.2886
14294TIP3    H164373   5.324   2.869   2.055  0.7402 -0.3215 -0.6202
14294TIP3    H264374   5.236   2.962   1.974 -1.9219 -0.1467  2.2630
14295TIP3   OH264375   1.770   6.064  13.785  0.1522  0.0175 -0.0877
14295TIP3    H164376   1.773   6.138  13.846 -0.0477  0.5653 -0.7240
14295TIP3    H264377   1.862   6.045  13.766  0.2064  0.0426  0.1448
14296TIP3   OH264378   4.515   1.743   1.164  0.1027 -0.3648 -0.0831
14296TIP3    H164379   4.493   1.757   1.072 -0.3319 -1.7266 -0.2172
14296TIP3    H264380   4.562   1.822   1.190 -0.7563  0.5409 -1.1538
14297TIP3   OH264381   3.695   3.702  15.887 -0.0128 -0.5783 -0.0756
14297TIP3    H164382   3.690   3.611  15.917 -1.1035 -0.3633  0.4755
14297TIP3    H264383   3.644   3.703  15.806 -0.7483 -0.2989  0.3783
14298TIP3   OH264384   5.688   5.471   0.257  0.0055  0.2270 -0.0802
14298TIP3    H164385   5.620   5.403   0.250  0.0219 -0.1866  2.5430
14298TIP3    H264386   5.752   5.434   0.318  1.8094  1.2550 -1.2760
14299TIP3   OH264387   4.747   3.661  12.760  0.1109 -0.3333 -0.9383
14299TIP3    H164388   4.840   3.681  12.746 -0.2280  0.6586 -1.9382
14299TIP3    H264389   4.730   3.585  12.705  0.2212 -0.2105 -1.1428
14300TIP3   OH264390   0.824   1.822  12.545  0.7229 -0.5421 -0.2731
14300TIP3    H164391   0.884   1.884  12.504 -0.6769  0.6897 -0.5566
14300TIP3    H264392   0.766   1.876  12.599 -0.6105 -1.5634 -0.6094
14301TIP3   OH264393   6.324   3.355   5.449  0.5978 -0.7561 -0.2333
14301TIP3    H164394   6.382   3.289   5.412  0.5540 -1.4117  0.8273
14301TIP3    H264395   6.251   3.305   5.486  1.4047 -0.3119  2.1370
14302TIP3   OH264396   6.707   0.278  11.967 -0.5744  0.5560  0.3833
14302TIP3    H164397   6.732   0.265  12.059 -0.2573  0.7620  0.3233
14302TIP3    H264398   6.624   0.230  11.959  0.1792 -0.8032  0.3749
14303TIP3   OH264399   0.864   2.312  10.765 -0.7334 -0.2451  0.2274
14303TIP3    H164400   0.816   2.229  10.763 -0.1622 -0.5990  0.6924
14303TIP3    H264401   0.955   2.286  10.783 -0.4810  0.4557 -0.0204
14304TIP3   OH264402   1.253   3.380  12.251 -0.0202  0.2576  0.3042
14304TIP3    H164403   1.240   3.304  12.195 -1.1551  1.3554 -0.9930
14304TIP3    H264404   1.216   3.453  12.201  1.6295  1.7890  1.2024
14305TIP3   OH264405   3.279   2.454  12.255  0.0833  0.1056  0.0783
14305TIP3    H164406   3.274   2.398  12.332 -0.5037 -1.8795 -1.3188
14305TIP3    H264407   3.191   2.491  12.247 -0.5384 -1.4629 -0.8342
14306TIP3   OH264408   1.436   4.864   2.928 -0.2223 -0.1541 -0.2949
14306TIP3    H164409   1.345   4.890   2.913 -0.6685  0.2508  2.6494
14306TIP3    H264410   1.487   4.942   2.904 -0.8134  0.2908 -0.1341
14307TIP3   OH264411   0.844   6.131   3.342  0.5038  0.4406  0.1035
14307TIP3    H164412   0.814   6.149   3.432 -0.6511 -0.4922 -0.0540
14307TIP3    H264413   0.808   6.202   3.290 -3.1993 -1.4899 -0.3652
14308TIP3   OH264414   1.136   6.065  15.327  0.6562 -0.3850  0.6739
14308TIP3    H164415   1.201   6.129  15.295 -0.7372  1.1803  0.8260
14308TIP3    H264416   1.123   6.006  15.254  0.6998  0.5640 -0.1270
14309TIP3   OH264417   6.468   6.454  12.698  0.0643  0.7615  0.0548
14309TIP3    H164418   6.487   6.421  12.786  0.1362  0.8616  0.0771
14309TIP3    H264419   6.543   6.425  12.646 -1.3226 -1.8592 -0.6664
14310TIP3   OH264420   0.147   1.175  16.356 -0.4847  0.5597  0.6094
14310TIP3    H164421   0.242   1.179  16.365 -0.5143  1.7698  0.6075
14310TIP3    H264422   0.131   1.099  16.300  0.4994  0.6044  0.2454
14311TIP3   OH264423   0.664   3.596  15.073  0.2205 -0.5653  0.4671
14311TIP3    H164424   0.674   3.582  15.167  2.6958 -1.3174  0.1592
14311TIP3    H264425   0.670   3.691  15.062  2.3844 -0.6069  0.8964
14312TIP3   OH264426   3.142   2.313  11.654  0.0876  0.2036 -0.3954
14312TIP3    H164427   3.051   2.340  11.658 -0.0871 -0.2056 -1.4522
14312TIP3    H264428   3.142   2.222  11.683  0.2687  0.4300  0.3267
14313TIP3   OH264429   2.120   4.192  16.076 -0.4966 -0.4110 -0.0327
14313TIP3    H164430   2.185   4.262  16.076  0.7909 -1.5568  1.0919
14313TIP3    H264431   2.079   4.198  15.989  0.0853  1.2468 -0.2274
14314TIP3   OH264432   1.693   0.730   3.333 -1.0553  0.0386 -0.0998
14314TIP3    H164433   1.724   0.653   3.285 -0.4133  0.5550 -0.5305
14314TIP3    H264434   1.751   0.735   3.409 -1.2650 -0.0572  0.0649
14315TIP3   OH264435   6.317   0.255   5.929 -0.3464  0.2665 -0.1944
14315TIP3    H164436   6.285   0.230   6.015  0.3587  0.2108  0.0576
14315TIP3    H264437   6.258   0.324   5.900 -1.0846 -0.2844 -0.0247
14316TIP3   OH264438   1.819   0.993  15.633  0.2694  0.2698 -0.1091
14316TIP3    H164439   1.803   0.914  15.685 -0.7183  1.1019  0.8936
14316TIP3    H264440   1.755   0.988  15.562 -1.8059  1.5240  1.5552
14317TIP3   OH264441   6.485   3.860  14.286 -0.2649  0.0541 -0.1991
14317TIP3    H164442   6.422   3.824  14.349  0.5283 -0.0805  0.5336
14317TIP3    H264443   6.556   3.895  14.340 -0.6767  2.1388 -0.8934
14318TIP3   OH264444   3.547   0.137  16.002 -0.0049  0.1027  0.3797
14318TIP3    H164445   3.551   0.127  16.097 -1.2048 -0.2437  0.4149
14318TIP3    H264446   3.514   0.053  15.970  0.2593  0.2616 -0.3307
14319TIP3   OH264447   6.089   4.746   5.516 -0.0318  0.4180  0.5284
14319TIP3    H164448   6.139   4.753   5.597  0.4580 -0.6345  0.3197
14319TIP3    H264449   6.147   4.703   5.454 -1.5925 -2.1297  0.6802
14320TIP3   OH264450   4.869   6.813   2.843  0.4283  0.8018  0.3434
14320TIP3    H164451   4.865   6.721   2.869  2.1966  0.9932  1.5035
14320TIP3    H264452   4.872   6.861   2.926 -0.3499  1.9121 -0.2496
14321TIP3   OH264453   6.100   6.428  12.312 -0.4601  0.1879 -0.0429
14321TIP3    H164454   6.026   6.369  12.294  0.0179 -0.0180 -1.5157
14321TIP3    H264455   6.117   6.470  12.228  0.0031  1.5293  0.7003
14322TIP3   OH264456   2.059   5.501   0.836 -0.5903 -0.2403 -0.1401
14322TIP3    H164457   2.019   5.434   0.781  0.9360 -2.0317  0.7854
14322TIP3    H264458   2.149   5.471   0.848 -0.4006  0.9621  1.9219
14323TIP3   OH264459   6.508   4.660   3.487 -0.4366  0.4025  0.3861
14323TIP3    H164460   6.465   4.582   3.454  2.4450 -0.1313 -2.5667
14323TIP3    H264461   6.528   4.640   3.579  0.0389 -2.2754 -0.2385
14324TIP3   OH264462   0.253   4.646   5.174 -0.1996 -0.2655  0.1246
14324TIP3    H164463   0.314   4.705   5.131  1.3581  0.3343  2.9026
14324TIP3    H264464   0.303   4.608   5.247 -1.4815 -4.1409 -0.7686
14325TIP3   OH264465   3.803   3.581   0.523  0.0272  0.0761 -0.3124
14325TIP3    H164466   3.784   3.488   0.536 -0.2366  0.3095  1.0324
14325TIP3    H264467   3.899   3.584   0.513  0.3200 -0.1307  1.9045
14326TIP3   OH264468   0.650   5.744   0.529  0.2249 -0.4477  0.6962
14326TIP3    H164469   0.741   5.743   0.559  0.1594 -0.0162  0.9183
14326TIP3    H264470   0.652   5.802   0.452  0.0564 -0.0749  0.9716
14327TIP3   OH264471   5.490   1.078   4.810  0.0781  0.5698 -0.1739
14327TIP3    H164472   5.395   1.090   4.811 -0.0848 -0.5740  1.0903
14327TIP3    H264473   5.525   1.165   4.790 -1.2371  0.8492 -1.3843
14328TIP3   OH264474   3.745   5.845  13.782  0.7254  0.0244  0.2740
14328TIP3    H164475   3.723   5.921  13.728 -0.9998  0.1529  1.0902
14328TIP3    H264476   3.822   5.871  13.831  0.7362  0.8729 -0.1722
14329TIP3   OH264477   1.750   3.404   2.420 -0.7656 -0.1258 -0.4850
14329TIP3    H164478   1.661   3.411   2.384 -0.9982 -0.9529 -0.0982
14329TIP3    H264479   1.737   3.397   2.514 -0.1193  2.7811 -0.0744
14330TIP3   OH264480   3.320   1.927  13.618  0.1596 -0.3973 -0.2152
14330TIP3    H164481   3.302   1.928  13.524 -0.7041  0.1722 -0.0550
14330TIP3    H264482   3.416   1.919  13.624  0.7517  3.5559 -1.2389
14331TIP3   OH264483   0.748   1.611  15.512  0.0955  0.0013 -0.4827
14331TIP3    H164484   0.807   1.536  15.503 -0.7402 -0.4785 -2.4356
14331TIP3    H264485   0.663   1.578  15.483 -0.3428  1.6438 -1.1273
14332TIP3   OH264486   5.979   2.141   0.885 -0.8838  0.7359  0.6322
14332TIP3    H164487   5.986   2.046   0.877  1.1249  0.8122  1.0221
14332TIP3    H264488   6.068   2.170   0.906 -1.5551  2.6560  1.0220
14333TIP3   OH264489   1.118   0.820  16.202  0.5389 -0.0531 -0.4871
14333TIP3    H164490   1.101   0.785  16.290 -0.9544  1.4047 -0.1507
14333TIP3    H264491   1.091   0.750  16.143 -3.0363  0.6137  0.1424
14334TIP3   OH264492   6.699   5.766  14.255 -0.1730  0.3446  0.3786
14334TIP3    H164493   6.684   5.733  14.344  0.4383  1.3150  0.8542
14334TIP3    H264494   6.784   5.731  14.231  0.0052  0.7051  0.4778
14335TIP3   OH264495   5.207   4.155   2.671  0.8281 -0.1614 -0.0221
14335TIP3    H164496   5.249   4.071   2.655  0.2354 -0.0685 -2.3823
14335TIP3    H264497   5.272   4.206   2.719  1.9996 -1.2518 -0.4132
14336TIP3   OH264498   4.988   6.191   2.257  0.0849 -0.1939  0.2112
14336TIP3    H164499   4.967   6.143   2.177 -0.1687 -0.8302  0.6471
14336TIP3    H264500   5.021   6.124   2.317 -1.6034 -0.0915  1.3319
14337TIP3   OH264501   1.288   1.058   4.193  0.2402 -0.2241  0.0054
14337TIP3    H164502   1.258   1.003   4.265 -2.1228  0.6535 -0.2104
14337TIP3    H264503   1.305   1.143   4.233  0.9336 -0.2747 -0.1628
14338TIP3   OH264504   3.561   3.289   3.565 -0.0116 -0.1811  0.6991
14338TIP3    H164505   3.494   3.281   3.498 -0.5291  0.8194  1.0702
14338TIP3    H264506   3.555   3.209   3.616  0.6424 -1.1255 -0.6617
14339TIP3   OH264507   4.204   0.213   5.221 -0.5562 -0.1291 -0.0267
14339TIP3    H164508   4.278   0.237   5.165 -0.4490  1.8168  0.8718
14339TIP3    H264509   4.242   0.199   5.307 -0.9234 -1.6266 -0.0869
14340TIP3   OH264510   0.031   1.224  16.710 -0.0704  0.2118  0.4701
14340TIP3    H164511   0.023   1.140  16.664  0.7905 -0.7144  1.9252
14340TIP3    H264512  -0.052   1.268  16.692 -1.3763 -1.7750  1.1830
14341TIP3   OH264513   6.733   1.142   2.905 -0.2147  0.4193  0.3751
14341TIP3    H164514   6.690   1.224   2.929  0.5062  0.5870  1.1131
14341TIP3    H264515   6.770   1.109   2.987 -0.8293 -0.8467  0.1710
14342TIP3   OH264516   2.184   0.870   0.988 -0.7416 -0.0026 -0.9007
14342TIP3    H164517   2.101   0.857   0.942 -1.2220  0.9955 -0.3424
14342TIP3    H264518   2.160   0.882   1.079 -0.1417  1.8081 -0.9402
14343TIP3   OH264519   6.741   5.474   0.507  0.4912 -0.0937 -0.6176
14343TIP3    H164520   6.733   5.495   0.414  1.1356 -2.4108 -1.2603
14343TIP3    H264521   6.823   5.517   0.534 -0.8488  2.5410 -0.4482
14344TIP3   OH264522   0.998   3.280  14.163  0.1626 -0.4509 -0.0322
14344TIP3    H164523   1.029   3.326  14.085 -1.4688  1.2163  0.2128
14344TIP3    H264524   0.992   3.348  14.230  0.4518 -1.6244  1.2393
14345TIP3   OH264525   0.306   1.122   1.193  0.2279 -0.7076 -0.2294
14345TIP3    H164526   0.281   1.039   1.234  1.3430 -1.3033 -0.7087
14345TIP3    H264527   0.223   1.166   1.176 -0.4531 -2.1696 -0.8756
14346TIP3   OH264528   3.176   3.543  15.717 -0.0252  0.0061  0.5839
14346TIP3    H164529   3.118   3.473  15.748  1.0011 -1.5177 -0.7556
14346TIP3    H264530   3.205   3.588  15.797 -0.2673 -1.4722  1.5387
14347TIP3   OH264531   6.109   2.466   2.038  0.0740 -0.3187 -0.4335
14347TIP3    H164532   6.130   2.556   2.063  3.2859 -1.6791  2.7416
14347TIP3    H264533   6.019   2.453   2.068  0.1302  1.3837  0.6430
14348TIP3   OH264534   6.004   2.144  16.216 -0.0555  0.0043  0.3238
14348TIP3    H164535   5.921   2.159  16.171 -0.3506 -0.6974  0.6194
14348TIP3    H264536   5.996   2.193  16.298  1.1843  2.7721 -1.1084
14349TIP3   OH264537   2.090   1.171   5.286  0.4877 -0.0295  0.2339
14349TIP3    H164538   2.171   1.222   5.278 -0.1702  0.6999 -2.4629
14349TIP3    H264539   2.021   1.231   5.259 -0.4892 -1.8026 -1.4314
14350TIP3   OH264540   2.688   5.633   4.249  0.9759 -0.1544 -0.4649
14350TIP3    H164541   2.653   5.597   4.331 -3.1328 -0.7671 -2.2872
14350TIP3    H264542   2.756   5.571   4.223 -1.0804 -2.8179  0.0604
14351TIP3   OH264543   6.451   5.006  15.177  0.1433  0.1165  0.2579
14351TIP3    H164544   6.391   4.953  15.229 -0.2684 -1.3015 -1.5664
14351TIP3    H264545   6.397   5.076  15.141  0.2372  0.5600  0.9587
14352TIP3   OH264546   5.306   2.923   1.589 -0.1107 -0.3028  0.1735
14352TIP3    H164547   5.352   2.994   1.544  2.2980 -1.6112  0.3588
14352TIP3    H264548   5.362   2.902   1.664 -0.8999 -2.1770  0.2906
14353TIP3   OH264549   3.650   0.535   1.826 -0.1239 -0.4143 -0.2054
14353TIP3    H164550   3.580   0.481   1.792 -0.0018 -0.4338 -0.4299
14353TIP3    H264551   3.679   0.588   1.751  0.0389 -0.3424 -0.0945
14354TIP3   OH264552   4.776   3.725  15.149 -0.1822 -0.0826  0.3015
14354TIP3    H164553   4.723   3.777  15.211 -2.3653 -0.9059 -0.7841
14354TIP3    H264554   4.797   3.645  15.197  1.2003  0.7551  1.1640
14355TIP3   OH264555   3.310   5.684  14.960 -0.5666 -0.2999 -0.2074
14355TIP3    H164556   3.326   5.613  15.022  0.9781  0.3900  0.2208
14355TIP3    H264557   3.274   5.640  14.882  3.6426 -2.1797 -1.4023
14356TIP3   OH264558   2.561   2.746  12.671  0.2312 -0.9506  0.1279
14356TIP3    H164559   2.620   2.740  12.746  0.9127  0.0160 -0.3068
14356TIP3    H264560   2.539   2.656  12.650 -0.0370 -1.2352  1.5351
14357TIP3   OH264561   6.517   5.005  11.030 -0.0870  0.7216 -0.4278
14357TIP3    H164562   6.567   4.932  10.992  0.2614  0.1936  0.9602
14357TIP3    H264563   6.565   5.083  11.003  1.3721  0.2455  0.5993
14358TIP3   OH264564   6.390   2.993   5.470  0.5220 -0.4332 -0.0206
14358TIP3    H164565   6.481   3.007   5.495  0.3755 -1.5557  1.2559
14358TIP3    H264566   6.339   3.037   5.538  0.0123  2.4956 -2.0846
14359TIP3   OH264567   5.185   0.585   3.325  0.1389  0.5840 -0.3859
14359TIP3    H164568   5.255   0.550   3.270  0.1842  1.2639 -0.7813
14359TIP3    H264569   5.149   0.509   3.371  1.1906  0.2393 -0.1156
14360TIP3   OH264570   6.226   1.681   2.131  0.2984 -0.0915 -0.2558
14360TIP3    H164571   6.133   1.700   2.119  0.2788 -0.1340 -0.1690
14360TIP3    H264572   6.231   1.635   2.214  0.1134 -2.0304 -1.2422
14361TIP3   OH264573   4.720   4.996  11.555 -0.2047 -0.4963 -0.1114
14361TIP3    H164574   4.736   5.037  11.470  0.9222  0.5048  0.5583
14361TIP3    H264575   4.678   4.913  11.533 -0.6537  0.0775 -1.6035
14362TIP3   OH264576   6.629   1.379  16.867  0.0643  0.1852 -0.7368
14362TIP3    H164577   6.544   1.409  16.898 -0.0503 -0.4175 -0.4745
14362TIP3    H264578   6.629   1.400  16.773 -1.1196 -1.5038 -1.1622
14363TIP3   OH264579   1.943   0.562   2.048 -0.0455  0.2287  0.1338
14363TIP3    H164580   1.927   0.504   1.973  1.8636  0.6818 -0.6824
14363TIP3    H264581   1.908   0.647   2.021 -1.4990 -0.1422  0.7423
14364TIP3   OH264582   2.000   4.323   1.335 -0.3363 -0.7798 -0.5035
14364TIP3    H164583   1.918   4.330   1.287 -1.2234  1.4575  1.1633
14364TIP3    H264584   1.986   4.249   1.395 -1.1070 -0.4633 -0.2834
14365TIP3   OH264585   4.387   1.704  11.346 -0.4913  0.9026  0.2691
14365TIP3    H164586   4.395   1.790  11.306 -2.0569  0.5265 -0.9604
14365TIP3    H264587   4.331   1.718  11.423  0.3361  1.1875  0.8259
14366TIP3   OH264588   6.478   5.069   1.593  0.4060  0.4233  0.0215
14366TIP3    H164589   6.447   5.127   1.662 -1.1649 -0.7194  0.3132
14366TIP3    H264590   6.429   4.988   1.605  3.3757 -1.4843  0.3749
14367TIP3   OH264591   1.348   1.872  15.585 -0.6666  0.2190 -0.5464
14367TIP3    H164592   1.371   1.844  15.674 -0.5561 -0.5605 -0.8125
14367TIP3    H264593   1.399   1.952  15.571 -1.3240  0.8223  0.3889
14368TIP3   OH264594   1.321   4.037   2.969  0.7332 -0.3610 -0.7964
14368TIP3    H164595   1.406   3.997   2.953  0.6509 -0.7376 -0.3242
14368TIP3    H264596   1.290   4.063   2.882  0.6070 -1.6810 -1.1619
14369TIP3   OH264597   6.177   6.051   4.953 -0.3387 -0.3624 -0.0322
14369TIP3    H164598   6.228   6.072   4.875 -0.2040 -2.2473 -0.5023
14369TIP3    H264599   6.241   6.053   5.024  0.6109 -3.1042 -0.6732
14370TIP3   OH264600   5.405   4.883  15.884 -0.7121 -0.1697 -0.2974
14370TIP3    H164601   5.315   4.891  15.915 -0.6433 -1.3791  0.3035
14370TIP3    H264602   5.406   4.925  15.798 -1.7567  0.1884 -0.1361
14371TIP3   OH264603   5.010   1.251  17.149 -0.2717  0.2153  0.5214
14371TIP3    H164604   5.049   1.172  17.185 -0.4347  0.3068  0.9019
14371TIP3    H264605   4.917   1.245  17.172 -0.0572  1.1681  1.7779
14372TIP3   OH264606   1.216   3.316  16.006  0.1563  0.1669  0.2744
14372TIP3    H164607   1.151   3.365  15.956  0.8414  1.5089  0.6578
14372TIP3    H264608   1.291   3.375  16.014  0.9793 -0.9086  0.8443
14373TIP3   OH264609   0.335   0.743  12.556 -0.1003 -0.0694 -0.1098
14373TIP3    H164610   0.427   0.739  12.584  0.0908  0.0925 -0.7085
14373TIP3    H264611   0.291   0.791  12.626  0.7475  2.1365 -1.0142
14374TIP3   OH264612   1.717   5.350  11.943 -0.7031  0.3126  0.8825
14374TIP3    H164613   1.655   5.282  11.916  1.7443 -0.8566 -2.4736
14374TIP3    H264614   1.671   5.433  11.927 -2.0563 -0.4940  0.4642
14375TIP3   OH264615   6.519   3.198   4.838  0.1513 -0.3832 -0.1612
14375TIP3    H164616   6.519   3.242   4.753  0.0205 -0.9496 -0.4616
14375TIP3    H264617   6.499   3.267   4.901  0.7636  0.1423 -0.5327
14376TIP3   OH264618   1.045   0.870  13.671  0.5694 -0.0609  0.6377
14376TIP3    H164619   1.027   0.958  13.704 -0.1858 -0.9765  2.8466
14376TIP3    H264620   1.091   0.885  13.588 -2.9186  2.4214 -1.1326
14377TIP3   OH264621   4.517   2.413  16.081  0.0586 -0.3445 -0.3324
14377TIP3    H164622   4.502   2.340  16.021  1.2782 -1.9995  1.2627
14377TIP3    H264623   4.591   2.460  16.043  1.6558 -2.1120  0.3937
14378TIP3   OH264624   2.721   5.468  13.324  0.1320  0.1063 -0.5028
14378TIP3    H164625   2.687   5.548  13.365 -1.4568 -0.5231 -0.5554
14378TIP3    H264626   2.716   5.402  13.393  3.2230  0.3926  0.1639
14379TIP3   OH264627   5.099   3.898   0.353  0.7195  0.3865 -0.3248
14379TIP3    H164628   5.051   3.981   0.356  2.1934  1.2507  0.3333
14379TIP3    H264629   5.080   3.863   0.266  0.6318  1.7611 -0.8797
14380TIP3   OH264630   6.305   4.864   1.648  0.1927  0.1724 -0.1810
14380TIP3    H164631   6.231   4.883   1.590  0.6634 -1.0970 -1.2464
14380TIP3    H264632   6.266   4.857   1.735 -0.9175 -0.1976 -0.6826
14381TIP3   OH264633   3.398   3.826   5.563 -0.1059 -0.3295 -0.3068
14381TIP3    H164634   3.453   3.763   5.517 -0.7209 -0.7781 -0.4399
14381TIP3    H264635   3.348   3.870   5.494 -0.7205 -0.7075 -0.1158
14382TIP3   OH264636   3.573   0.472  13.342 -0.2727  0.1792  0.1144
14382TIP3    H164637   3.560   0.563  13.370  1.2662  0.5718 -0.3553
14382TIP3    H264638   3.551   0.472  13.249  1.1538  0.4422 -0.2495
14383TIP3   OH264639   1.576   1.864  13.652 -0.1150 -0.2010  0.2621
14383TIP3    H164640   1.552   1.948  13.611  0.0747 -0.4070 -0.2833
14383TIP3    H264641   1.570   1.881  13.746  1.4959  0.9137  0.2052
14384TIP3   OH264642   0.829   1.003  15.526  0.1788 -0.0137  0.2533
14384TIP3    H164643   0.776   0.986  15.448 -1.2534  0.2125  1.1575
14384TIP3    H264644   0.878   1.082  15.505 -1.3299  0.9125  0.1273
14385TIP3   OH264645   4.043   6.799  16.832  0.4350  0.7714  0.3119
14385TIP3    H164646   4.092   6.855  16.892  1.1616  1.2307 -0.6683
14385TIP3    H264647   4.109   6.739  16.797 -0.0090  0.3994  0.1062
14386TIP3   OH264648   5.328   1.250   5.183  0.3898  0.3628  0.1465
14386TIP3    H164649   5.359   1.160   5.175  0.2377  0.3031  0.2229
14386TIP3    H264650   5.347   1.289   5.098  2.0338  0.7600  0.6443
14387TIP3   OH264651   4.954   5.041  16.579  0.5910  0.2281  0.2546
14387TIP3    H164652   4.894   4.991  16.523  1.3498  0.3351 -0.6691
14387TIP3    H264653   5.037   4.994  16.573  1.1779  1.3081 -0.2153
14388TIP3   OH264654   6.621   5.268  12.828 -0.2571  0.5499 -0.0541
14388TIP3    H164655   6.530   5.239  12.830  0.0652 -0.6493 -1.2602
14388TIP3    H264656   6.652   5.256  12.918 -0.3127 -2.5174 -0.3127
14389TIP3   OH264657   3.893   2.616  13.338 -0.2768 -0.2287  0.4914
14389TIP3    H164658   3.835   2.660  13.277 -2.3700 -3.4075 -0.0653
14389TIP3    H264659   3.835   2.565  13.394  1.8724 -2.2404  1.0752
14390TIP3   OH264660   3.027   1.789   0.909 -0.1884  0.0032 -0.4662
14390TIP3    H164661   3.092   1.851   0.876  1.4548 -2.6387 -2.6641
14390TIP3    H264662   3.077   1.709   0.924 -2.2061 -0.9082  2.2109
14391TIP3   OH264663   3.915   2.076  13.202  0.5025  0.3521 -0.3422
14391TIP3    H164664   3.823   2.052  13.198  0.2600  0.7161  1.7808
14391TIP3    H264665   3.914   2.167  13.232  1.5344  0.4154 -0.4817
14392TIP3   OH264666   2.672   3.922   2.565 -0.0768  0.7801  0.3680
14392TIP3    H164667   2.723   3.983   2.619  1.4529  0.4562 -0.6291
14392TIP3    H264668   2.723   3.914   2.484 -1.4118 -0.0872 -0.4209
14393TIP3   OH264669   5.493   3.843  16.476 -0.4421 -0.4634  0.5656
14393TIP3    H164670   5.467   3.765  16.526  0.1526 -1.3684 -0.4840
14393TIP3    H264671   5.588   3.834  16.468 -0.4044  0.2409  0.2022
14394TIP3   OH264672   1.570   3.271  15.525  0.6021 -0.2413  0.1542
14394TIP3    H164673   1.526   3.308  15.602  3.2306 -1.2428  2.2922
14394TIP3    H264674   1.519   3.194  15.503 -0.2315  0.0949  0.8326
14395TIP3   OH264675   0.513   6.048   5.197  0.2808  0.1166 -0.2122
14395TIP3    H164676   0.573   6.063   5.124 -0.6198  3.4782 -0.4142
14395TIP3    H264677   0.426   6.055   5.159 -0.3381 -2.6042  0.4676
14396TIP3   OH264678   3.979   5.964   3.258 -0.2149 -0.2064  0.1097
14396TIP3    H164679   3.920   5.968   3.183 -0.1849 -0.1687  0.0877
14396TIP3    H264680   3.944   5.895   3.314 -0.1392 -0.3529 -0.0223
14397TIP3   OH264681   2.837   1.605   1.370 -0.5306  0.0551  0.3173
14397TIP3    H164682   2.887   1.643   1.298  0.6702  1.2879  1.7235
14397TIP3    H264683   2.860   1.513   1.370  1.5354  0.5245  0.6998
14398TIP3   OH264684   1.982   0.646   5.193 -0.4017  0.0725 -0.4198
14398TIP3    H164685   1.972   0.712   5.124 -1.4568  1.8291  1.2790
14398TIP3    H264686   1.957   0.693   5.273  0.1652 -2.0471  1.0680
14399TIP3   OH264687   3.256   5.232  13.367  0.2459 -0.3356 -0.9317
14399TIP3    H164688   3.190   5.242  13.298  0.4064 -0.8737 -1.1733
14399TIP3    H264689   3.274   5.321  13.396 -1.3827 -0.2408 -0.0888
14400TIP3   OH264690   6.488   0.315  13.788 -0.2734  0.3118 -0.4835
14400TIP3    H164691   6.561   0.361  13.829 -0.4445  2.6232 -2.5389
14400TIP3    H264692   6.435   0.283  13.861  1.6212  0.4677  1.0350
14401TIP3   OH264693   5.120   1.338  13.140  0.0329  1.0016 -0.0286
14401TIP3    H164694   5.170   1.408  13.099  1.3301  0.0674 -0.0776
14401TIP3    H264695   5.071   1.382  13.210  1.8598  1.7614  0.8274
14402TIP3   OH264696   1.657   1.817   4.557  0.3754  0.3981 -0.1307
14402TIP3    H164697   1.642   1.883   4.624 -1.6867 -0.6716  0.5513
14402TIP3    H264698   1.708   1.749   4.602 -1.0847 -0.3615  0.4527
14403TIP3   OH264699   2.157   1.845   3.718 -0.0102  0.1888 -0.7952
14403TIP3    H164700   2.119   1.931   3.734 -1.5666 -0.9959  3.3294
14403TIP3    H264701   2.082   1.788   3.700  0.4646 -0.9996  0.7417
14404TIP3   OH264702   1.863   6.101  15.924 -0.5830 -0.9589 -0.0529
14404TIP3    H164703   1.851   6.074  15.833  0.7510 -2.1409  0.0825
14404TIP3    H264704   1.880   6.019  15.971  1.7555 -0.1009  0.7220
14405TIP3   OH264705   3.349   2.130   3.489 -0.2607  0.2859  0.1112
14405TIP3    H164706   3.374   2.207   3.437  0.7089  1.5730  2.2875
14405TIP3    H264707   3.340   2.164   3.578 -1.6860 -1.8147  0.8399
14406TIP3   OH264708   6.424   2.011   5.189  0.1170  0.2238 -0.1894
14406TIP3    H164709   6.515   1.989   5.211 -0.0377 -0.2870 -0.0438
14406TIP3    H264710   6.419   2.106   5.203  0.3586  0.1073  0.8203
14407TIP3   OH264711   6.636   4.180   2.631 -0.5613  0.4337 -0.4311
14407TIP3    H164712   6.679   4.159   2.713  1.5803 -0.8202 -1.7652
14407TIP3    H264713   6.673   4.265   2.605 -0.0415  0.1045 -0.8042
14408TIP3   OH264714   5.797   0.630  11.500 -0.4149 -0.3716 -0.0105
14408TIP3    H164715   5.886   0.630  11.536 -0.3231 -2.3800 -0.1099
14408TIP3    H264716   5.809   0.608  11.408 -0.8900  1.6737 -0.6201
14409TIP3   OH264717   3.268   6.347  14.145 -0.1417  0.0303  0.3992
14409TIP3    H164718   3.250   6.408  14.217 -2.4732  0.4530 -0.4655
14409TIP3    H264719   3.199   6.364  14.081  0.6235 -1.8111 -1.0081
14410TIP3   OH264720   5.441   6.661   5.425  0.1244 -0.2409 -0.1406
14410TIP3    H164721   5.396   6.672   5.509 -0.4968 -0.8469 -0.3905
14410TIP3    H264722   5.436   6.568   5.406 -0.6397  0.0210 -1.3477
14411TIP3   OH264723   1.988   4.987  14.790 -0.2720  0.3812  0.1260
14411TIP3    H164724   2.008   4.932  14.866 -1.5234 -1.6402 -0.8941
14411TIP3    H264725   2.048   4.956  14.722  0.6083  1.9419  0.1650
14412TIP3   OH264726   6.051   2.227  13.137  0.4113 -0.0778 -0.1595
14412TIP3    H164727   6.039   2.133  13.144 -1.9791  0.0747 -0.9737
14412TIP3    H264728   5.976   2.265  13.184  0.6356  1.3696 -0.8904
14413TIP3   OH264729   2.327   6.725   2.994  0.7786  0.2035  0.0057
14413TIP3    H164730   2.413   6.736   2.951  0.8728  1.3475  0.4622
14413TIP3    H264731   2.264   6.735   2.923  0.9993  0.2127 -0.1915
14414TIP3   OH264732   4.249   1.948  12.712  0.8648 -0.2729  0.1344
14414TIP3    H164733   4.200   1.900  12.645 -0.2839  2.4938 -1.1947
14414TIP3    H264734   4.199   1.936  12.792 -1.0092  0.8655 -0.7806
14415TIP3   OH264735   3.958   2.690  12.586 -0.3388  0.1635 -0.0433
14415TIP3    H164736   4.045   2.651  12.600 -0.1068  1.0548  1.1330
14415TIP3    H264737   3.901   2.642  12.646 -0.3547  0.5821  0.2791
14416TIP3   OH264738   4.849   1.034  13.397  0.4391  1.2958 -0.2213
14416TIP3    H164739   4.928   1.053  13.346 -0.9862  0.1525 -3.0687
14416TIP3    H264740   4.859   0.943  13.424 -0.8445  0.3153 -2.7123
14417TIP3   OH264741   2.966   2.995   4.591  0.3373  0.5253  0.1487
14417TIP3    H164742   2.908   2.938   4.540  0.2201 -0.4002  1.2658
14417TIP3    H264743   3.000   2.938   4.660  1.5152  1.4076  0.3274
14418TIP3   OH264744   5.069   0.114   3.347 -0.1643  0.0842  0.4063
14418TIP3    H164745   5.158   0.088   3.373 -0.0350  0.5581  0.4422
14418TIP3    H264746   5.012   0.051   3.391  0.0304  1.0087  2.0721
14419TIP3   OH264747   0.332   3.347   5.092 -0.3955 -0.0550  0.4706
14419TIP3    H164748   0.352   3.421   5.149 -0.0064 -1.7630  2.6794
14419TIP3    H264749   0.341   3.270   5.148  0.3750 -1.9032 -2.0076
14420TIP3   OH264750   3.144   6.056  13.751  0.7350 -0.4774  0.1500
14420TIP3    H164751   3.088   5.978  13.753 -1.7544  1.1388  3.2758
14420TIP3    H264752   3.221   6.031  13.803  1.7352 -1.8464 -1.8525
14421TIP3   OH264753   5.383   5.672   2.715 -0.1965 -0.0763  0.2088
14421TIP3    H164754   5.308   5.651   2.660  1.2572 -1.3060 -1.4318
14421TIP3    H264755   5.437   5.593   2.712  1.6824  1.1419  0.4485
14422TIP3   OH264756   0.277   2.545   0.552 -0.1591 -0.4508 -0.5329
14422TIP3    H164757   0.218   2.587   0.614 -1.6271 -1.2235 -1.3738
14422TIP3    H264758   0.225   2.530   0.474  1.0542 -1.4651 -1.1906
14423TIP3   OH264759   0.157   2.100  13.557 -0.0837  0.2370 -0.0018
14423TIP3    H164760   0.131   2.190  13.574 -1.7296 -0.1433 -0.3148
14423TIP3    H264761   0.081   2.048  13.584  0.5491 -0.9962 -0.5192
14424TIP3   OH264762   1.471   5.659  15.453 -0.3545 -0.3748 -0.1622
14424TIP3    H164763   1.383   5.621  15.448 -0.3976 -0.1859 -1.0408
14424TIP3    H264764   1.504   5.653  15.363 -0.0439  0.9052 -0.1396
14425TIP3   OH264765   4.438   0.447  12.470  0.0121 -0.1837 -0.2306
14425TIP3    H164766   4.497   0.492  12.410 -2.1500  0.0921 -2.2989
14425TIP3    H264767   4.476   0.360  12.482  1.6170  0.4879 -0.1943
14426TIP3   OH264768   0.785   3.919  13.992  0.3042  0.4037  0.0693
14426TIP3    H164769   0.736   3.947  14.069  1.6164  0.7049  0.8260
14426TIP3    H264770   0.773   3.991  13.930 -1.8652 -0.4268 -0.5772
14427TIP3   OH264771   4.471   1.463   1.697  0.1006 -0.2686  0.0253
14427TIP3    H164772   4.444   1.554   1.684  0.6756 -0.0721  0.1460
14427TIP3    H264773   4.505   1.461   1.787  0.2443 -0.5615 -0.0345
14428TIP3   OH264774   2.828   2.383   1.633  0.1019  0.0924 -0.4524
14428TIP3    H164775   2.820   2.306   1.577 -0.4991 -0.5279  0.4660
14428TIP3    H264776   2.865   2.349   1.715 -2.5479  0.2855  0.9087
14429TIP3   OH264777   4.069   1.809  12.247  0.1195  0.0169 -0.4860
14429TIP3    H164778   4.009   1.883  12.240 -0.6564 -0.6599 -1.1869
14429TIP3    H264779   4.012   1.732  12.247  1.0040 -0.6735 -1.7814
14430TIP3   OH264780   0.638   1.273   6.797  0.1348 -0.1351  0.0886
14430TIP3    H164781   0.723   1.269   6.840  0.1465 -0.4844  0.0354
14430TIP3    H264782   0.615   1.182   6.782 -0.3178 -0.0463  0.2347
14431TIP3   OH264783   1.306   4.178   0.016 -0.0674 -0.1618 -0.2387
14431TIP3    H164784   1.315   4.083   0.008  1.0040 -0.0088 -1.0625
14431TIP3    H264785   1.231   4.200  -0.038  1.1860 -0.2866 -2.1342
14432TIP3   OH264786   4.395   1.181   2.739 -0.5576  0.6313  0.0246
14432TIP3    H164787   4.415   1.119   2.670 -0.5578 -1.3111  1.6852
14432TIP3    H264788   4.305   1.208   2.722 -0.3191  0.7517 -1.1206
14433TIP3   OH264789   5.150   0.854   2.081  0.6451 -0.1349  0.1841
14433TIP3    H164790   5.178   0.902   2.159  0.3485 -0.7170  0.6571
14433TIP3    H264791   5.084   0.793   2.113  0.1899 -0.0674 -0.6018
14434TIP3   OH264792   3.643   2.358  16.356  0.5867 -0.1309  0.8203
14434TIP3    H164793   3.597   2.375  16.274  0.5836 -0.6087  0.7236
14434TIP3    H264794   3.730   2.395  16.343  1.2758 -2.0083 -0.1551
14435TIP3   OH264795   6.374   5.471  14.995 -0.4908  0.1892 -0.6040
14435TIP3    H164796   6.348   5.381  14.974 -1.4368  0.7153 -1.7486
14435TIP3    H264797   6.334   5.525  14.927  1.1243  1.3618 -0.6716
14436TIP3   OH264798   0.751   2.305   5.947 -0.3525  0.0502  0.1225
14436TIP3    H164799   0.783   2.240   6.009  0.3067 -0.1393 -0.4130
14436TIP3    H264800   0.714   2.255   5.875 -5.1070  0.0841  2.1147
14437TIP3   OH264801   3.136   5.482   6.419 -0.1803  0.3092  0.3787
14437TIP3    H164802   3.108   5.495   6.328 -0.7002  0.3911  0.5468
14437TIP3    H264803   3.124   5.568   6.460  3.0377  1.1892 -0.2349
14438TIP3   OH264804   2.917   0.706   4.175 -0.1568  0.2335  0.8077
14438TIP3    H164805   2.897   0.756   4.095 -0.8724  0.7342  1.2823
14438TIP3    H264806   2.918   0.615   4.147  0.5180  0.4607  0.0466
14439TIP3   OH264807   1.803   4.513   5.337  0.7132 -0.8628  0.0102
14439TIP3    H164808   1.832   4.436   5.384  0.6877 -1.9506 -1.6673
14439TIP3    H264809   1.772   4.573   5.405  1.6813 -1.9047  1.4134
14440TIP3   OH264810   4.724   4.865   1.616  0.2549 -0.2427  0.6019
14440TIP3    H164811   4.784   4.912   1.673  0.5385 -0.7728  0.7447
14440TIP3    H264812   4.770   4.860   1.532 -0.9746  2.3060 -0.3157
14441TIP3   OH264813   2.364   4.421   0.422  0.2122  0.1020  0.0471
14441TIP3    H164814   2.293   4.370   0.459 -0.1818  0.2352 -0.5086
14441TIP3    H264815   2.338   4.512   0.434  0.0557  0.1479 -0.5839
14442TIP3   OH264816   1.936   6.722   2.514 -0.0912  0.0804  0.1444
14442TIP3    H164817   1.920   6.645   2.567 -1.8230  1.9468  2.5708
14442TIP3    H264818   1.928   6.796   2.575  1.1442  2.2296 -2.0805
14443TIP3   OH264819   1.023   1.571   2.640 -0.1039  0.6184  0.1343
14443TIP3    H164820   1.086   1.595   2.572 -0.4500  0.7562 -0.1416
14443TIP3    H264821   1.074   1.523   2.704  0.2704  0.6716 -0.1216
14444TIP3   OH264822   2.773   6.216   1.353 -0.0180  0.5658 -0.0530
14444TIP3    H164823   2.756   6.216   1.447 -1.7849 -0.8481 -0.3299
14444TIP3    H264824   2.729   6.294   1.320 -2.8601 -0.9331 -0.1697
14445TIP3   OH264825   6.703   5.383  11.227 -0.3028 -0.7898 -0.0289
14445TIP3    H164826   6.662   5.332  11.157 -0.0905 -0.9913 -0.0055
14445TIP3    H264827   6.776   5.428  11.184 -1.1930  0.4452 -0.3275
14446TIP3   OH264828   6.004   0.911  14.374  0.3907  0.4387 -0.5575
14446TIP3    H164829   5.910   0.925  14.385  0.8964  2.7902  1.7993
14446TIP3    H264830   6.027   0.963  14.297 -0.0706  0.7837 -0.4662
14447TIP3   OH264831   1.068   6.271  15.013  0.6339 -0.3336 -0.1138
14447TIP3    H164832   1.094   6.329  14.941  1.5054 -1.2076 -0.5298
14447TIP3    H264833   1.030   6.195  14.969  0.4725 -0.5434  0.3813
14448TIP3   OH264834   5.898   2.028   1.803 -0.0878 -0.3672 -0.2417
14448TIP3    H164835   5.921   2.075   1.723  2.1821 -1.6748 -0.4560
14448TIP3    H264836   5.902   2.094   1.872 -0.9053  0.5382 -1.0354
14449TIP3   OH264837   0.873   2.027   6.501  0.4959 -0.4685  0.1725
14449TIP3    H164838   0.906   2.109   6.465 -0.1647  0.2506  1.1392
14449TIP3    H264839   0.842   2.050   6.589 -0.3855 -1.5872  0.1880
14450TIP3   OH264840   3.241   1.818   5.103  0.0022  0.4075 -0.0888
14450TIP3    H164841   3.279   1.801   5.017 -2.8049  0.2758 -1.3987
14450TIP3    H264842   3.251   1.912   5.115 -0.0027  0.5027 -0.7755
14451TIP3   OH264843   2.055   0.330  11.510 -0.2275  0.2158 -0.4074
14451TIP3    H164844   2.036   0.249  11.557  2.7900  1.0814  2.7852
14451TIP3    H264845   1.972   0.377  11.508 -0.7455 -0.0421  4.1584
14452TIP3   OH264846   5.511   3.789  15.948  0.1498  0.2933  0.2560
14452TIP3    H164847   5.450   3.861  15.935  1.2507  1.2750  0.3508
14452TIP3    H264848   5.574   3.822  16.012  0.1224 -1.1144  1.0582
14453TIP3   OH264849   3.823   2.249  12.294 -0.7305 -0.3912 -0.4595
14453TIP3    H164850   3.796   2.292  12.376  1.5301 -0.3364  0.3246
14453TIP3    H264851   3.854   2.320  12.238 -0.9228 -0.5845 -0.8172
14454TIP3   OH264852   0.686   0.654  11.537 -0.0255 -0.3620  0.2400
14454TIP3    H164853   0.604   0.704  11.541  0.3906  0.2828  1.1967
14454TIP3    H264854   0.689   0.619  11.449 -1.4783 -0.6277  0.2715
14455TIP3   OH264855   1.339   4.283   3.106  0.2526 -0.2497 -0.0692
14455TIP3    H164856   1.272   4.309   3.042 -0.1111 -1.1159 -0.0427
14455TIP3    H264857   1.343   4.188   3.100 -0.2642 -0.4152  1.6857
14456TIP3   OH264858   0.510   0.008   6.863 -0.0802 -0.0802  0.5789
14456TIP3    H164859   0.505   0.081   6.800  2.2302 -1.3104 -1.2160
14456TIP3    H264860   0.446   0.030   6.930 -1.6075  2.1136 -1.4055
14457TIP3   OH264861   2.807   0.916   2.769 -0.0722  0.0499  0.3023
14457TIP3    H164862   2.753   0.839   2.788 -0.8578  0.6195  0.4317
14457TIP3    H264863   2.753   0.991   2.796  0.9576  0.6179  0.8437
14458TIP3   OH264864   1.518   0.349   4.703 -0.5246 -0.0207  0.1034
14458TIP3    H164865   1.569   0.275   4.733  1.3807  1.2833  0.2660
14458TIP3    H264866   1.487   0.324   4.615 -2.0425 -1.9230  1.0989
14459TIP3   OH264867   6.588   2.551   1.650 -0.3170 -0.3389 -0.7302
14459TIP3    H164868   6.592   2.647   1.648  1.5324 -0.2721  1.8099
14459TIP3    H264869   6.632   2.527   1.731 -1.1420 -3.3574 -1.0739
14460TIP3   OH264870   1.663   0.300  12.283 -0.2380  0.2852 -0.4809
14460TIP3    H164871   1.593   0.249  12.241 -0.0025 -0.7852  0.3900
14460TIP3    H264872   1.728   0.234  12.309 -0.6912  0.7770  2.2058
14461TIP3   OH264873   0.618   2.464   2.904 -0.2147  0.0360  0.5603
14461TIP3    H164874   0.555   2.529   2.871  0.2145 -0.2386 -0.8679
14461TIP3    H264875   0.611   2.471   2.999 -0.8440  1.5295  0.4404
14462TIP3   OH264876   1.067   0.051   1.814  0.4921 -0.3104 -0.5172
14462TIP3    H164877   1.093   0.032   1.904 -1.8427 -1.4807 -0.0126
14462TIP3    H264878   1.074   0.146   1.806  0.6549 -0.1883  0.9201
14463TIP3   OH264879   4.072   1.326   2.953  0.9023 -0.2927 -0.3582
14463TIP3    H164880   3.981   1.339   2.926  1.0060 -1.3749 -1.2670
14463TIP3    H264881   4.091   1.402   3.009 -1.0121 -0.7917  1.0671
14464TIP3   OH264882   1.923   2.177   3.330 -0.0456  0.1210 -0.6386
14464TIP3    H164883   1.877   2.137   3.404  1.3355 -0.4168 -0.0329
14464TIP3    H264884   1.942   2.103   3.272  1.1404  0.1142 -0.2690
14465TIP3   OH264885   6.686   3.732  16.085 -0.0588  0.2370  0.0027
14465TIP3    H164886   6.615   3.669  16.098  0.4665 -0.4404 -0.3340
14465TIP3    H264887   6.698   3.735  15.990 -0.2743  1.0812 -0.0103
14466TIP3   OH264888   0.304   6.613  10.521 -0.4746  0.3040 -0.5845
14466TIP3    H164889   0.276   6.527  10.550  1.0942 -0.4615 -1.2134
14466TIP3    H264890   0.236   6.673  10.552 -2.0778 -1.2553 -0.9414
14467TIP3   OH264891   4.495   4.062   6.284 -0.3138 -0.2205  0.0247
14467TIP3    H164892   4.414   4.095   6.246 -0.3050 -2.0184 -1.7165
14467TIP3    H264893   4.492   4.090   6.376 -2.2999  0.7767 -0.3001
14468TIP3   OH264894   1.755   3.195   0.839 -0.6696  0.4761  0.0867
14468TIP3    H164895   1.696   3.156   0.903  0.2171  1.3030  1.4758
14468TIP3    H264896   1.809   3.122   0.808 -0.8649  0.1218  0.5719
14469TIP3   OH264897   3.837   5.567  16.795  0.1498 -0.6060 -0.0618
14469TIP3    H164898   3.815   5.498  16.732  1.4201 -0.2657 -0.9183
14469TIP3    H264899   3.776   5.638  16.776  0.1463 -0.7306 -0.5288
14470TIP3   OH264900   6.357   2.732  14.852 -0.1993 -0.1963  0.1114
14470TIP3    H164901   6.329   2.819  14.881 -0.1397 -0.4789  1.0273
14470TIP3    H264902   6.362   2.680  14.932  2.3482 -0.3344 -0.0770
14471TIP3   OH264903   5.089   6.395  17.099 -0.1458  0.0781  0.6466
14471TIP3    H164904   5.044   6.319  17.061  1.1882 -0.1079 -0.6499
14471TIP3    H264905   5.131   6.361  17.178 -0.0702 -0.3873  0.4090
14472TIP3   OH264906   6.547   1.659   4.833  0.1142 -0.3607 -0.0758
14472TIP3    H164907   6.585   1.592   4.775 -0.3191 -0.0123 -0.7722
14472TIP3    H264908   6.619   1.685   4.890  0.2156 -1.6350  0.4067
14473TIP3   OH264909   2.173   2.376  11.408 -0.2851  0.1852  0.7088
14473TIP3    H164910   2.144   2.346  11.494  1.7467 -1.5568  0.8534
14473TIP3    H264911   2.269   2.381  11.415  0.3074 -3.1478 -2.3103
14474TIP3   OH264912   1.420   1.210  15.491  0.1042 -0.7118 -0.2511
14474TIP3    H164913   1.497   1.161  15.460  0.1798 -0.0266 -1.2090
14474TIP3    H264914   1.456   1.280  15.544 -0.0102 -1.7221  1.2109
14475TIP3   OH264915   5.994   3.037  14.139 -0.3094  0.1227 -0.5081
14475TIP3    H164916   5.998   3.133  14.135 -0.3165  0.1529  0.0825
14475TIP3    H264917   6.069   3.008  14.087  0.5454  0.4845  0.4829
14476TIP3   OH264918   0.581   0.778   3.580  0.0285 -0.4587 -0.0158
14476TIP3    H164919   0.602   0.801   3.671 -0.0757 -0.6949  0.0691
14476TIP3    H264920   0.633   0.700   3.562  1.4662  0.6166 -0.7631
14477TIP3   OH264921   4.694   4.725  11.456 -0.1590  0.4271  0.1106
14477TIP3    H164922   4.700   4.629  11.457 -0.4857  0.3971  1.0490
14477TIP3    H264923   4.780   4.754  11.428  0.0206 -0.1455  0.0424
14478TIP3   OH264924   0.886   4.879   4.399 -0.4637  0.0548 -0.7308
14478TIP3    H164925   0.839   4.828   4.464 -0.6381  2.7303  1.3719
14478TIP3    H264926   0.962   4.825   4.377  0.1044 -0.5920  2.4131
14479TIP3   OH264927   4.852   4.719   4.155  0.3697  0.0980  0.2296
14479TIP3    H164928   4.929   4.759   4.116  1.3685 -1.0136  0.9738
14479TIP3    H264929   4.886   4.671   4.231 -0.8075 -1.6802 -0.3059
14480TIP3   OH264930   2.606   3.934  15.012  0.3800  0.1408  0.4464
14480TIP3    H164931   2.674   3.870  14.992  0.0231 -0.3830  0.8723
14480TIP3    H264932   2.638   3.982  15.088  1.1065  1.1778 -0.4857
14481TIP3   OH264933   2.393   4.425   4.753  0.3051 -0.7004 -0.0527
14481TIP3    H164934   2.472   4.381   4.724  1.6094  1.1872  0.4326
14481TIP3    H264935   2.333   4.419   4.679  1.4508 -0.9071 -0.9978
14482TIP3   OH264936   1.144   2.409  11.208 -0.1618  0.6155  0.6594
14482TIP3    H164937   1.234   2.420  11.177 -0.5582  1.3440 -0.3053
14482TIP3    H264938   1.108   2.498  11.209 -1.4576  0.1791 -0.9161
14483TIP3   OH264939   6.710   2.489  10.696  0.0693  0.2746 -0.1378
14483TIP3    H164940   6.748   2.441  10.621  1.7534  1.5583 -0.1599
14483TIP3    H264941   6.645   2.547  10.657  0.1878  0.1818 -0.4787
14484TIP3   OH264942   0.102   4.002   3.792  0.2112  0.0088  0.5280
14484TIP3    H164943   0.067   4.048   3.867  1.3535 -1.0529  1.7649
14484TIP3    H264944   0.026   3.964   3.748 -0.3360 -1.4192  2.5639
14485TIP3   OH264945   3.434   1.869  15.265 -0.2777  0.4735  0.0899
14485TIP3    H164946   3.500   1.919  15.218 -0.2868  1.1636  0.8035
14485TIP3    H264947   3.394   1.931  15.326 -1.0298 -0.1307  0.2389
14486TIP3   OH264948   1.345   2.964  16.985  0.0818  0.4637  0.4400
14486TIP3    H164949   1.346   2.985  16.892  0.5786  0.3987  0.4261
14486TIP3    H264950   1.357   3.048  17.029 -2.7376  0.9073  0.5499
14487TIP3   OH264951   1.079   0.439   3.545 -0.1557  0.2017 -0.2049
14487TIP3    H164952   1.007   0.390   3.504  0.9232 -2.0840  0.4854
14487TIP3    H264953   1.035   0.506   3.598 -1.7243 -0.4624 -0.5988
14488TIP3   OH264954   0.731   4.469   2.957  0.4925  0.3116  0.1936
14488TIP3    H164955   0.750   4.543   3.015 -0.1710 -0.5928  1.6250
14488TIP3    H264956   0.721   4.395   3.016 -0.5153 -0.5992 -1.0775
14489TIP3   OH264957   5.921   4.239  12.247  0.3863 -0.1889  0.1032
14489TIP3    H164958   5.985   4.309  12.257  0.1286  0.0500  0.0866
14489TIP3    H264959   5.970   4.159  12.265  0.9225 -0.0890 -0.8593
14490TIP3   OH264960   1.722   1.892  14.464 -0.0499  0.2925  0.7157
14490TIP3    H164961   1.658   1.845  14.517 -0.6613  0.6443  0.3055
14490TIP3    H264962   1.672   1.962  14.423  0.0076 -0.9466 -1.6341
14491TIP3   OH264963   6.591   6.096  11.014  0.0452  0.2778 -0.7822
14491TIP3    H164964   6.516   6.153  11.029  0.6799  0.6307  1.2851
14491TIP3    H264965   6.667   6.154  11.014  0.4317 -0.1934 -1.9103
14492TIP3   OH264966   2.460   3.712  16.763  0.0469 -0.1748 -0.6278
14492TIP3    H164967   2.374   3.670  16.762 -0.7522  1.3821  0.0095
14492TIP3    H264968   2.445   3.797  16.723  1.1266  0.4234  0.2112
14493TIP3   OH264969   0.418   2.262   0.476 -0.8946  0.5207 -0.1783
14493TIP3    H164970   0.461   2.341   0.445 -0.1205 -0.3886 -1.4957
14493TIP3    H264971   0.348   2.294   0.534 -1.5333  2.2260 -1.7960
14494TIP3   OH264972   2.640   4.201   5.448 -0.1834 -0.4334  0.2085
14494TIP3    H164973   2.704   4.135   5.475  0.3839 -0.0695 -0.2392
14494TIP3    H264974   2.692   4.278   5.425 -0.9057  0.7838  2.3302
14495TIP3   OH264975   2.318   6.290   0.261  0.5910 -0.2044 -0.2812
14495TIP3    H164976   2.380   6.231   0.219  0.2583  0.3390 -1.5824
14495TIP3    H264977   2.255   6.232   0.304 -0.1010 -0.8657 -2.0704
14496TIP3   OH264978   2.174   2.704   4.545  0.9498 -0.2210 -0.0936
14496TIP3    H164979   2.189   2.644   4.472  0.1932 -1.9348  1.0912
14496TIP3    H264980   2.217   2.662   4.619  1.6404  1.4450  0.4938
14497TIP3   OH264981   3.566   6.552  12.470 -0.2390  0.1961  0.6380
14497TIP3    H164982   3.570   6.596  12.555 -4.3035 -0.3948  1.3091
14497TIP3    H264983   3.524   6.616  12.412 -0.5994 -0.6239 -0.0176
14498TIP3   OH264984   1.441   2.575  12.006 -0.4308  0.0854  0.4442
14498TIP3    H164985   1.457   2.666  12.033  0.9971 -0.3413  1.1212
14498TIP3    H264986   1.349   2.559  12.028 -0.1122  0.6812  2.4247
14499TIP3   OH264987   1.611   6.308  16.582 -0.2865 -0.6499  0.1780
14499TIP3    H164988   1.654   6.247  16.521  1.1662  0.6182 -0.1166
14499TIP3    H264989   1.519   6.308  16.555  0.1926 -0.6790 -1.5535
14500TIP3   OH264990   5.806   6.000   1.629  0.1081  0.1302 -0.7045
14500TIP3    H164991   5.778   6.052   1.553  0.3144 -0.6334 -1.3208
14500TIP3    H264992   5.843   5.920   1.590  2.1873  0.6357  0.0835
14501TIP3   OH264993   1.369   3.050   1.328  0.2477  0.7104 -0.2793
14501TIP3    H164994   1.276   3.059   1.350  0.6327 -0.9368  2.6087
14501TIP3    H264995   1.371   2.984   1.259 -0.7170 -0.1584  0.4800
14502TIP3   OH264996   2.367   2.940  12.622  0.6168 -0.4565 -0.1708
14502TIP3    H164997   2.420   3.012  12.586  1.3571 -1.0779 -0.3519
14502TIP3    H264998   2.431   2.879  12.657 -0.0510 -0.5474  0.9159
14503TIP3   OH264999   6.343   4.271  12.868  0.2761  0.0663  0.0832
14503TIP3    H165000   6.340   4.177  12.884 -0.2039  0.0130 -0.2830
14503TIP3    H265001   6.424   4.300  12.909  0.4593 -0.5180  0.1429
14504TIP3   OH265002   2.042   6.595   4.986  0.0665 -0.3678  0.0717
14504TIP3    H165003   1.991   6.673   4.965  1.5641  0.5506 -0.3876
14504TIP3    H265004   2.130   6.629   5.004  0.7946 -1.9709 -0.2872
14505TIP3   OH265005   5.655   4.510  11.786 -0.3242  0.0234 -0.5468
14505TIP3    H165006   5.737   4.559  11.782  0.0872 -0.5471  0.5909
14505TIP3    H265007   5.680   4.422  11.812 -1.4059  0.1720  1.1381
14506TIP3   OH265008   1.738   5.028  16.304  0.8523  0.3917  0.5620
14506TIP3    H165009   1.732   5.084  16.381 -1.6885  1.3607 -0.2455
14506TIP3    H265010   1.666   4.965  16.313  0.6841  0.3340 -0.8533
14507TIP3   OH265011   4.449   1.442  11.691  0.1133 -0.3666  0.4177
14507TIP3    H165012   4.373   1.466  11.745  0.4583 -1.2457  1.3274
14507TIP3    H265013   4.511   1.404  11.753  0.7666 -0.8789 -0.5261
14508TIP3   OH265014   3.499   0.685   5.208 -0.3902 -0.1023  0.3374
14508TIP3    H165015   3.423   0.668   5.264 -0.7693  0.1655 -0.0870
14508TIP3    H265016   3.558   0.737   5.263 -2.0344  2.7251 -0.3798
14509TIP3   OH265017   6.337   1.983   1.055 -0.6633  0.8881 -0.1672
14509TIP3    H165018   6.305   1.945   1.137 -2.0537  2.2202 -0.0489
14509TIP3    H265019   6.410   1.926   1.030 -1.3456 -0.6131  1.0438
14510TIP3   OH265020   1.326   4.794   4.529 -0.2911  0.5931  0.3611
14510TIP3    H165021   1.238   4.772   4.498  0.0808  0.4456 -0.6343
14510TIP3    H265022   1.317   4.881   4.567 -0.7436  0.8465 -0.3019
14511TIP3   OH265023   2.472   5.944   0.985 -0.1230 -0.9752 -0.4195
14511TIP3    H165024   2.532   5.906   1.050  1.4178  0.6037 -0.8542
14511TIP3    H265025   2.485   6.038   0.992 -1.5813 -0.6591 -1.5053
14512TIP3   OH265026   4.707   2.100  15.658 -0.0189  0.1914 -0.6786
14512TIP3    H165027   4.768   2.091  15.732 -0.6201  0.6923 -0.1145
14512TIP3    H265028   4.622   2.075  15.693 -0.4374  1.1156 -1.0029
14513TIP3   OH265029   0.276   3.871   2.919  0.0197  0.0626 -0.2859
14513TIP3    H165030   0.295   3.883   3.012 -1.0855 -0.6688  0.0463
14513TIP3    H265031   0.242   3.956   2.891  2.7149  1.1073 -0.6695
14514TIP3   OH265032   2.764   0.346   2.848  0.5751  0.5053  0.3461
14514TIP3    H165033   2.731   0.435   2.840  0.3123  0.3084 -1.0102
14514TIP3    H265034   2.698   0.292   2.805  1.7401 -0.1035 -0.7576
14515TIP3   OH265035   5.628   3.460   2.541  0.1695  0.0868  0.5170
14515TIP3    H165036   5.574   3.538   2.553 -1.4397 -0.8687 -0.2700
14515TIP3    H265037   5.693   3.486   2.476  0.0452  0.9619  0.7345
14516TIP3   OH265038   0.684   3.881   4.863 -0.0948 -0.1186  0.1622
14516TIP3    H165039   0.681   3.786   4.854  1.9703 -0.1827 -0.3659
14516TIP3    H265040   0.697   3.914   4.774  3.5642  0.3010  0.6782
14517TIP3   OH265041   3.459   2.470   3.812 -0.1696  0.5002 -0.2405
14517TIP3    H165042   3.408   2.532   3.863 -0.0473  0.5694 -0.2005
14517TIP3    H265043   3.452   2.501   3.721 -2.8084 -1.2635 -0.7348
14518TIP3   OH265044   3.656   6.654   1.583 -0.2657  0.0322  0.0308
14518TIP3    H165045   3.748   6.675   1.595  0.0761  0.1750 -2.2631
14518TIP3    H265046   3.656   6.578   1.525 -1.5789 -0.2045  0.3074
14519TIP3   OH265047   4.629   3.781  15.701  0.2255  0.7383  0.5232
14519TIP3    H165048   4.537   3.803  15.713 -0.0165 -0.0017  0.0937
14519TIP3    H265049   4.640   3.697  15.746  0.4478  0.3254 -0.2771
14520TIP3   OH265050   5.655   6.097  15.752  0.2564  0.7866 -0.4815
14520TIP3    H165051   5.711   6.143  15.689  0.4898 -0.5682 -1.2923
14520TIP3    H265052   5.610   6.030  15.700 -2.1975  1.8374  0.1136
14521TIP3   OH265053   5.423   0.581  17.153 -0.3770  0.2433 -0.5651
14521TIP3    H165054   5.431   0.674  17.133 -0.3069  0.0732 -1.3574
14521TIP3    H265055   5.431   0.577  17.248 -0.8225  1.0878 -0.4794
14522TIP3   OH265056   4.670   2.944  10.822 -0.1319 -0.6831  0.0628
14522TIP3    H165057   4.699   2.887  10.751  0.4193 -0.7734  0.3534
14522TIP3    H265058   4.735   3.014  10.826 -0.4497 -0.3849  0.1322
14523TIP3   OH265059   0.229   2.767  14.111 -0.1532  0.1901  0.7486
14523TIP3    H165060   0.160   2.764  14.044 -0.6508  0.1831  1.2548
14523TIP3    H265061   0.213   2.690  14.165 -0.2863  0.6722  1.3997
14524TIP3   OH265062   2.008   3.016  14.055 -0.3634  0.0467  0.1553
14524TIP3    H165063   2.078   3.065  14.098 -0.5568 -0.9837  1.7252
14524TIP3    H265064   1.927   3.057  14.085 -0.4796  0.0852 -0.2035
14525TIP3   OH265065   3.936   1.927  16.946 -0.9308  0.0388  0.2404
14525TIP3    H165066   3.949   1.897  16.856 -1.4024 -0.0204  0.1913
14525TIP3    H265067   3.841   1.935  16.956 -0.9207 -0.5698  0.9282
14526TIP3   OH265068   4.381   5.968   0.714  0.2699  0.3278  0.4622
14526TIP3    H165069   4.349   5.914   0.786 -0.0604 -0.2789 -0.1282
14526TIP3    H265070   4.457   6.013   0.750  1.0191 -1.1069  0.7592
14527TIP3   OH265071   1.283   4.731   3.673 -0.2899 -0.7367 -0.2003
14527TIP3    H165072   1.332   4.716   3.754  0.8467  0.9220 -0.5224
14527TIP3    H265073   1.302   4.655   3.619 -0.9601 -1.8030  1.0224
14528TIP3   OH265074   6.754   5.277   3.206  0.0408 -0.0013 -0.8777
14528TIP3    H165075   6.689   5.248   3.271  0.2507 -0.3912 -0.8370
14528TIP3    H265076   6.704   5.330   3.144 -0.1136  0.5998 -0.2489
14529TIP3   OH265077   6.547   0.797   2.295  0.3964  0.8479  0.2409
14529TIP3    H165078   6.609   0.851   2.343  0.3640  0.6961  0.4548
14529TIP3    H265079   6.562   0.819   2.203 -2.3132  4.1747  0.4301
14530TIP3   OH265080   1.898   4.932  11.413  0.5233 -0.8727 -0.0176
14530TIP3    H165081   1.853   4.932  11.329 -0.8549 -0.8136  0.6944
14530TIP3    H265082   1.991   4.941  11.391  0.0432  1.5404 -1.4504
14531TIP3   OH265083   3.360   3.524   2.114  0.5199  0.1276  0.9046
14531TIP3    H165084   3.398   3.592   2.058  0.0984 -0.1332  0.2914
14531TIP3    H265085   3.382   3.551   2.203  0.3754  1.0474  0.6689
14532TIP3   OH265086   4.929   1.985   2.899 -0.0857 -0.6973 -0.0950
14532TIP3    H165087   4.865   1.919   2.871 -1.9171  1.2633 -0.8439
14532TIP3    H265088   4.892   2.020   2.981  0.9593 -0.7018  0.3921
14533TIP3   OH265089   1.194   4.714   5.858 -0.3821 -0.5695 -0.0042
14533TIP3    H165090   1.258   4.695   5.789  0.0041 -2.1844  0.7414
14533TIP3    H265091   1.111   4.723   5.812  0.1057 -0.1996 -0.8229
14534TIP3   OH265092   3.956   5.034  10.628  0.2968 -0.5326  0.5120
14534TIP3    H165093   3.873   5.083  10.624  0.4734 -0.1953  0.8916
14534TIP3    H265094   3.999   5.067  10.707 -0.2532 -2.3801  1.6395
14535TIP3   OH265095   5.633   2.995   5.905 -0.7050 -0.1546 -0.8228
14535TIP3    H165096   5.721   2.961   5.923 -0.6885 -0.1247 -0.8476
14535TIP3    H265097   5.627   3.075   5.956 -1.4064 -1.1327  0.6898
14536TIP3   OH265098   4.845   6.106  16.170 -0.1081  0.1189 -0.0191
14536TIP3    H165099   4.762   6.109  16.122  0.5578 -0.7055 -1.2789
14536TIP3    H265100   4.873   6.015  16.163  1.9070  0.7656 -1.4555
14537TIP3   OH265101   6.359   6.466   1.254 -0.7440  0.0371 -0.2108
14537TIP3    H165102   6.303   6.389   1.256 -0.2629 -0.3402 -0.9693
14537TIP3    H265103   6.303   6.535   1.218 -0.1528 -0.8600 -3.1094
14538TIP3   OH265104   1.065   0.858   5.229 -0.0725 -0.3495  0.7354
14538TIP3    H165105   1.125   0.909   5.175  0.9201  0.1304  2.2487
14538TIP3    H265106   0.983   0.859   5.180  0.7739  0.0868 -0.7438
14539TIP3   OH265107   5.731   6.114  16.921 -0.2641 -0.1294 -0.0649
14539TIP3    H165108   5.756   6.036  16.971 -2.7341 -1.4344 -0.6899
14539TIP3    H265109   5.659   6.085  16.865  1.1989  1.7033 -3.1623
14540TIP3   OH265110   0.617   5.440  10.768 -0.2273 -0.3901  0.3647
14540TIP3    H165111   0.696   5.399  10.734 -0.8248 -1.4470  0.2045
14540TIP3    H265112   0.596   5.390  10.847 -2.5199 -2.2761 -1.3210
14541TIP3   OH265113   2.590   1.996   5.758  0.0610  0.5125  0.1079
14541TIP3    H165114   2.682   2.011   5.737  0.3006 -1.6136 -0.5014
14541TIP3    H265115   2.591   1.962   5.848 -0.1527  0.7120  0.1878
14542TIP3   OH265116   5.354   4.198   4.881  0.1009  0.4021  0.3587
14542TIP3    H165117   5.337   4.105   4.896 -1.7886  0.5056 -0.7951
14542TIP3    H265118   5.435   4.216   4.930  0.1496 -1.6730  1.1446
14543TIP3   OH265119   3.897   0.494   5.549 -1.0834 -0.4862  0.1256
14543TIP3    H165120   3.836   0.483   5.477 -0.7803 -1.0170 -0.0566
14543TIP3    H265121   3.916   0.588   5.550 -2.2898 -0.2358  0.5167
14544TIP3   OH265122   5.083   5.292   3.272  0.2424  0.8628 -0.1023
14544TIP3    H165123   5.061   5.330   3.187 -0.1899  0.5720 -0.1212
14544TIP3    H265124   5.115   5.366   3.323  1.4866  0.8575 -0.8455
14545TIP3   OH265125   4.671   4.270   1.733 -0.1314  0.0787 -0.1062
14545TIP3    H165126   4.606   4.329   1.772 -0.5924 -0.1331 -0.5392
14545TIP3    H265127   4.630   4.183   1.736  0.7207 -0.3130  0.9358
14546TIP3   OH265128   4.948   4.609  13.353 -0.0960 -0.2239 -0.4694
14546TIP3    H165129   4.915   4.670  13.287  0.1922  0.8948  0.3823
14546TIP3    H265130   4.869   4.580  13.400 -0.2267 -0.4512 -0.8280
14547TIP3   OH265131   2.786   0.207  14.541 -0.4483 -0.5922  0.0117
14547TIP3    H165132   2.830   0.273  14.487  0.3694  0.6637  2.0822
14547TIP3    H265133   2.789   0.127  14.489 -0.5203  0.7398 -2.1433
14548TIP3   OH265134   1.469   1.638  10.784  0.4621 -0.1196 -0.6993
14548TIP3    H165135   1.388   1.607  10.825  0.7242  1.5324  1.2407
14548TIP3    H265136   1.442   1.665  10.696 -0.6238 -1.5715 -0.8566
14549TIP3   OH265137   4.278   2.601  16.039  0.5448 -0.1180  0.0324
14549TIP3    H165138   4.334   2.536  16.082  2.0484  1.7711  1.0573
14549TIP3    H265139   4.329   2.629  15.963 -0.9566 -1.4837 -1.5718
14550TIP3   OH265140   5.726   4.053   2.600  0.8479  0.1905 -0.0888
14550TIP3    H165141   5.758   4.135   2.638 -1.5225  1.7593 -1.2195
14550TIP3    H265142   5.663   4.020   2.663  0.8634 -0.0952 -0.2235
14551TIP3   OH265143   2.651   0.889   2.519  0.6958 -0.8241 -0.0307
14551TIP3    H165144   2.713   0.817   2.509  0.4907 -0.8607 -1.1542
14551TIP3    H265145   2.699   0.955   2.569  1.4778 -1.0615 -0.4460
14552TIP3   OH265146   2.978   4.454  14.236  0.0958 -0.4515 -0.5243
14552TIP3    H165147   2.898   4.505  14.249 -0.1986 -0.5524 -1.7783
14552TIP3    H265148   3.036   4.512  14.189  2.1861  0.8891  3.2963
14553TIP3   OH265149   5.701   2.287   1.795 -0.4978  0.6534 -0.3093
14553TIP3    H165150   5.670   2.349   1.730  0.4994  0.4387 -1.0250
14553TIP3    H265151   5.763   2.337   1.848  0.7518  0.1608 -1.2534
14554TIP3   OH265152   5.950   0.813   3.640 -0.4173 -0.0871  0.1220
14554TIP3    H165153   6.029   0.788   3.591 -0.5679  0.7839 -0.5988
14554TIP3    H265154   5.879   0.767   3.595 -0.2346 -1.8538  1.5081
14555TIP3   OH265155   3.705   3.687   3.341 -0.4361 -0.2739 -0.5419
14555TIP3    H165156   3.738   3.615   3.393 -0.4073 -0.5865 -0.9876
14555TIP3    H265157   3.611   3.669   3.332 -0.6016  0.2286  0.1122
14556TIP3   OH265158   6.130   4.451  10.809  0.3884 -0.2323  0.2416
14556TIP3    H165159   6.078   4.496  10.743 -0.6118 -0.9689  0.4945
14556TIP3    H265160   6.148   4.365  10.771 -0.2947 -0.7053  0.9497
14557TIP3   OH265161   2.892   0.433   0.488  0.3401  0.0178  0.3770
14557TIP3    H165162   2.815   0.488   0.473  0.4372  0.0143 -0.1470
14557TIP3    H265163   2.961   0.474   0.435  0.3358 -0.7946 -0.2578
14558TIP3   OH265164   2.659   1.147   1.960  0.1595 -0.0844  0.1677
14558TIP3    H165165   2.652   1.212   1.890  2.2865 -0.6379 -0.6457
14558TIP3    H265166   2.722   1.184   2.022  0.5844 -0.8863  0.2309
14559TIP3   OH265167   0.874   3.263   0.660  0.0258 -0.4284  0.4237
14559TIP3    H165168   0.815   3.328   0.697  1.5020  1.6648 -0.7136
14559TIP3    H265169   0.818   3.186   0.645 -2.6781  1.6975 -1.4304
14560TIP3   OH265170   5.883   3.023  14.850 -0.0994  0.4469  0.4891
14560TIP3    H165171   5.815   3.065  14.903 -2.1637 -0.7968 -1.0355
14560TIP3    H265172   5.846   2.938  14.827  1.1079  0.5417 -2.1299
14561TIP3   OH265173   3.759   2.621   2.249  0.2064  0.1995 -0.0827
14561TIP3    H165174   3.739   2.533   2.282  1.6173  0.0257  0.3711
14561TIP3    H265175   3.854   2.622   2.240  0.3452  2.1005  1.0946
14562TIP3   OH265176   3.846   2.687   0.983 -0.0245  0.7162 -0.0599
14562TIP3    H165177   3.884   2.765   0.943 -0.8671  1.2211  0.0947
14562TIP3    H265178   3.886   2.614   0.936  0.1273  1.2609 -0.7973
14563TIP3   OH265179   5.081   6.505   2.778 -0.2539 -0.0538 -0.2297
14563TIP3    H165180   5.053   6.439   2.714 -2.5064 -0.5665  1.1551
14563TIP3    H265181   5.003   6.521   2.831  0.7121  2.5048  0.5719
14564TIP3   OH265182   0.301   2.319  14.684 -0.6022  0.2918 -0.0286
14564TIP3    H165183   0.284   2.360  14.599  1.6358  2.6264  0.5411
14564TIP3    H265184   0.310   2.226  14.663  0.6918  0.8807 -2.5427
14565TIP3   OH265185   6.331   2.809   3.966 -0.2079 -0.1776 -0.2180
14565TIP3    H165186   6.343   2.726   3.919  1.2834 -0.1758  0.1079
14565TIP3    H265187   6.343   2.876   3.899 -1.6337 -0.2088 -0.5268
14566TIP3   OH265188   0.410   5.776  13.088 -0.5275  0.4644 -0.2500
14566TIP3    H165189   0.501   5.760  13.114  0.6428  4.0512 -1.5089
14566TIP3    H265190   0.417   5.815  13.001 -3.5534 -1.7661 -1.6446
14567TIP3   OH265191   3.340   5.692   1.060 -0.0734  0.2753 -0.7650
14567TIP3    H165192   3.353   5.700   1.154  0.8539  2.7313 -1.0336
14567TIP3    H265193   3.285   5.767   1.036 -0.4266 -0.3894 -2.1549
14568TIP3   OH265194   0.284   6.215   4.699 -0.6299  0.4149 -0.5240
14568TIP3    H165195   0.278   6.194   4.792 -1.8680  1.8051 -0.2431
14568TIP3    H265196   0.364   6.268   4.692  0.7499 -1.5986 -0.6978
14569TIP3   OH265197   2.829   1.654   4.452 -0.3200 -0.1543  0.5217
14569TIP3    H165198   2.856   1.590   4.518  0.0256 -0.5385  0.0133
14569TIP3    H265199   2.854   1.738   4.490 -1.8385 -0.1955  1.7196
14570TIP3   OH265200   2.793   3.130  17.139  0.2041  0.0609 -0.3525
14570TIP3    H165201   2.750   3.214  17.157  2.4403  1.0462  0.9862
14570TIP3    H265202   2.728   3.064  17.162 -1.0666  1.4373  0.2097
14571TIP3   OH265203   6.442   4.667   5.534 -0.3193  0.4371 -0.3746
14571TIP3    H165204   6.500   4.710   5.471 -0.2896  1.0872  0.0923
14571TIP3    H265205   6.454   4.716   5.616  1.8141 -2.0890  0.9743
14572TIP3   OH265206   6.723   1.125   3.881  0.2056 -0.2702 -0.2613
14572TIP3    H165207   6.679   1.177   3.814 -3.4883 -0.9412  1.3806
14572TIP3    H265208   6.803   1.093   3.839 -0.8848  0.9704 -3.5972
14573TIP3   OH265209   0.606   4.837   4.095  0.7462  0.7957 -0.0444
14573TIP3    H165210   0.572   4.856   4.007  2.8372 -1.8904 -1.5701
14573TIP3    H265211   0.698   4.815   4.082  1.0624 -0.0009  2.7994
14574TIP3   OH265212   6.495   0.122   6.148  0.0197 -0.3601 -0.3554
14574TIP3    H165213   6.510   0.057   6.217  0.1454 -0.9079 -0.8927
14574TIP3    H265214   6.419   0.173   6.179  0.2130 -0.4562  0.2861
14575TIP3   OH265215   5.548   6.220   3.975 -0.6668  0.0656  0.8539
14575TIP3    H165216   5.477   6.270   3.936 -1.9429 -1.9891  0.4129
14575TIP3    H265217   5.597   6.185   3.900 -0.3885 -0.1902  1.1506
14576TIP3   OH265218   2.286   4.133   1.997  0.1321  0.0095 -0.0238
14576TIP3    H165219   2.196   4.102   1.994  0.4219 -1.2093  2.0646
14576TIP3    H265220   2.316   4.131   1.906 -1.2336 -1.7148 -0.4736
14577TIP3   OH265221   0.114   4.609   0.553  0.4754  0.3848  0.2961
14577TIP3    H165222   0.023   4.628   0.529  0.7660 -1.0303 -2.2947
14577TIP3    H265223   0.109   4.578   0.643 -2.1962 -2.8227 -0.7260
14578TIP3   OH265224   3.907   6.584  16.071 -0.2126 -0.3684 -0.0371
14578TIP3    H165225   3.969   6.626  16.011 -1.2160  0.5603 -0.4645
14578TIP3    H265226   3.957   6.512  16.110  0.9071 -0.0994 -0.8984
14579TIP3   OH265227   2.024   6.099   0.637  0.2319 -0.0804  0.4156
14579TIP3    H165228   1.936   6.115   0.670  0.4846  1.3050  0.5003
14579TIP3    H265229   2.081   6.144   0.699  1.0343 -1.2002  0.5158
14580TIP3   OH265230   1.324   4.565   4.297 -0.2783  0.0016 -0.7327
14580TIP3    H165231   1.337   4.485   4.349 -1.1218  1.5350  2.0726
14580TIP3    H265232   1.399   4.568   4.239  1.4451 -1.2759  1.2652
14581TIP3   OH265233   4.107   6.355   0.774 -0.2498  0.0599 -0.0240
14581TIP3    H165234   4.159   6.280   0.744  0.0623  0.5021 -0.6133
14581TIP3    H265235   4.173   6.420   0.799 -0.5056 -0.1251  1.1999
14582TIP3   OH265236   3.244   2.261   0.749  0.0346 -0.6545  0.0763
14582TIP3    H165237   3.192   2.268   0.829  0.1430 -0.6620  0.1488
14582TIP3    H265238   3.181   2.249   0.679 -0.0621 -0.6313  0.1600
14583TIP3   OH265239   4.942   5.372   2.415  0.3762 -0.3953 -0.1255
14583TIP3    H165240   4.987   5.289   2.431  2.0559  0.7855  1.6723
14583TIP3    H265241   4.921   5.405   2.502 -1.2784  0.5596 -0.8498
14584TIP3   OH265242   2.387   1.004  13.942  0.2814  0.4966  0.1918
14584TIP3    H165243   2.374   1.037  14.031  0.6776  2.4043 -0.4082
14584TIP3    H265244   2.385   0.909  13.951 -3.8318  0.5350  1.6164
14585TIP3   OH265245   2.543   1.057   0.607 -0.1688  0.2490 -0.1101
14585TIP3    H165246   2.609   1.090   0.668 -1.2841  0.6365  0.9159
14585TIP3    H265247   2.463   1.053   0.658 -1.1578  0.6329 -1.5705
14586TIP3   OH265248   5.774   3.373   4.209  0.1145 -0.0359  0.0599
14586TIP3    H165249   5.840   3.371   4.279  1.1533 -1.5029 -0.9042
14586TIP3    H265250   5.767   3.466   4.186  2.2208  0.1370 -0.1095
14587TIP3   OH265251   3.703   1.950   4.661 -0.4911 -0.4243  0.4860
14587TIP3    H165252   3.728   1.912   4.577 -0.0008 -0.4285  0.6293
14587TIP3    H265253   3.778   2.003   4.687 -1.8261  2.1974 -0.6112
14588TIP3   OH265254   5.660   1.046  15.673  0.2127 -0.3279  0.0272
14588TIP3    H165255   5.633   1.021  15.762  0.8907 -1.6981 -0.1129
14588TIP3    H265256   5.683   1.139  15.680 -1.7345  0.1410  0.7761
14589TIP3   OH265257   1.938   5.013   2.425 -0.3341 -0.2912  0.5250
14589TIP3    H165258   2.001   5.024   2.353 -0.7575  0.4819  0.2531
14589TIP3    H265259   1.886   4.937   2.400 -0.9445  0.4011 -0.3554
14590TIP3   OH265260   5.991   3.313  14.094  0.4543 -0.2087 -0.2382
14590TIP3    H165261   5.974   3.361  14.175  1.1712 -1.6695  0.8319
14590TIP3    H265262   5.950   3.366  14.026 -2.8287 -0.3552  1.4092
14591TIP3   OH265263   6.577   2.005  15.212  0.9624  0.2252 -0.3108
14591TIP3    H165264   6.533   2.036  15.132  0.4541 -0.6264 -0.3739
14591TIP3    H265265   6.635   1.935  15.181  0.0033 -0.8199  0.1834
14592TIP3   OH265266   2.907   4.147   1.492  0.2039 -0.2609  0.1402
14592TIP3    H165267   2.929   4.076   1.551  0.0738 -0.2146  0.2448
14592TIP3    H265268   2.845   4.109   1.429 -0.3433 -0.0860  0.5630
14593TIP3   OH265269   2.056   3.222   3.979  0.2153  0.0429  0.3794
14593TIP3    H165270   1.962   3.241   3.974  0.5490  1.6869 -0.3786
14593TIP3    H265271   2.068   3.185   4.066 -0.7626  2.3381  1.5895
14594TIP3   OH265272   6.289   5.864   4.189 -0.3062  0.0125 -0.0547
14594TIP3    H165273   6.382   5.842   4.190 -0.1382  0.5823 -1.0107
14594TIP3    H265274   6.246   5.787   4.150 -0.3233 -0.4835  0.9117
14595TIP3   OH265275   2.734   1.947   1.125 -0.0563  0.2412 -0.0385
14595TIP3    H165276   2.817   1.980   1.159  0.3122  0.1598 -0.8272
14595TIP3    H265277   2.726   1.860   1.163 -1.4214  1.4635  2.6808
14596TIP3   OH265278   3.593   0.590  15.241  0.4228  0.0874  0.1615
14596TIP3    H165279   3.654   0.657  15.211  1.4948 -0.4296  1.0884
14596TIP3    H265280   3.622   0.570  15.331 -0.5618 -0.8066  0.3004
14597TIP3   OH265281   5.742   2.890   3.675 -0.0468  0.0551 -0.4614
14597TIP3    H165282   5.677   2.831   3.712 -0.6208  0.6531 -0.4822
14597TIP3    H265283   5.811   2.894   3.740 -0.3976  0.0084 -0.0798
14598TIP3   OH265284   6.779   0.480   5.611  0.1310  0.2965 -0.3753
14598TIP3    H165285   6.843   0.547   5.636 -0.4352  1.1782 -1.2481
14598TIP3    H265286   6.782   0.417   5.683  1.2772  0.8200  0.0649
14599TIP3   OH265287   0.854   3.228   0.373 -0.3162 -0.7331  0.6496
14599TIP3    H165288   0.854   3.212   0.279 -1.4292 -1.0032  0.6809
14599TIP3    H265289   0.827   3.145   0.412  0.3532 -0.6904  1.2277
14600TIP3   OH265290   6.230   0.156   3.513  0.4619 -0.1650 -0.4917
14600TIP3    H165291   6.297   0.221   3.536  1.6421 -0.9402 -1.5780
14600TIP3    H265292   6.183   0.140   3.594  1.4054  0.6220  0.2401
14601TIP3   OH265293   5.380   3.846   2.466  0.5646  0.6656  0.3914
14601TIP3    H165294   5.364   3.783   2.395  1.3098 -0.0128  0.8049
14601TIP3    H265295   5.385   3.931   2.422 -1.7173  0.6350 -0.0239
14602TIP3   OH265296   4.902   1.013   3.348 -0.0054 -0.3356  0.5942
14602TIP3    H165297   4.890   0.920   3.329 -0.8913 -0.0801 -0.1456
14602TIP3    H265298   4.971   1.042   3.288  0.9804 -0.7172  1.5055
14603TIP3   OH265299   0.356   4.978  12.559  0.0350  0.2316  0.1618
14603TIP3    H165300   0.266   4.994  12.531  0.2151  0.5115 -0.2543
14603TIP3    H265301   0.406   5.051  12.523  0.8587 -1.2063 -1.7707
14604TIP3   OH265302   6.136   2.070   2.159  0.1889  0.0399 -0.2111
14604TIP3    H165303   6.213   2.029   2.198 -0.7494  0.2296  2.0115
14604TIP3    H265304   6.133   2.157   2.199 -1.0785  0.0817 -0.3633
14605TIP3   OH265305   4.683   6.679   5.587  0.0205 -0.0807 -0.3344
14605TIP3    H165306   4.620   6.637   5.646  1.4317  0.3944  1.6259
14605TIP3    H265307   4.764   6.629   5.599  0.8998  1.3095 -0.2675
14606TIP3   OH265308   1.084   6.540  15.511  0.4410 -0.2995 -0.5144
14606TIP3    H165309   1.059   6.465  15.457 -0.8342  0.6664 -1.3193
14606TIP3    H265310   1.031   6.531  15.590  0.3677 -0.2942 -0.5632
14607TIP3   OH265311   3.742   4.289   0.966 -0.1234 -0.0886  0.1676
14607TIP3    H165312   3.781   4.375   0.947 -0.6798  0.2077  0.3512
14607TIP3    H265313   3.651   4.308   0.988 -0.3029 -0.7492  0.0184
14608TIP3   OH265314   4.949   4.634  12.159 -0.0327  0.4599 -0.3318
14608TIP3    H165315   4.925   4.593  12.242 -2.0801  0.8697 -0.6409
14608TIP3    H265316   4.934   4.728  12.174 -1.3921  0.4475 -1.4117
14609TIP3   OH265317   3.001   0.472   5.453 -0.4478 -0.3149 -0.6755
14609TIP3    H165318   2.935   0.430   5.398 -2.0855  1.1500  0.0608
14609TIP3    H265319   2.964   0.558   5.474  1.5944  0.4696  0.0071
14610TIP3   OH265320   1.630   2.823   5.573 -0.0295 -0.0268  0.1596
14610TIP3    H165321   1.552   2.876   5.559 -0.1159  0.2649  1.6485
14610TIP3    H265322   1.631   2.805   5.667 -0.4557 -3.3835 -0.3537
14611TIP3   OH265323   1.790   6.114  14.472 -0.2423 -0.2914  0.1163
14611TIP3    H165324   1.876   6.076  14.450 -0.1508 -0.1854  0.2885
14611TIP3    H265325   1.786   6.196  14.423 -0.1822 -0.2229  0.2266
14612TIP3   OH265326   0.183   2.757   3.019  0.3325  0.0200  0.1886
14612TIP3    H165327   0.236   2.700   3.075 -1.3601 -1.4475  0.3783
14612TIP3    H265328   0.115   2.699   2.984 -0.1302  1.4579 -1.4091
14613TIP3   OH265329   4.196   0.087  13.298 -0.1503  0.4535  0.3355
14613TIP3    H165330   4.214   0.156  13.234  2.8061 -1.5973 -1.2721
14613TIP3    H265331   4.282   0.051  13.319 -1.5282 -2.5662  1.3022
14614TIP3   OH265332   2.839   6.741  16.195  0.5984  0.2128  0.6636
14614TIP3    H165333   2.892   6.809  16.155  0.7087  2.1666  3.7734
14614TIP3    H265334   2.758   6.740  16.146  0.4818  2.8710  0.6977
14615TIP3   OH265335   0.983   6.282  16.056  0.2323 -0.4832  0.3396
14615TIP3    H165336   0.991   6.193  16.090  0.1688  0.2784  2.4991
14615TIP3    H265337   0.897   6.312  16.088  1.1619  1.0644  1.5360
14616TIP3   OH265338   6.385   4.450  15.225  0.0649 -0.8820  0.0978
14616TIP3    H165339   6.298   4.477  15.255  0.9161 -0.2750  2.2287
14616TIP3    H265340   6.445   4.509  15.270  1.5893 -0.7794 -1.9124
14617TIP3   OH265341   6.407   4.930   3.382 -0.8540 -0.9656  0.3863
14617TIP3    H165342   6.441   4.905   3.468 -1.4420 -3.5428 -0.0564
14617TIP3    H265343   6.391   4.847   3.337 -0.0766  0.2862 -2.4374
14618TIP3   OH265344   2.490   0.933   4.687  0.0009  0.3331 -0.7852
14618TIP3    H165345   2.540   0.985   4.624 -1.1267 -0.1367 -2.1350
14618TIP3    H265346   2.400   0.936   4.654 -0.2651 -1.6327 -0.3664
14619TIP3   OH265347   2.085   6.567   1.466 -0.1037 -0.8460 -0.5793
14619TIP3    H165348   2.170   6.608   1.483  0.5057 -1.2099 -2.5125
14619TIP3    H265349   2.088   6.542   1.373 -2.2657 -1.0208 -0.6601
14620TIP3   OH265350   3.196   3.402  16.344 -0.1017 -0.1362  0.2402
14620TIP3    H165351   3.189   3.334  16.410 -1.2336 -1.3766 -1.0990
14620TIP3    H265352   3.280   3.444  16.362  1.6184 -3.1522 -0.0306
14621TIP3   OH265353   1.075   1.142   3.763  0.0252 -0.4885  0.0023
14621TIP3    H165354   1.078   1.216   3.824  0.7898 -0.3070 -0.2387
14621TIP3    H265355   1.062   1.183   3.677 -0.0317 -0.6688 -0.0738
14622TIP3   OH265356   3.400   1.582  11.957  0.1169  0.8834  0.0778
14622TIP3    H165357   3.384   1.672  11.929  1.7711  1.0400 -0.4306
14622TIP3    H265358   3.313   1.542  11.957 -0.7213  2.5997  0.8125
14623TIP3   OH265359   5.663   6.742   3.996 -0.5579  0.3195 -0.1407
14623TIP3    H165360   5.571   6.745   4.022  0.0998  1.8850  2.4912
14623TIP3    H265361   5.686   6.834   3.981  0.4444 -0.1124 -1.3807
14624TIP3   OH265362   5.744   5.021   1.670 -0.6563 -0.1148  0.5694
14624TIP3    H165363   5.749   4.951   1.735 -1.7772 -0.6361  0.1292
14624TIP3    H265364   5.834   5.050   1.658 -0.0408 -2.0773  0.1231
14625TIP3   OH265365   5.006   1.280   5.001 -0.1052 -0.0132 -0.7171
14625TIP3    H165366   5.033   1.214   5.066 -0.4091 -0.1261 -0.7053
14625TIP3    H265367   5.031   1.363   5.041 -0.3963 -0.0745 -0.3985
14626TIP3   OH265368   6.414   4.039   2.683 -0.0642  0.3589 -0.3423
14626TIP3    H165369   6.490   4.095   2.667 -0.6585  0.9707 -1.0962
14626TIP3    H265370   6.417   3.975   2.612 -0.1410  0.2554 -0.2519
14627TIP3   OH265371   1.762   1.811   2.902 -0.3602  0.3552 -0.0793
14627TIP3    H165372   1.824   1.738   2.890 -0.3108  0.4846 -0.6540
14627TIP3    H265373   1.681   1.769   2.930 -0.0433  0.1749  0.5873
14628TIP3   OH265374   2.834   4.183   3.279 -0.1183  0.0316 -0.2061
14628TIP3    H165375   2.776   4.160   3.352  1.8287 -2.8760  0.5888
14628TIP3    H265376   2.845   4.277   3.286  0.2193 -0.1523  3.4997
14629TIP3   OH265377   4.267   1.772   0.560  0.1586  0.0016  0.0917
14629TIP3    H165378   4.234   1.861   0.546 -2.3299 -1.1193 -1.9163
14629TIP3    H265379   4.283   1.738   0.472 -2.2281 -2.6082  0.5294
14630TIP3   OH265380   6.694   4.135  16.006  0.0906 -0.2145 -0.3911
14630TIP3    H165381   6.628   4.153  16.073 -1.6758  2.7168 -2.6193
14630TIP3    H265382   6.668   4.052  15.967 -0.2985 -0.7209  0.9312
14631TIP3   OH265383   1.821   3.353  12.634  0.1015 -0.1069  0.2541
14631TIP3    H165384   1.826   3.448  12.642 -0.8043  0.0076 -0.3624
14631TIP3    H265385   1.839   3.336  12.541  0.0665 -0.5143  0.3221
14632TIP3   OH265386   4.795   3.854  10.925 -0.4472  0.1928  0.1484
14632TIP3    H165387   4.717   3.800  10.912 -0.5388 -0.3383  2.4585
14632TIP3    H265388   4.862   3.793  10.957  0.4471  0.9101 -0.2977
14633TIP3   OH265389   4.612   1.256  12.373  0.5272 -0.2090  0.7620
14633TIP3    H165390   4.601   1.310  12.294  0.7557  0.5039  1.2092
14633TIP3    H265391   4.564   1.302  12.441  0.4324 -0.7600  1.0723
14634TIP3   OH265392   0.407   0.228   1.993 -0.6976 -0.2779  0.5507
14634TIP3    H165393   0.422   0.284   2.070  0.3102  0.9987 -0.5385
14634TIP3    H265394   0.459   0.150   2.010 -0.0962  0.2019  0.9494
14635TIP3   OH265395   0.031   4.841  16.556  0.1353 -0.4437  0.2139
14635TIP3    H165396  -0.018   4.855  16.475  0.7996 -0.3353 -0.1760
14635TIP3    H265397   0.009   4.751  16.582  0.4071 -0.7037 -0.4285
14636TIP3   OH265398   3.174   1.240  16.199  0.4825 -0.0098 -0.6099
14636TIP3    H165399   3.129   1.281  16.273 -0.6791  1.2534 -1.9561
14636TIP3    H265400   3.250   1.198  16.238  0.2103  1.0910  1.2265
14637TIP3   OH265401   4.561   4.094  15.173  0.2266  0.6281 -0.0468
14637TIP3    H165402   4.481   4.081  15.225 -0.0770  0.0599 -0.6380
14637TIP3    H265403   4.597   4.177  15.203 -0.7269  1.0119  0.0491
14638TIP3   OH265404   3.646   5.568   3.140 -0.1066  0.7086  0.0054
14638TIP3    H165405   3.639   5.512   3.217  0.4236  1.1304  0.3730
14638TIP3    H265406   3.579   5.635   3.151 -0.6126  0.2673 -0.3392
14639TIP3   OH265407   0.489   3.463  15.770 -0.5439  0.0599 -0.2817
14639TIP3    H165408   0.438   3.543  15.782 -0.6024  0.0030 -0.1530
14639TIP3    H265409   0.474   3.439  15.678 -0.2457  0.3901 -0.4189
14640TIP3   OH265410   3.987   5.935  14.861  0.7334 -0.2962 -0.3263
14640TIP3    H165411   3.936   5.886  14.796 -1.7122 -0.1437  1.3368
14640TIP3    H265412   3.946   6.022  14.863  2.2294  0.4386 -0.1593
14641TIP3   OH265413   4.555   2.355   2.975 -0.3432  0.6467 -0.0977
14641TIP3    H165414   4.462   2.339   2.988 -0.6712 -0.1337 -2.7413
14641TIP3    H265415   4.596   2.333   3.058 -2.2629 -1.4326  0.3740
14642TIP3   OH265416   2.570   1.309  17.062 -0.5010  0.2194  0.2704
14642TIP3    H165417   2.655   1.351  17.065 -0.6728  0.5041  1.3148
14642TIP3    H265418   2.550   1.302  16.968  0.5172  0.4368  0.0311
14643TIP3   OH265419   2.107   0.461  12.794 -0.2325  0.6503  0.0833
14643TIP3    H165420   2.184   0.420  12.833 -0.4860  0.1373  0.0467
14643TIP3    H265421   2.138   0.499  12.712 -0.1697 -0.1802 -0.2797
14644TIP3   OH265422   1.636   3.529  14.612 -0.2564 -0.6046 -0.4550
14644TIP3    H165423   1.650   3.575  14.695  0.1706  0.5250 -1.1343
14644TIP3    H265424   1.550   3.559  14.582  0.0228 -0.2288 -0.8978
14645TIP3   OH265425   2.838   2.992  12.466 -0.1572  0.2355 -0.2449
14645TIP3    H165426   2.873   3.003  12.377 -1.1569  0.7171 -0.5917
14645TIP3    H265427   2.744   2.985  12.454 -0.1023 -3.2630  0.4870
14646TIP3   OH265428   2.587   5.775   3.121 -0.6636  0.1757 -0.2546
14646TIP3    H165429   2.526   5.730   3.179  0.2254  1.3092  1.6657
14646TIP3    H265430   2.670   5.728   3.131 -0.2814  0.9073  0.1045
14647TIP3   OH265431   6.042   1.788   5.744 -0.4785 -0.0223 -0.1349
14647TIP3    H165432   6.008   1.704   5.712 -0.8135 -0.5750  1.5621
14647TIP3    H265433   5.979   1.815   5.811  0.5147  0.7345  0.5229
14648TIP3   OH265434   4.016   3.067  16.407  0.1860  0.5214  0.4282
14648TIP3    H165435   4.021   2.978  16.371 -1.3738  1.1560 -1.5955
14648TIP3    H265436   3.950   3.061  16.476 -0.2278  0.1800  0.0087
14649TIP3   OH265437   0.398   0.302  11.413  0.3026  0.8327 -0.4629
14649TIP3    H165438   0.447   0.375  11.376 -0.1475  2.1718  1.4143
14649TIP3    H265439   0.395   0.237  11.344  2.2473  1.8774 -1.5969
14650TIP3   OH265440   4.972   5.952   3.982  0.1532  0.2826  0.3651
14650TIP3    H165441   4.987   6.032   4.034  2.5986  1.3204 -1.6861
14650TIP3    H265442   5.048   5.897   4.000  0.6840  0.3477 -1.4350
14651TIP3   OH265443   2.706   3.806  16.582  0.6134 -0.4363 -0.6560
14651TIP3    H165444   2.779   3.803  16.644 -0.8119 -1.3063  1.0712
14651TIP3    H265445   2.693   3.716  16.555 -1.1927 -0.7062  0.8466
14652TIP3   OH265446   2.094   5.739  11.626  0.6928 -0.0277 -0.3267
14652TIP3    H165447   2.100   5.720  11.532 -1.8494 -0.2924 -0.5218
14652TIP3    H265448   2.002   5.721  11.648  0.9854  0.9711  2.0124
14653TIP3   OH265449   5.142   5.011   5.552 -0.0106  0.2098 -0.4236
14653TIP3    H165450   5.150   5.050   5.639  0.8957 -2.3599  0.7580
14653TIP3    H265451   5.048   5.003   5.537 -0.1839  1.5411 -0.1311
14654TIP3   OH265452   3.287   2.440   5.306  0.2107 -0.2138 -1.1858
14654TIP3    H165453   3.348   2.386   5.355  1.4704  2.4914  0.4099
14654TIP3    H265454   3.230   2.478   5.372 -0.3910  0.7298 -2.2108
14655TIP3   OH265455   0.096   1.856   2.159  0.2997  0.2871 -0.1602
14655TIP3    H165456   0.070   1.945   2.182  1.5537  0.4072  0.9288
14655TIP3    H265457   0.041   1.800   2.214 -0.0005  0.4069 -0.3348
14656TIP3   OH265458   2.129   5.235  13.584 -0.0915 -0.3033  0.1235
14656TIP3    H165459   2.110   5.160  13.641 -0.4585 -1.6412 -1.6707
14656TIP3    H265460   2.213   5.215  13.544  0.8677  1.3148  1.2164
14657TIP3   OH265461   2.563   5.345  17.098 -0.5037 -0.1755  0.2567
14657TIP3    H165462   2.492   5.323  17.158 -1.3149 -0.7029 -0.8765
14657TIP3    H265463   2.558   5.279  17.029  2.2596 -1.3896  1.0728
14658TIP3   OH265464   1.271   5.247   2.748 -0.8697 -0.1206 -0.3019
14658TIP3    H165465   1.267   5.338   2.718 -0.7335 -0.3474 -1.0537
14658TIP3    H265466   1.184   5.212   2.728 -0.3938 -0.6177 -1.6330
14659TIP3   OH265467   6.466   0.668  16.199 -0.6597 -0.2652 -0.0880
14659TIP3    H165468   6.484   0.721  16.121  0.3959 -0.3467  0.0742
14659TIP3    H265469   6.379   0.633  16.185  0.2093 -1.8186 -2.1606
14660TIP3   OH265470   6.398   5.490  15.922 -1.0397  0.3251  0.0571
14660TIP3    H165471   6.345   5.495  15.843 -2.1355  0.8704  0.8082
14660TIP3    H265472   6.471   5.433  15.898 -1.6450  0.0374 -1.1730
14661TIP3   OH265473   4.311   2.275   2.854  0.0885  0.4810  0.0424
14661TIP3    H165474   4.281   2.184   2.855 -1.9376  1.1126  0.3333
14661TIP3    H265475   4.400   2.270   2.820  0.3044 -1.6845  0.7676
14662TIP3   OH265476   1.793   3.901   4.447  0.0839 -0.3624 -0.4174
14662TIP3    H165477   1.847   3.889   4.525 -1.0017 -1.7437  0.1750
14662TIP3    H265478   1.855   3.927   4.379  1.3969 -1.2661  0.3783
14663TIP3   OH265479   2.014   2.619   2.338  0.4127 -0.4677 -0.2789
14663TIP3    H165480   1.940   2.665   2.299  1.1741  0.1661 -1.0185
14663TIP3    H265481   2.006   2.636   2.432 -1.3687 -1.9087 -0.1244
14664TIP3   OH265482   1.743   1.563  15.079 -0.0052  0.0375  0.2891
14664TIP3    H165483   1.760   1.613  15.160 -0.8197  0.5888  0.1356
14664TIP3    H265484   1.678   1.498  15.105  0.5124 -0.4678  0.3181
14665TIP3   OH265485   6.490   1.952   1.509  0.2206  0.0157 -0.4965
14665TIP3    H165486   6.464   2.042   1.487 -0.0732  0.0629  0.0327
14665TIP3    H265487   6.488   1.949   1.605  0.1146 -0.5895 -0.5133
14666TIP3   OH265488   2.739   6.617   5.218  0.0619  0.1177 -0.1599
14666TIP3    H165489   2.793   6.538   5.217  1.4300  0.9560  1.6162
14666TIP3    H265490   2.649   6.585   5.214  0.5484 -1.6172  1.5745
14667TIP3   OH265491   6.081   1.713   6.131 -0.1395  0.5326  0.2047
14667TIP3    H165492   6.017   1.783   6.121 -0.2325  0.3123 -0.7660
14667TIP3    H265493   6.052   1.664   6.208 -1.9924 -0.4479 -1.0434
14668TIP3   OH265494   5.389   1.451  10.963 -0.6322 -0.1437  0.1311
14668TIP3    H165495   5.317   1.436  10.902  0.9612 -0.9347 -1.6579
14668TIP3    H265496   5.400   1.547  10.964  0.0225 -0.1659 -1.7549
14669TIP3   OH265497   0.328   2.434   2.737 -0.4265 -0.5827 -0.1405
14669TIP3    H165498   0.242   2.393   2.729 -1.7801  2.1165 -0.6239
14669TIP3    H265499   0.352   2.422   2.829 -0.0127 -3.5817 -0.5270
14670TIP3   OH265500   1.057   0.026   1.042  0.3754  0.1967  0.1689
14670TIP3    H165501   1.078  -0.059   1.003 -0.1052 -0.2202  0.7906
14670TIP3    H265502   1.065   0.088   0.970  1.6747 -0.2342 -0.0769
14671TIP3   OH265503   3.182   6.418   1.199  0.3234  0.9807  0.2862
14671TIP3    H165504   3.147   6.365   1.127 -0.4430  1.1186  0.5446
14671TIP3    H265505   3.129   6.393   1.275  0.6371  1.3686  0.6399
14672TIP3   OH265506   6.275   4.544  14.099 -0.3086  0.5469  0.0588
14672TIP3    H165507   6.181   4.557  14.085 -0.9585 -2.0523  1.3783
14672TIP3    H265508   6.290   4.453  14.072  2.0805  1.1996 -1.0832
14673TIP3   OH265509   1.653   0.633  12.664 -0.0165 -0.3713 -0.2572
14673TIP3    H165510   1.743   0.655  12.690 -0.7850  0.1505  2.2926
14673TIP3    H265511   1.636   0.686  12.586  1.8769 -0.5137 -0.8124
14674TIP3   OH265512   5.870   2.139   2.102  0.3241 -0.4737  0.2730
14674TIP3    H165513   5.960   2.107   2.107  0.6169  0.3651  0.5643
14674TIP3    H265514   5.820   2.065   2.067  1.3584 -0.5134 -1.2339
14675TIP3   OH265515   2.418   2.149  15.881  0.1603 -0.1723 -0.4946
14675TIP3    H165516   2.387   2.180  15.967 -1.1493  0.4600 -1.1633
14675TIP3    H265517   2.502   2.108  15.900 -0.1256 -0.1102  1.1094
14676TIP3   OH265518   1.306   1.602   6.201  0.4017  0.2871  0.1234
14676TIP3    H165519   1.343   1.557   6.125 -0.7118  1.1878 -1.0157
14676TIP3    H265520   1.323   1.695   6.185  0.2565  0.4854  1.0430
14677TIP3   OH265521   2.992   1.641   6.377  0.4529  0.1069  0.2874
14677TIP3    H165522   2.980   1.730   6.412  2.2654  0.7238 -0.5072
14677TIP3    H265523   3.069   1.608   6.424  0.0689 -0.8833  0.2418
14678TIP3   OH265524   6.420   0.279   1.416 -0.7010  0.2938  0.0353
14678TIP3    H165525   6.432   0.351   1.355 -1.6441  0.8785  0.5090
14678TIP3    H265526   6.460   0.204   1.373 -2.7858  0.2903 -2.1034
14679TIP3   OH265527   0.238   5.489   4.890  0.4602 -0.3405 -0.0913
14679TIP3    H165528   0.153   5.469   4.930  1.3203 -2.9343  0.6143
14679TIP3    H265529   0.220   5.497   4.797 -0.4550 -1.7774 -0.0641
14680TIP3   OH265530   6.391   3.800   3.667 -0.3742 -0.2295  0.3147
14680TIP3    H165531   6.431   3.790   3.580 -1.3418  1.7989 -0.4366
14680TIP3    H265532   6.381   3.710   3.699 -0.6843 -1.1023 -2.0107
14681TIP3   OH265533   2.554   2.334   5.013  0.7406 -0.2955  0.1787
14681TIP3    H165534   2.639   2.305   4.981  0.3766 -1.3202  0.1051
14681TIP3    H265535   2.570   2.422   5.047  1.6703 -0.1850 -0.5022
14682TIP3   OH265536   0.470   0.547  16.309  0.5453  0.3704  0.2281
14682TIP3    H165537   0.377   0.563  16.294  0.0305 -1.5117  1.0904
14682TIP3    H265538   0.495   0.485  16.241  0.9298  0.1198  0.5962
14683TIP3   OH265539   1.293   3.944   2.083  0.3242 -0.4785 -0.5174
14683TIP3    H165540   1.345   4.024   2.078  1.5617 -1.2285 -0.2071
14683TIP3    H265541   1.358   3.874   2.095 -0.8693 -1.2973  1.6125
14684TIP3   OH265542   4.018   5.588  10.616  0.2184 -0.2547  0.2824
14684TIP3    H165543   3.995   5.496  10.609  1.5117 -0.5776  0.0045
14684TIP3    H265544   3.947   5.635  10.572  0.4788 -1.2420 -1.2582
14685TIP3   OH265545   5.462   1.167  10.602 -0.2414  0.0862 -0.6473
14685TIP3    H165546   5.461   1.087  10.655  0.5697 -0.0506 -0.8226
14685TIP3    H265547   5.459   1.136  10.511  0.5157  0.2282 -0.7280
14686TIP3   OH265548   0.113   5.581  15.438  0.3178  0.3669 -0.1324
14686TIP3    H165549   0.067   5.554  15.518  0.0907 -1.7264 -0.9175
14686TIP3    H265550   0.044   5.593  15.373  0.5374  1.6811 -0.1544
14687TIP3   OH265551   4.526   3.602  11.455 -0.5733 -0.5616 -0.0079
14687TIP3    H165552   4.592   3.644  11.509 -0.2612 -0.7894 -0.2084
14687TIP3    H265553   4.507   3.666  11.387 -0.6083 -0.4696  0.0875
14688TIP3   OH265554   0.892   3.460  16.439 -0.0310  0.0644 -0.6797
14688TIP3    H165555   0.931   3.484  16.355 -0.9882  0.7389 -0.9557
14688TIP3    H265556   0.836   3.535  16.462 -0.0785 -0.2699  0.3710
14689TIP3   OH265557   2.548   2.492  14.657 -0.2634 -0.2925 -0.2836
14689TIP3    H165558   2.578   2.557  14.720 -0.4047 -0.4991 -0.0030
14689TIP3    H265559   2.627   2.442  14.634  0.0916  0.7653 -1.4391
14690TIP3   OH265560   5.491   5.813   1.886  0.1221  0.0788  0.5303
14690TIP3    H165561   5.478   5.734   1.938  0.2289 -0.0643  0.3412
14690TIP3    H265562   5.467   5.788   1.797  0.9866  0.0126  0.3106
14691TIP3   OH265563   5.977   2.757  14.423  0.0117  0.1445  0.2941
14691TIP3    H165564   5.956   2.838  14.469 -1.6443 -0.0507 -0.0784
14691TIP3    H265565   5.893   2.724  14.391  0.4308 -2.3913  1.5157
14692TIP3   OH265566   2.245   6.253   1.323  0.1163  0.1217  0.9115
14692TIP3    H165567   2.170   6.308   1.349 -1.5829 -1.4186 -0.5170
14692TIP3    H265568   2.286   6.229   1.407 -0.1835  1.9907  1.6634
14693TIP3   OH265569   4.159   6.409  13.665  0.0090  0.0942  0.3965
14693TIP3    H165570   4.099   6.340  13.638 -0.2609  0.9545 -1.3055
14693TIP3    H265571   4.227   6.411  13.598  0.5094  0.8800  0.9005
14694TIP3   OH265572   6.655   2.690  11.819  0.6947  0.2142 -0.4895
14694TIP3    H165573   6.662   2.782  11.794 -0.5366  0.6733  0.7445
14694TIP3    H265574   6.644   2.691  11.914  3.1661 -1.3672 -0.0941
14695TIP3   OH265575   4.036   0.619   0.448 -0.0235 -0.3541 -0.2199
14695TIP3    H165576   3.943   0.635   0.434  0.1976 -0.2429 -1.7601
14695TIP3    H265577   4.081   0.687   0.397  0.9306  0.7001  1.9186
14696TIP3   OH265578   5.689   1.682   1.307 -0.4080  0.0326  0.2557
14696TIP3    H165579   5.608   1.700   1.259  1.1173  0.1040 -2.5290
14696TIP3    H265580   5.666   1.610   1.366 -2.5205  0.1062 -0.3830
14697TIP3   OH265581   1.366   0.153  15.088  0.0081 -0.3579  0.0711
14697TIP3    H165582   1.299   0.097  15.127 -0.9048  1.4162  1.1606
14697TIP3    H265583   1.346   0.151  14.994 -1.8406  0.4261  0.4053
14698TIP3   OH265584   3.148   5.567  17.129  0.4821 -0.5167 -0.0235
14698TIP3    H165585   3.181   5.500  17.069 -1.1129 -1.7941  0.4610
14698TIP3    H265586   3.102   5.518  17.197 -0.6978  1.0814  0.3871
14699TIP3   OH265587   0.393   3.712  15.331  0.0331  0.3105 -0.0092
14699TIP3    H165588   0.474   3.682  15.291 -0.2525  0.4414 -0.6954
14699TIP3    H265589   0.420   3.754  15.413  0.8089  1.7376 -0.9652
14700TIP3   OH265590   5.210   3.215   2.308 -0.1327  0.3091  0.6689
14700TIP3    H165591   5.303   3.232   2.326 -0.1769 -0.2617  1.5311
14700TIP3    H265592   5.174   3.192   2.394 -1.2004  1.0742  0.4440
14701TIP3   OH265593   0.956   1.133  15.289 -0.1284 -0.2022  0.1807
14701TIP3    H165594   0.935   1.041  15.271  1.1495 -0.6249  0.6884
14701TIP3    H265595   0.919   1.181  15.215 -0.5914 -1.1568 -0.2223
14702TIP3   OH265596   2.157   0.082   2.230  1.0678  0.4641  0.1812
14702TIP3    H165597   2.195   0.051   2.148 -1.1002 -1.4449 -0.1898
14702TIP3    H265598   2.129   0.172   2.210  0.8987  0.1617 -1.0699
14703TIP3   OH265599   3.098   5.764   1.329 -0.3009  0.0094  0.4128
14703TIP3    H165600   3.112   5.839   1.387  0.4977 -0.8459  1.3451
14703TIP3    H265601   3.060   5.803   1.249  2.1852  1.7306 -0.0375
14704TIP3   OH265602   6.019   5.560  11.143 -0.1196  0.2380 -0.2141
14704TIP3    H165603   5.941   5.606  11.174 -0.9037 -0.2036 -1.4608
14704TIP3    H265604   6.092   5.609  11.180 -0.9498  1.6604 -0.3804
14705TIP3   OH265605   6.743   6.640  16.898  0.2124  0.0538 -0.2300
14705TIP3    H165606   6.723   6.553  16.931 -0.0721 -0.1285 -0.8870
14705TIP3    H265607   6.669   6.694  16.928  0.9999  0.3667  1.2833
14706TIP3   OH265608   4.144   0.678  17.063  0.5993  0.4671 -0.0013
14706TIP3    H165609   4.121   0.618  16.992  2.2047  0.1610 -0.3223
14706TIP3    H265610   4.074   0.668  17.127 -0.7255  0.5026 -1.3801
14707TIP3   OH265611   2.534   0.176   2.866  0.2632 -0.0931 -0.6370
14707TIP3    H165612   2.474   0.242   2.902  2.2608  2.5365 -1.8486
14707TIP3    H265613   2.485   0.135   2.795 -0.9339  0.1866 -0.0037
14708TIP3   OH265614   5.305   2.384   1.569 -0.6652  0.3644 -0.0541
14708TIP3    H165615   5.314   2.479   1.575  3.4717  0.0807  2.0425
14708TIP3    H265616   5.392   2.353   1.544 -1.4315 -2.9460  0.8026
14709TIP3   OH265617   3.799   0.106   1.301 -0.4467 -0.2336 -0.4778
14709TIP3    H165618   3.708   0.134   1.314  0.0982  1.2956  0.3825
14709TIP3    H265619   3.819   0.133   1.211 -0.5183  0.4201 -0.3024
14710TIP3   OH265620   5.768   5.864   1.015  0.1470 -0.0759 -0.1121
14710TIP3    H165621   5.749   5.831   0.927  1.5068 -1.7062  0.1381
14710TIP3    H265622   5.834   5.803   1.049 -1.9507 -0.8882  2.9139
14711TIP3   OH265623   6.379   3.848  15.273 -0.3208  0.3808 -0.5393
14711TIP3    H165624   6.345   3.770  15.228  0.4063 -0.4353  0.2695
14711TIP3    H265625   6.303   3.904  15.285 -0.4770  0.8879 -3.2243
14712TIP3   OH265626   5.613   1.573   6.105  0.0540  0.4397 -0.4335
14712TIP3    H165627   5.584   1.664   6.101 -1.8405 -0.1090 -0.1201
14712TIP3    H265628   5.539   1.526   6.144  1.1899 -1.1591 -0.1178
14713TIP3   OH265629   6.025   2.172  11.272  0.5273  0.0248  0.1545
14713TIP3    H165630   6.082   2.190  11.347 -0.6739  0.9235  0.8948
14713TIP3    H265631   5.949   2.127  11.309  0.3697 -0.4163 -0.6741
14714TIP3   OH265632   1.864   6.157   5.013  0.3724 -0.1322  0.1414
14714TIP3    H165633   1.949   6.128   4.982  0.4930 -1.3547  1.5454
14714TIP3    H265634   1.846   6.104   5.090 -1.4456  0.4438  0.1728
14715TIP3   OH265635   3.025   1.751   3.001  0.3741 -0.2903  0.1744
14715TIP3    H165636   3.090   1.730   2.934 -0.0010 -2.1067  0.3080
14715TIP3    H265637   2.942   1.758   2.954 -0.1706 -3.0936  0.4911
14716TIP3   OH265638   3.423   1.193   1.355 -0.0951  0.5051 -0.7286
14716TIP3    H165639   3.355   1.250   1.389 -0.0225 -0.3280  0.9310
14716TIP3    H265640   3.443   1.228   1.268 -1.6511  1.5841 -0.6892
14717TIP3   OH265641   4.359   4.436  15.624  0.2889 -0.0873 -0.1289
14717TIP3    H165642   4.271   4.419  15.592  0.3893 -0.4523 -0.2125
14717TIP3    H265643   4.409   4.461  15.547  0.3372 -0.2003 -0.1352
14718TIP3   OH265644   4.592   5.277   4.782 -0.2499  0.1023 -0.4031
14718TIP3    H165645   4.593   5.314   4.870  0.2155 -0.6202 -0.0923
14718TIP3    H265646   4.634   5.343   4.727 -1.1827  0.8619 -0.2188
14719TIP3   OH265647   2.183   0.170  12.905  0.1845  0.1031  0.3945
14719TIP3    H165648   2.101   0.191  12.951  1.6198  2.5024  2.0963
14719TIP3    H265649   2.219   0.095  12.954  0.2331  0.7111  1.3145
14720TIP3   OH265650   0.504   5.066   5.309  0.1113 -0.1943 -0.1901
14720TIP3    H165651   0.476   5.155   5.329 -0.2727 -0.2245 -0.5825
14720TIP3    H265652   0.424   5.013   5.317  0.0209 -0.2691 -1.4081
14721TIP3   OH265653   1.826   5.198   5.289  0.5084  0.0217 -0.4123
14721TIP3    H165654   1.856   5.230   5.374  1.4578  0.7871 -1.0193
14721TIP3    H265655   1.809   5.276   5.237 -1.8256 -0.3939 -0.3806
14722TIP3   OH265656   1.205   4.739  16.803 -0.5349 -0.7329 -0.0253
14722TIP3    H165657   1.263   4.669  16.832 -2.6067 -2.0598  1.1229
14722TIP3    H265658   1.224   4.812  16.863  0.2613 -0.9686  0.0238
14723TIP3   OH265659   1.826   1.436   0.614  0.0794 -0.3433 -0.3121
14723TIP3    H165660   1.790   1.410   0.529 -0.3134 -0.6256 -0.0665
14723TIP3    H265661   1.755   1.416   0.676 -0.3295  1.5287 -0.1260
14724TIP3   OH265662   5.437   4.633   5.786 -0.4023  0.7002  0.3741
14724TIP3    H165663   5.468   4.592   5.867 -1.4374  0.3848  0.6243
14724TIP3    H265664   5.403   4.560   5.734 -2.1631  1.1923  0.7791
14725TIP3   OH265665   0.017   4.839  14.874 -0.2876 -0.3313  0.4043
14725TIP3    H165666  -0.023   4.911  14.924  0.7256  1.3977 -1.1329
14725TIP3    H265667  -0.049   4.817  14.808 -0.2554 -0.1954  0.3256
14726TIP3   OH265668   2.709   1.630  13.498 -0.5539 -0.2962 -0.5089
14726TIP3    H165669   2.719   1.548  13.448  0.6171  0.1834 -1.0879
14726TIP3    H265670   2.719   1.604  13.589 -1.4026 -0.9762 -0.5914
14727TIP3   OH265671   4.530   3.329  11.473 -0.0973  0.4986  0.5099
14727TIP3    H165672   4.616   3.346  11.511 -0.3778  0.1761  1.3040
14727TIP3    H265673   4.487   3.415  11.470  0.0780  0.5870  0.5385
14728TIP3   OH265674   0.818   1.087  16.809 -0.4070 -0.0102  0.0434
14728TIP3    H165675   0.863   1.086  16.893 -0.9770 -1.8545  0.3699
14728TIP3    H265676   0.793   0.996  16.793  1.5510 -0.1666 -3.1768
14729TIP3   OH265677   6.093   5.499   2.462  0.0789 -0.0956 -0.0517
14729TIP3    H165678   6.073   5.489   2.555  1.3821 -1.1932  0.1490
14729TIP3    H265679   6.148   5.424   2.441 -1.1771 -0.5558 -2.0284
14730TIP3   OH265680   6.011   5.729  13.035 -0.2562  0.3885  0.7774
14730TIP3    H165681   5.937   5.669  13.023  0.5190 -0.1460 -2.0090
14730TIP3    H265682   6.088   5.676  13.014  0.5432  1.9724 -0.4636
14731TIP3   OH265683   1.394   0.073   5.573 -0.0941 -0.7331  0.3758
14731TIP3    H165684   1.464   0.025   5.528  0.4150  0.4076 -0.0789
14731TIP3    H265685   1.439   0.122   5.642 -0.3192  0.5222 -0.3317
14732TIP3   OH265686   0.991   0.406   1.584  0.2309  0.1868 -0.3894
14732TIP3    H165687   0.966   0.443   1.669 -1.3411  0.9894 -1.1549
14732TIP3    H265688   0.941   0.324   1.578  0.2277  0.2046 -0.6121
14733TIP3   OH265689   2.322   2.802  14.179  0.1538 -0.5513  0.1811
14733TIP3    H165690   2.287   2.850  14.104 -0.4566 -1.9742 -0.4829
14733TIP3    H265691   2.293   2.851  14.256 -2.6085 -1.1669 -0.3635
14734TIP3   OH265692   0.685   0.262  13.039  0.4873 -0.3377 -0.3301
14734TIP3    H165693   0.616   0.325  13.018  1.0821  0.5767  0.3766
14734TIP3    H265694   0.645   0.203  13.103  0.9169  1.3876  1.6253
14735TIP3   OH265695   5.938   5.653   1.131  0.0613  0.2110  0.4916
14735TIP3    H165696   6.007   5.719   1.140  0.7485 -0.4090 -0.0879
14735TIP3    H265697   5.893   5.653   1.215 -1.2536  2.8143 -0.1001
14736TIP3   OH265698   4.704   5.822  17.133 -0.2644  0.1342 -0.1936
14736TIP3    H165699   4.744   5.743  17.097 -2.7797 -1.0339 -0.6641
14736TIP3    H265700   4.774   5.864  17.183  0.7654 -3.3745  1.6433
14737TIP3   OH265701   3.224   4.471  12.909  0.1837  0.1108 -0.1133
14737TIP3    H165702   3.298   4.487  12.850 -0.6121  1.3684 -0.8086
14737TIP3    H265703   3.167   4.411  12.860  0.8049 -1.0322  0.5089
14738TIP3   OH265704   0.941   1.661  15.124 -0.0162 -0.1205  0.5242
14738TIP3    H165705   0.887   1.618  15.190  0.4414 -0.6093  0.5921
14738TIP3    H265706   0.884   1.669  15.047 -0.0708 -0.9927  0.4627
14739TIP3   OH265707   3.632   6.252   5.070 -0.1365 -0.0631  0.0284
14739TIP3    H165708   3.654   6.163   5.044  1.7416  0.5560 -0.6522
14739TIP3    H265709   3.651   6.255   5.163  0.7682 -0.1119 -0.1473
14740TIP3   OH265710   6.443   5.204   5.759 -0.1731 -0.1549  0.1659
14740TIP3    H165711   6.508   5.269   5.784 -1.9143  1.5519  0.5485
14740TIP3    H265712   6.491   5.140   5.707  1.5466  1.6842 -0.6586
14741TIP3   OH265713   5.971   4.306  15.105  0.1133  0.4304  0.6463
14741TIP3    H165714   5.925   4.388  15.085 -0.9331 -0.4431 -0.7423
14741TIP3    H265715   5.906   4.252  15.150 -0.0394 -0.5248 -0.6427
14742TIP3   OH265716   0.991   1.117  13.783  0.4036  0.5866  0.1366
14742TIP3    H165717   0.948   1.059  13.846 -1.4432  0.8945 -0.7710
14742TIP3    H265718   1.009   1.197  13.832 -0.9578  0.7995  0.3356
14743TIP3   OH265719   4.375   5.679   4.453  0.1142  0.3075 -0.2782
14743TIP3    H165720   4.451   5.663   4.510 -1.5838 -0.7798  1.8037
14743TIP3    H265721   4.411   5.729   4.379  2.6563  0.7151  1.1179
14744TIP3   OH265722   2.858   4.657   3.564 -0.1884 -0.1891 -0.3886
14744TIP3    H165723   2.889   4.577   3.522 -0.8238 -0.8914  0.4515
14744TIP3    H265724   2.937   4.699   3.596  0.0371 -1.3515  0.6605
14745TIP3   OH265725   4.221   0.334   1.218  1.0756  0.1126 -0.4822
14745TIP3    H165726   4.197   0.243   1.233  0.7563  0.4592  1.3135
14745TIP3    H265727   4.272   0.358   1.296  0.0855  1.8194 -0.3185
14746TIP3   OH265728   5.875   1.329   3.744  0.1630  0.0899  0.3725
14746TIP3    H165729   5.884   1.247   3.791 -1.3390 -0.0130  0.5431
14746TIP3    H265730   5.917   1.314   3.660  1.1469 -0.3666  0.9325
14747TIP3   OH265731   6.160   0.434   4.048  0.1321 -0.0771 -0.5887
14747TIP3    H165732   6.242   0.477   4.024  0.3085  0.7776  1.3931
14747TIP3    H265733   6.174   0.342   4.025  2.8131 -0.5247  2.2767
14748TIP3   OH265734   5.748   3.435  11.549 -0.4266  0.5934 -0.3080
14748TIP3    H165735   5.716   3.434  11.459  1.9995  0.1466 -1.2153
14748TIP3    H265736   5.741   3.344  11.578  1.0574  0.2517 -0.9363
14749TIP3   OH265737   4.938   2.518  16.315 -0.0691  0.3898  0.3589
14749TIP3    H165738   4.952   2.521  16.409  1.3883 -0.8036  0.2143
14749TIP3    H265739   4.843   2.524  16.305 -0.3881 -1.0804  2.0051
14750TIP3   OH265740   4.052   4.075   4.958  0.1375 -0.1615  0.3050
14750TIP3    H165741   4.118   4.072   5.027 -0.6547 -0.6902  1.0627
14750TIP3    H265742   4.075   4.153   4.906 -0.2319  1.2865  2.1806
14751TIP3   OH265743   5.557   0.395   3.420 -0.3405 -0.7987  0.2940
14751TIP3    H165744   5.612   0.322   3.389  0.6538  0.4990 -1.1405
14751TIP3    H265745   5.488   0.403   3.355 -0.4573 -0.4730  0.4560
14752TIP3   OH265746   6.599   2.805   0.306  0.0633 -0.6411 -0.0295
14752TIP3    H165747   6.603   2.728   0.249  0.4590  0.4622 -1.5625
14752TIP3    H265748   6.641   2.776   0.387 -0.3229 -2.2048 -0.3400
14753TIP3   OH265749   0.994   2.171   4.725  0.2730  0.3464 -0.4189
14753TIP3    H165750   0.971   2.117   4.800 -1.0123  1.2134 -0.1554
14753TIP3    H265751   0.922   2.158   4.663  1.2841 -0.3105 -1.4966
14754TIP3   OH265752   1.296   4.822  12.772  0.5834  0.0727  0.6087
14754TIP3    H165753   1.351   4.895  12.803 -0.4728  0.1375  2.5031
14754TIP3    H265754   1.207   4.857  12.773  0.2240 -0.8017  0.1208
14755TIP3   OH265755   3.955   5.452   2.204 -0.3861  0.0014  0.5664
14755TIP3    H165756   3.927   5.379   2.149  1.7300 -0.1025 -0.4968
14755TIP3    H265757   3.874   5.489   2.239 -1.6645 -1.2319 -0.9468
14756TIP3   OH265758   6.039   0.193   0.270  0.0747 -0.4935 -0.1177
14756TIP3    H165759   5.969   0.184   0.205 -1.9990  2.6760  1.4762
14756TIP3    H265760   6.064   0.285   0.266  3.1688 -1.1913  0.4847
14757TIP3   OH265761   0.279   1.965  13.883  0.2268 -0.0955  0.0529
14757TIP3    H165762   0.324   1.988  13.803  0.2644 -0.6803 -0.1010
14757TIP3    H265763   0.345   1.921  13.937 -0.7364 -3.6315 -1.3355
14758TIP3   OH265764   3.537   6.008  14.420  0.8303  0.4626 -0.0154
14758TIP3    H165765   3.569   6.066  14.350  1.3255  0.2042 -0.0102
14758TIP3    H265766   3.560   6.054  14.501  1.0150  0.3706 -0.0147
14759TIP3   OH265767   3.346   1.959  12.023  0.1496  0.0236  0.3382
14759TIP3    H165768   3.266   2.005  12.049 -0.2319  0.4471 -1.4596
14759TIP3    H265769   3.417   2.019  12.043  0.1625 -0.7209  2.8318
14760TIP3   OH265770   5.230   1.292  16.653 -0.1041 -0.1701 -0.0266
14760TIP3    H165771   5.268   1.207  16.677 -0.1985 -0.4717 -0.9132
14760TIP3    H265772   5.139   1.272  16.629 -0.1069  0.1658 -0.3048
14761TIP3   OH265773   0.359   2.911  16.548 -0.0489 -0.5251  0.0721
14761TIP3    H165774   0.443   2.870  16.527 -0.0914 -0.2270 -0.7059
14761TIP3    H265775   0.379   2.971  16.620  1.1954  2.1659 -2.3126
14762TIP3   OH265776   1.097   5.712  10.628  0.4529 -0.4478 -0.3814
14762TIP3    H165777   1.034   5.640  10.622 -0.7334  0.6426 -1.8291
14762TIP3    H265778   1.068   5.775  10.562  0.9174  1.7748  1.3854
14763TIP3   OH265779   3.683   4.943   1.418 -0.3882  0.2203  0.3852
14763TIP3    H165780   3.615   4.957   1.352 -0.9391 -0.5617  0.7604
14763TIP3    H265781   3.747   4.887   1.375 -0.7314 -0.2642  0.4941
14764TIP3   OH265782   4.404   0.416   1.424 -0.1720  0.8757 -0.5679
14764TIP3    H165783   4.383   0.391   1.514 -1.0314 -0.9249 -1.2226
14764TIP3    H265784   4.473   0.355   1.397 -0.2153  1.1197 -1.2618
14765TIP3   OH265785   4.380   1.307  16.382  0.3522 -0.7209  0.3025
14765TIP3    H165786   4.464   1.354  16.388  1.7448 -2.9766 -0.2190
14765TIP3    H265787   4.367   1.269  16.469  0.4842 -1.3059  0.0759
14766TIP3   OH265788   1.117   4.659  13.262 -0.3788  0.3159 -0.2808
14766TIP3    H165789   1.103   4.682  13.170 -0.5920 -0.6395 -0.5000
14766TIP3    H265790   1.092   4.567  13.267  1.5248 -0.2120  0.2944
14767TIP3   OH265791   0.450   4.533  14.121 -0.2802  0.6967  0.6690
14767TIP3    H165792   0.491   4.620  14.121 -0.8149  1.0035 -1.4433
14767TIP3    H265793   0.356   4.552  14.128 -0.4408  0.3286 -0.4571
14768TIP3   OH265794   4.288   0.019  11.337 -0.1008  0.0369  0.1017
14768TIP3    H165795   4.252  -0.041  11.402 -0.4305 -0.9322 -0.9396
14768TIP3    H265796   4.213   0.044  11.283  0.0444  1.3683  0.4899
14769TIP3   OH265797   2.344   5.519   4.095  0.5734 -0.0784 -0.1696
14769TIP3    H165798   2.416   5.575   4.065 -0.6929  1.5102 -0.4203
14769TIP3    H265799   2.296   5.497   4.015 -0.1519  0.2814  0.1531
14770TIP3   OH265800   4.155   1.355   6.209  0.4961 -0.1240 -0.1060
14770TIP3    H165801   4.244   1.331   6.237  0.7691 -0.6821 -1.3570
14770TIP3    H265802   4.146   1.446   6.234  2.0259  0.4163 -1.3012
14771TIP3   OH265803   0.967   1.942   5.340 -0.0483 -0.2270 -0.1356
14771TIP3    H165804   0.946   1.880   5.409 -0.2643  0.1443  0.1311
14771TIP3    H265805   1.014   2.013   5.384 -0.9483  0.4299 -0.2231
14772TIP3   OH265806   6.383   0.278   0.974  0.1757 -0.7412 -0.0152
14772TIP3    H165807   6.315   0.288   0.907 -1.1848 -2.0003  1.0890
14772TIP3    H265808   6.453   0.229   0.930 -1.2740 -2.7408 -0.2129
14773TIP3   OH265809   0.479   6.204  16.970  0.3641  0.0598 -0.5781
14773TIP3    H165810   0.558   6.256  16.957  1.4712 -2.0581 -3.4119
14773TIP3    H265811   0.427   6.219  16.891 -0.1238 -1.6697 -0.6335
14774TIP3   OH265812   1.483   0.237   0.723  0.3056  0.2372  0.0298
14774TIP3    H165813   1.452   0.305   0.663 -1.5593  0.2922  0.9633
14774TIP3    H265814   1.413   0.171   0.723  0.0233  0.4459  2.4247
14775TIP3   OH265815   0.629   4.896  11.654 -0.0863 -0.1517 -0.3487
14775TIP3    H165816   0.643   4.980  11.611  0.6427 -0.7340 -1.3014
14775TIP3    H265817   0.568   4.849  11.597  0.2089 -0.5964 -0.3114
14776TIP3   OH265818   2.967   3.263  15.040  0.2258  0.0922  0.3582
14776TIP3    H165819   2.985   3.352  15.072 -0.1733  0.1003  0.5630
14776TIP3    H265820   2.872   3.260  15.028  0.0700 -0.7215  1.6225
14777TIP3   OH265821   4.732   2.551  15.999  0.1853  1.0192 -0.3837
14777TIP3    H165822   4.822   2.584  15.998  0.0226  1.4756 -0.3836
14777TIP3    H265823   4.725   2.495  15.922  0.6763  0.4112  0.0081
14778TIP3   OH265824   6.279   3.786  12.336  0.9267  0.4983 -0.9795
14778TIP3    H165825   6.370   3.771  12.312  0.8660 -1.5759 -0.1211
14778TIP3    H265826   6.247   3.700  12.366 -0.5363  1.7135  1.2642
14779TIP3   OH265827   3.621   0.695  16.298 -0.3444  0.7092  0.4221
14779TIP3    H165828   3.652   0.680  16.388  0.1045 -0.1916  0.1344
14779TIP3    H265829   3.579   0.781  16.301  1.3864  1.5884  1.0537
14780TIP3   OH265830   5.004   0.887   1.020  0.3110  0.2765  0.3339
14780TIP3    H165831   4.991   0.818   0.956  0.9683  0.6366 -0.1998
14780TIP3    H265832   5.082   0.861   1.069  0.5279  0.6009  0.1691
14781TIP3   OH265833   6.320   6.747   3.905 -0.2487 -0.4074  0.1482
14781TIP3    H165834   6.392   6.777   3.961 -0.2142  0.1314 -0.1730
14781TIP3    H265835   6.353   6.667   3.865 -0.3284 -0.8832  1.0051
14782TIP3   OH265836   5.237   1.409  17.103  0.5124  0.2293 -0.1297
14782TIP3    H165837   5.252   1.494  17.143 -0.0437  1.0918 -1.6691
14782TIP3    H265838   5.152   1.382  17.135  0.5410  0.4094  0.0996
14783TIP3   OH265839   2.877   5.599  15.924  0.0186 -0.1590 -0.3457
14783TIP3    H165840   2.831   5.679  15.950 -1.5751 -0.5942 -1.6553
14783TIP3    H265841   2.956   5.630  15.880 -0.7738  0.7440 -1.1918
14784TIP3   OH265842   4.700   2.027  16.166 -0.3078 -0.0359  0.0343
14784TIP3    H165843   4.606   2.040  16.173 -0.1293  1.6388 -0.1806
14784TIP3    H265844   4.713   1.983  16.083 -0.8590  0.5586 -0.3791
14785TIP3   OH265845   2.882   2.577  14.403  0.0852  0.5247  0.6537
14785TIP3    H165846   2.882   2.589  14.308  1.6594 -1.6368  0.2954
14785TIP3    H265847   2.904   2.663  14.437 -0.4832  1.3476 -0.9333
14786TIP3   OH265848   0.227   2.255  12.958 -0.2546 -0.3089  0.0742
14786TIP3    H165849   0.240   2.160  12.955  2.8839  0.0458 -2.4045
14786TIP3    H265850   0.217   2.281  12.867 -2.1331  1.7154  0.7707
14787TIP3   OH265851   0.107   6.116   0.874 -0.0730 -0.0158 -0.4877
14787TIP3    H165852   0.014   6.098   0.890 -0.4387  0.9945 -1.2946
14787TIP3    H265853   0.134   6.168   0.950  0.3973 -1.9836  0.7420
14788TIP3   OH265854   1.866   1.759  16.568  0.1750 -0.5890 -0.5334
14788TIP3    H165855   1.868   1.759  16.663 -1.8617  0.6655 -0.4441
14788TIP3    H265856   1.870   1.852  16.544 -1.6809 -0.7246 -1.5404
14789TIP3   OH265857   1.450   1.095  11.659 -0.3720 -0.2659  0.1205
14789TIP3    H165858   1.407   1.051  11.732 -0.0887  0.0411  0.4722
14789TIP3    H265859   1.534   1.124  11.694  1.7554 -3.8871 -1.4592
14790TIP3   OH265860   6.222   4.588   1.621  0.1596  0.7532  0.5148
14790TIP3    H165861   6.129   4.605   1.605 -0.2987  0.4599  2.5528
14790TIP3    H265862   6.257   4.673   1.649 -0.1311  0.3333  2.2659
14791TIP3   OH265863   3.534   6.501   3.275 -0.0097 -0.1003  0.8065
14791TIP3    H165864   3.577   6.510   3.190 -0.9675  0.5579  0.3762
14791TIP3    H265865   3.444   6.531   3.260  0.2780  1.8272  2.4718
14792TIP3   OH265866   2.161   1.072   1.725 -0.1479  0.0220  0.2958
14792TIP3    H165867   2.172   1.147   1.783 -1.7216  0.9915 -0.6067
14792TIP3    H265868   2.250   1.037   1.714  0.1737 -0.4926  3.5850
14793TIP3   OH265869   3.242   0.034  11.608 -0.1113 -0.6306 -0.6858
14793TIP3    H165870   3.322   0.011  11.560  1.3438  0.9853  0.8395
14793TIP3    H265871   3.230   0.127  11.590 -0.5080 -0.4046  0.6779
14794TIP3   OH265872   4.253   3.052   4.888  0.2852  0.0605 -0.1960
14794TIP3    H165873   4.197   3.089   4.956  0.6315 -1.0732  0.7365
14794TIP3    H265874   4.210   3.075   4.806 -1.5791 -0.8165  0.4780
14795TIP3   OH265875   0.148   1.627  11.757 -0.1412 -0.4441 -0.7160
14795TIP3    H165876   0.076   1.621  11.693  0.2547  0.6312 -1.2991
14795TIP3    H265877   0.173   1.536  11.774  1.3511 -0.8168 -3.9896
14796TIP3   OH265878   6.565   3.452  13.867  0.2238 -0.5485 -0.4930
14796TIP3    H165879   6.654   3.489  13.875  0.2953 -0.7647 -0.2445
14796TIP3    H265880   6.510   3.514  13.914  0.0257  0.3221 -1.8546
14797TIP3   OH265881   0.210   3.532   3.696 -0.3783 -0.1834 -0.0821
14797TIP3    H165882   0.181   3.585   3.770 -1.5093 -1.4432  0.4134
14797TIP3    H265883   0.209   3.442   3.728 -1.2065 -0.8056 -1.7125
14798TIP3   OH265884   5.665   6.030   1.858 -0.5383 -0.0999  0.4478
14798TIP3    H165885   5.617   5.949   1.877  0.5006 -0.5119  1.3887
14798TIP3    H265886   5.686   6.023   1.765 -1.4964 -0.3385  0.2373
14799TIP3   OH265887   1.471   0.559   3.445 -0.1677 -0.2893 -0.4901
14799TIP3    H165888   1.558   0.590   3.421  0.3045 -1.9672 -1.0211
14799TIP3    H265889   1.482   0.517   3.529 -0.4399 -0.6320 -0.6228
14800TIP3   OH265890   0.400   0.555  14.140 -0.2630  0.1954  0.3750
14800TIP3    H165891   0.352   0.493  14.196 -0.9396 -1.2062 -1.6175
14800TIP3    H265892   0.492   0.533  14.153 -0.2889  0.9300  2.0380
14801TIP3   OH265893   2.910   0.201   6.037  0.4089 -0.2265 -0.0377
14801TIP3    H165894   2.880   0.173   5.951 -1.4006  0.3426  0.3708
14801TIP3    H265895   2.930   0.120   6.083  2.8419 -0.4991 -1.4313
14802TIP3   OH265896   4.784   3.485   4.105 -0.1047 -0.2200  0.2117
14802TIP3    H165897   4.733   3.555   4.144 -1.9119 -0.4810 -1.4783
14802TIP3    H265898   4.800   3.424   4.176  1.2303  1.6881  1.6439
14803TIP3   OH265899   5.203   4.394   0.974 -0.0125  0.3557 -0.4884
14803TIP3    H165900   5.110   4.396   0.950 -0.0976 -0.0355 -0.1935
14803TIP3    H265901   5.206   4.435   1.060  0.1822  0.9895 -0.7900
14804TIP3   OH265902   6.687   5.613   0.256 -0.3599 -0.2641 -0.5760
14804TIP3    H165903   6.617   5.677   0.243 -0.4115 -0.2468 -0.2455
14804TIP3    H265904   6.767   5.658   0.231 -0.4388 -0.2003 -0.7140
14805TIP3   OH265905   0.485   3.765  11.308  0.7342 -0.3169 -0.3624
14805TIP3    H165906   0.414   3.759  11.371  1.1813  1.0930  0.3410
14805TIP3    H265907   0.449   3.730  11.227  0.4831 -3.2459  0.8875
14806TIP3   OH265908   2.140   2.722  10.723  0.5593  0.1114 -0.4815
14806TIP3    H165909   2.090   2.655  10.677  0.3262 -0.4730  0.5946
14806TIP3    H265910   2.110   2.805  10.684 -0.7260 -0.2709 -0.3415
14807TIP3   OH265911   6.442   6.642   3.250  0.1756 -0.2330 -0.4653
14807TIP3    H165912   6.448   6.685   3.335 -1.8997 -1.9850  0.6638
14807TIP3    H265913   6.350   6.654   3.224  0.6961  0.0028 -2.3369
14808TIP3   OH265914   5.087   1.459  16.212  0.1463 -0.5427  0.6018
14808TIP3    H165915   5.088   1.376  16.260  0.3751 -0.3541  0.9254
14808TIP3    H265916   5.062   1.525  16.278  2.7383  0.0774  1.0728
14809TIP3   OH265917   5.998   6.374   0.902 -0.1323  0.2460  0.4135
14809TIP3    H165918   5.927   6.417   0.854  1.6254 -0.4703 -3.1523
14809TIP3    H265919   6.062   6.443   0.916 -0.6616  0.4621  1.8755
14810TIP3   OH265920   0.356   3.638  13.953 -0.0607 -0.5134 -0.2057
14810TIP3    H165921   0.293   3.679  13.894  0.0710 -0.9805 -0.6787
14810TIP3    H265922   0.361   3.547  13.924  1.0780 -0.4056 -0.3932
14811TIP3   OH265923   2.830   2.574  15.451  0.0485  0.0516 -0.6900
14811TIP3    H165924   2.921   2.548  15.436 -0.4200 -2.4711  0.2503
14811TIP3    H265925   2.829   2.608  15.540 -0.0692 -0.9054 -0.3106
14812TIP3   OH265926   2.254   2.256  16.098  0.0802  0.2178 -0.6053
14812TIP3    H165927   2.219   2.344  16.094 -0.4141  0.0024 -1.2133
14812TIP3    H265928   2.193   2.203  16.047 -1.0917 -0.9918  1.8858
14813TIP3   OH265929   4.662   1.600  13.466 -0.4218  0.4438  0.3671
14813TIP3    H165930   4.650   1.598  13.371  1.3834  1.3276  0.0854
14813TIP3    H265931   4.599   1.535  13.499 -2.2288  1.2681 -1.2608
14814TIP3   OH265932   0.920   4.780  15.494  0.4860 -0.1132 -0.0135
14814TIP3    H165933   0.894   4.774  15.586  0.2249  1.4973  0.0555
14814TIP3    H265934   0.928   4.689  15.465  1.2568 -0.6598  1.7720
14815TIP3   OH265935   4.810   2.782   1.235 -0.1911  0.0716  0.0615
14815TIP3    H165936   4.863   2.738   1.168  0.1546  0.8133 -0.1614
14815TIP3    H265937   4.859   2.862   1.255 -0.3240 -0.1066  1.1523
14816TIP3   OH265938   3.396   6.802   1.121  0.0683 -0.1900 -0.1000
14816TIP3    H165939   3.355   6.880   1.159  1.0016  0.8555 -1.1546
14816TIP3    H265940   3.404   6.741   1.194  0.0677  1.0212  0.9457
14817TIP3   OH265941   4.861   0.853   5.328  0.4413 -0.1063 -0.4650
14817TIP3    H165942   4.842   0.815   5.242  0.8029  0.6926 -0.9012
14817TIP3    H265943   4.780   0.841   5.378  0.0388 -0.0496 -1.1013
14818TIP3   OH265944   2.247   3.038   6.146  0.3216  0.2838 -0.1506
14818TIP3    H165945   2.168   2.997   6.110 -0.8202  1.3505  1.0202
14818TIP3    H265946   2.299   2.965   6.179  0.4353 -0.5377 -2.0510
14819TIP3   OH265947   3.514   2.646  15.770 -0.0943 -0.2233 -0.3933
14819TIP3    H165948   3.592   2.598  15.797  0.2498  0.4726 -0.1557
14819TIP3    H265949   3.544   2.707  15.703 -0.1642  1.0165  0.6729
14820TIP3   OH265950   4.860   1.600  12.357  0.6091  0.5672  0.2242
14820TIP3    H165951   4.810   1.565  12.431  0.8899  1.4466  0.8444
14820TIP3    H265952   4.799   1.659  12.313  0.6165  0.4641  0.0763
14821TIP3   OH265953   1.421   3.804  16.541  0.6840  0.3274  0.0259
14821TIP3    H165954   1.438   3.761  16.625  1.1176 -1.6134 -0.9961
14821TIP3    H265955   1.508   3.832  16.510  0.4985  1.2569  0.2975
14822TIP3   OH265956   1.303   1.013  11.852  0.4135 -0.3538 -0.0628
14822TIP3    H165957   1.332   1.014  11.943  1.1845  0.1230 -0.3049
14822TIP3    H265958   1.224   1.067  11.852  1.3055  0.9832  0.0474
14823TIP3   OH265959   3.220   0.322   5.291  0.4110  0.0484  0.0034
14823TIP3    H165960   3.218   0.248   5.230 -0.4943  1.7587 -2.1806
14823TIP3    H265961   3.161   0.297   5.362 -1.2934 -0.6399 -1.5888
14824TIP3   OH265962   3.082   1.326   0.427 -0.3145 -0.0820 -0.6021
14824TIP3    H165963   3.029   1.383   0.371 -0.4814  0.6284  0.2467
14824TIP3    H265964   3.158   1.304   0.374 -0.2001  1.0166 -0.9233
14825TIP3   OH265965   0.543   5.329  17.148 -0.3277 -0.6502 -0.8332
14825TIP3    H165966   0.521   5.245  17.188  0.0135  0.0123  0.8142
14825TIP3    H265967   0.485   5.334  17.071 -1.5651 -1.6392 -0.0134
14826TIP3   OH265968   2.726   3.323   4.347  0.4240  0.3048 -0.4596
14826TIP3    H165969   2.660   3.391   4.339  0.4839  0.4047 -0.1371
14826TIP3    H265970   2.688   3.246   4.304 -0.8378 -0.3072  1.5917
14827TIP3   OH265971   5.095   0.967   2.336  0.2838  0.2285  0.0693
14827TIP3    H165972   5.007   0.994   2.310 -0.4284 -1.2457  0.7877
14827TIP3    H265973   5.128   1.040   2.388 -0.5075  0.8153 -0.2308
14828TIP3   OH265974   5.994   1.992  15.795  0.6181  0.1492  0.3442
14828TIP3    H165975   6.048   1.923  15.832 -0.5824 -1.9027 -1.4749
14828TIP3    H265976   5.907   1.977  15.832 -0.1355 -0.7129 -1.6043
14829TIP3   OH265977   2.101   6.513  13.137  0.3960  0.2153  0.1793
14829TIP3    H165978   2.157   6.450  13.091 -0.2086  0.8936 -1.5773
14829TIP3    H265979   2.023   6.463  13.161  0.0826  0.1767 -0.8759
14830TIP3   OH265980   2.901   2.366  16.888  0.5118  0.0347  0.3463
14830TIP3    H165981   2.990   2.367  16.922  1.7525 -0.5413 -2.5469
14830TIP3    H265982   2.897   2.441  16.828 -1.7019  1.3186  1.9538
14831TIP3   OH265983   0.607   4.024   0.055 -0.0142  0.2009 -0.5114
14831TIP3    H165984   0.532   4.082   0.065 -0.6753 -0.3029 -2.2077
14831TIP3    H265985   0.572   3.945   0.015  1.0634 -0.9536  0.7300
14832TIP3   OH265986   4.087   0.260   5.594  0.3929  0.0080 -0.1110
14832TIP3    H165987   4.009   0.305   5.563  1.2812  1.1265 -0.8113
14832TIP3    H265988   4.149   0.330   5.616  0.7351 -0.8241  1.7170
14833TIP3   OH265989   2.425   5.271   1.519 -0.0241  0.2108  0.5596
14833TIP3    H165990   2.354   5.212   1.494  0.3244 -0.2438  0.6240
14833TIP3    H265991   2.471   5.290   1.437 -1.2048  1.8468  0.2388
14834TIP3   OH265992   1.214   4.420  15.531  0.3071 -0.2828 -0.1093
14834TIP3    H165993   1.201   4.335  15.574 -1.1211 -0.1363 -0.2147
14834TIP3    H265994   1.259   4.473  15.597 -2.7944  0.2830  1.7414
14835TIP3   OH265995   3.742   3.135   0.841  0.2465  0.0893 -0.3967
14835TIP3    H165996   3.760   3.204   0.905  1.2113 -0.7209  0.2449
14835TIP3    H265997   3.705   3.181   0.766 -0.5587  1.1111  0.5894
14836TIP3   OH265998   5.616   4.495  13.004 -0.0418 -0.1071 -0.0080
14836TIP3    H165999   5.562   4.421  12.978 -0.1637 -0.3341  0.8703
14836TIP3    H266000   5.581   4.523  13.088  1.0495 -0.1073  0.4659
14837TIP3   OH266001   5.389   0.049   1.230  0.9663 -0.5615 -0.1523
14837TIP3    H166002   5.393   0.144   1.238  0.1372 -0.3449 -1.8273
14837TIP3    H266003   5.472   0.024   1.189  0.3310 -0.2820 -1.6707
14838TIP3   OH266004   1.997   2.284  11.096 -0.1411  0.0928 -0.1282
14838TIP3    H166005   2.033   2.360  11.140  0.9805 -0.9908  0.8849
14838TIP3    H266006   1.904   2.285  11.119  0.2662 -0.0010  1.6401
14839TIP3   OH266007   5.547   4.243   0.704 -0.1384 -0.5521 -0.1131
14839TIP3    H166008   5.627   4.220   0.752  0.3677  0.3087 -0.5274
14839TIP3    H266009   5.476   4.203   0.755  0.5375 -1.2135  0.3337
14840TIP3   OH266010   0.079   3.695   1.236 -0.4439 -0.0541  0.5539
14840TIP3    H166011   0.106   3.658   1.320  0.7602  1.2564  0.7790
14840TIP3    H266012  -0.001   3.647   1.214 -1.1711  0.0132  2.7577
14841TIP3   OH266013   3.771   6.383   5.642 -0.0798  0.4909 -0.2014
14841TIP3    H166014   3.788   6.476   5.627 -0.7671  0.6459 -0.0585
14841TIP3    H266015   3.807   6.366   5.729  0.4680  0.5081 -0.4234
14842TIP3   OH266016   1.115   4.783   5.555 -0.4311 -0.3086  0.5420
14842TIP3    H166017   1.136   4.877   5.554  0.9088 -0.5863  1.1212
14842TIP3    H266018   1.106   4.761   5.462  0.6639  0.1154  0.3093
14843TIP3   OH266019   5.378   5.135   4.359  0.0847 -0.5455 -0.4264
14843TIP3    H166020   5.365   5.224   4.390 -1.1300 -0.6737 -0.5206
14843TIP3    H266021   5.291   5.095   4.364  0.8507 -2.1383  0.8918
14844TIP3   OH266022   1.806   2.357  12.306  0.2456 -0.7485 -0.2034
14844TIP3    H166023   1.862   2.385  12.233  0.0888 -1.3503 -0.5585
14844TIP3    H266024   1.750   2.290  12.268 -0.7975 -0.0835  0.1148
14845TIP3   OH266025   0.507   6.068   3.575 -0.0823  0.3694  0.1880
14845TIP3    H166026   0.534   5.979   3.599 -0.0191  0.1842 -0.5553
14845TIP3    H266027   0.430   6.085   3.629 -1.8097 -1.2059 -1.6559
14846TIP3   OH266028   6.553   4.668   2.352  0.2457  0.3924  0.2466
14846TIP3    H166029   6.571   4.575   2.368  0.8359  0.4387 -0.1388
14846TIP3    H266030   6.520   4.670   2.262  2.4034  0.8130 -0.5982
14847TIP3   OH266031   3.016   2.115   2.203 -0.4512 -0.2037  0.5404
14847TIP3    H166032   3.048   2.183   2.262 -2.3935 -0.6742  2.2469
14847TIP3    H266033   3.071   2.039   2.223 -0.7609 -0.2118  1.4169
14848TIP3   OH266034   1.764   6.346   0.585 -0.0519 -0.2013 -0.3602
14848TIP3    H166035   1.760   6.412   0.516  1.2395 -0.1541 -0.4162
14848TIP3    H266036   1.844   6.367   0.634  1.1148 -2.4715 -1.1673
14849TIP3   OH266037   5.689   2.832   0.463  0.4529  0.2518  0.3460
14849TIP3    H166038   5.721   2.909   0.415  0.0187 -0.6597 -1.5336
14849TIP3    H266039   5.607   2.810   0.419 -1.7386  1.1990  3.5947
14850TIP3   OH266040   1.934   2.075   3.065 -0.6181 -0.3537 -0.8578
14850TIP3    H166041   1.848   2.032   3.068 -1.0219  0.4525 -0.1177
14850TIP3    H266042   1.920   2.152   3.009 -0.8652  0.7089  0.5784
14851TIP3   OH266043   3.083   1.116  13.557  0.2925 -0.4672 -0.5041
14851TIP3    H166044   3.014   1.095  13.495  1.3837  0.8204 -2.2546
14851TIP3    H266045   3.091   1.037  13.612 -2.2360 -0.7836 -0.4847
14852TIP3   OH266046   4.279   1.738   4.080  0.3485 -0.4823  0.3952
14852TIP3    H166047   4.369   1.704   4.075  0.8024  0.7982 -2.3456
14852TIP3    H266048   4.289   1.827   4.111  0.7449  1.2316 -3.8801
14853TIP3   OH266049   0.047   1.354   4.076  0.0020  0.1854  0.6085
14853TIP3    H166050   0.063   1.383   3.986 -1.9967 -0.9263 -0.1831
14853TIP3    H266051   0.003   1.429   4.117 -1.1973 -0.0977 -0.0947
14854TIP3   OH266052   5.248   5.569   2.046  0.1374 -0.2062  1.0699
14854TIP3    H166053   5.337   5.544   2.020 -0.3131 -2.0475  1.1445
14854TIP3    H266054   5.192   5.501   2.008 -1.0334 -0.1727  2.6337
14855TIP3   OH266055   1.615   5.474  13.958 -0.0928  0.2501  0.0744
14855TIP3    H166056   1.534   5.526  13.954  0.7261  1.5006 -1.5652
14855TIP3    H266057   1.661   5.496  13.877  2.2471  0.1327  1.3136
14856TIP3   OH266058   5.615   4.060  12.787  0.4699 -0.0349 -0.1400
14856TIP3    H166059   5.593   3.993  12.852 -1.1193  2.4160  2.0697
14856TIP3    H266060   5.540   4.063  12.728  1.6993 -1.9161 -1.9253
14857TIP3   OH266061   5.852   0.343  16.157 -0.4344 -0.0376 -0.3066
14857TIP3    H166062   5.901   0.278  16.107 -1.1241 -0.7411 -0.0979
14857TIP3    H266063   5.762   0.310  16.156 -0.3492 -0.5808  2.1339
14858TIP3   OH266064   0.509   4.183   0.600 -0.0401  0.4632  0.5465
14858TIP3    H166065   0.499   4.088   0.607  0.9314  0.0063 -2.6258
14858TIP3    H266066   0.463   4.205   0.519  0.3646  2.6151  0.8532
14859TIP3   OH266067   4.548   3.490  14.878  0.1345  0.1647 -0.2468
14859TIP3    H166068   4.532   3.424  14.810  0.3027 -1.5344  1.2730
14859TIP3    H266069   4.469   3.488  14.932  0.4638  0.6380  0.2691
14860TIP3   OH266070   4.026   4.793   0.249  0.6424  0.5045  0.4610
14860TIP3    H166071   4.092   4.726   0.234  0.2920  0.1443  0.5288
14860TIP3    H266072   4.051   4.831   0.334  1.3496  1.0656  0.0141
14861TIP3   OH266073   1.393   0.512   4.085 -0.4381 -0.4030  0.0220
14861TIP3    H166074   1.426   0.570   4.016  0.8031  0.8698  1.6067
14861TIP3    H266075   1.466   0.452   4.102 -1.1074 -1.3644 -0.4423
14862TIP3   OH266076   2.235   4.254  12.962 -0.5204  0.1796 -0.1770
14862TIP3    H166077   2.154   4.274  12.917 -1.4827 -1.7830  0.5802
14862TIP3    H266078   2.228   4.300  13.046 -0.4699  0.6626 -0.4335
14863TIP3   OH266079   4.135   1.506   0.459  0.1499  0.0304 -0.0287
14863TIP3    H166080   4.185   1.442   0.408 -0.5345 -0.2834 -0.3070
14863TIP3    H266081   4.163   1.591   0.425 -1.3323 -0.1890 -1.9354
14864TIP3   OH266082   5.546   1.405   1.425 -0.2339  0.0077 -0.0374
14864TIP3    H166083   5.451   1.406   1.431 -0.2370 -0.8281  0.0787
14864TIP3    H266084   5.576   1.440   1.509 -0.4367  1.1229 -0.4113
14865TIP3   OH266085   3.128   4.060  15.038  0.3226  0.4768 -0.1919
14865TIP3    H166086   3.126   4.153  15.017 -0.3208  0.3556 -0.7122
14865TIP3    H266087   3.057   4.022  14.985  0.0945 -0.1893  0.5689
14866TIP3   OH266088   4.008   6.222  13.316 -0.0027 -0.5515 -0.3448
14866TIP3    H166089   4.062   6.156  13.273  0.1381  0.4418 -1.7637
14866TIP3    H266090   3.994   6.289  13.249 -0.4996  0.6506  0.9055
14867TIP3   OH266091   0.167   3.657   6.582 -0.3133 -0.1452  0.1805
14867TIP3    H166092   0.241   3.645   6.643 -1.1170 -0.6180  1.0870
14867TIP3    H266093   0.194   3.730   6.526  1.0824 -0.6654  0.1246
14868TIP3   OH266094   0.092   1.235   6.338 -0.0162 -0.4862 -1.2251
14868TIP3    H166095   0.007   1.219   6.377  0.6214 -1.2512 -0.0797
14868TIP3    H266096   0.148   1.260   6.412  0.9852 -0.9475 -1.8013
14869TIP3   OH266097   4.019   5.329   1.249  0.2409 -0.1476  0.5076
14869TIP3    H166098   3.966   5.285   1.183  1.1299  0.1695 -0.4476
14869TIP3    H266099   3.978   5.306   1.332 -0.3796 -1.2839 -0.0899
14870TIP3   OH266100   0.561   3.512   4.006  0.1683  0.5030 -0.2801
14870TIP3    H166101   0.502   3.509   4.081  0.7221  0.4745  0.1615
14870TIP3    H266102   0.575   3.420   3.984 -0.0447  0.5128 -0.4648
14871TIP3   OH266103   3.274   5.609  14.340  1.4366  0.7486  0.8200
14871TIP3    H166104   3.211   5.612  14.268  0.9181 -0.7757  1.1527
14871TIP3    H266105   3.266   5.693  14.384 -0.5798  0.5127  0.9897
14872TIP3   OH266106   6.570   6.216   3.425 -0.1244 -0.2783 -0.4285
14872TIP3    H166107   6.647   6.216   3.368  1.0509  0.3992  1.0957
14872TIP3    H266108   6.526   6.132   3.406  2.7063 -2.2018  0.8393
14873TIP3   OH266109   5.561   4.468   2.632 -0.4083 -0.1724 -0.1175
14873TIP3    H166110   5.549   4.378   2.601 -0.8989 -0.5389  1.0806
14873TIP3    H266111   5.649   4.491   2.603 -1.0841 -0.2193 -2.3627
14874TIP3   OH266112   5.808   6.202  16.558 -0.0709  0.5004 -0.3357
14874TIP3    H166113   5.853   6.252  16.490  1.8423  1.2715  1.3861
14874TIP3    H266114   5.876   6.147  16.596 -1.0311  0.2497  1.0894
14875TIP3   OH266115   4.944   5.455   4.948  0.0659  0.0314  0.1878
14875TIP3    H166116   4.992   5.487   5.025 -1.8199  0.2787  1.3395
14875TIP3    H266117   4.916   5.367   4.973  1.6064 -0.9343 -1.2882
14876TIP3   OH266118   6.024   3.626   4.013  0.2700 -0.2155 -0.0884
14876TIP3    H166119   6.116   3.626   4.039 -0.1312 -1.2908  1.4813
14876TIP3    H266120   6.025   3.593   3.923  1.4550  0.3219 -0.2930
14877TIP3   OH266121   2.932   0.328  15.555 -0.4648  0.1002 -0.5456
14877TIP3    H166122   2.984   0.348  15.476  0.3976 -0.9148 -0.2604
14877TIP3    H266123   2.957   0.397  15.617  0.1016 -0.0356 -0.6126
14878TIP3   OH266124   5.178   3.432   3.752  0.1874  0.0467 -0.4337
14878TIP3    H166125   5.269   3.437   3.722  0.0304  2.0724 -0.7351
14878TIP3    H266126   5.133   3.385   3.682  0.5112  1.5723 -1.7518
14879TIP3   OH266127   0.423   2.895  14.634 -0.7555  0.1636 -0.2250
14879TIP3    H166128   0.512   2.866  14.657 -0.2808  1.1234 -0.7745
14879TIP3    H266129   0.404   2.966  14.696 -0.4884  1.0316 -1.1101
14880TIP3   OH266130   5.721   1.292   2.000 -0.0592 -0.1260 -0.3747
14880TIP3    H166131   5.749   1.307   1.909  0.5961  0.6702 -0.0567
14880TIP3    H266132   5.716   1.379   2.038 -0.3811 -0.4547  0.3428
14881TIP3   OH266133   1.416   1.462  14.605 -0.0781  0.3218  0.3371
14881TIP3    H166134   1.340   1.506  14.567 -0.8833 -2.0952 -1.0840
14881TIP3    H266135   1.398   1.458  14.699 -2.0799 -0.7671 -0.0370
14882TIP3   OH266136   5.503   0.776  12.519  0.2252  0.1142  0.1488
14882TIP3    H166137   5.526   0.802  12.608 -1.0570  0.2722  0.4402
14882TIP3    H266138   5.507   0.681  12.520 -1.2338  0.0493  0.7857
14883TIP3   OH266139   1.932   0.261  12.710 -0.1113  0.7430  0.6112
14883TIP3    H166140   1.984   0.305  12.777  2.5369  0.1808 -0.9422
14883TIP3    H266141   1.980   0.277  12.628 -2.4525  0.2268 -0.9625
14884TIP3   OH266142   2.058   2.537  11.841  0.0993 -0.3439  0.4081
14884TIP3    H166143   2.039   2.621  11.883 -0.1217  0.1289 -0.6009
14884TIP3    H266144   2.116   2.559  11.768  0.1219 -1.0896  0.1899
14885TIP3   OH266145   6.785   6.329   0.338  0.0873  0.6568 -0.4817
14885TIP3    H166146   6.767   6.419   0.365  1.2272  0.5544  0.6660
14885TIP3    H266147   6.848   6.338   0.266  0.2164  0.7662 -0.3536
14886TIP3   OH266148   3.912   4.954   5.066  0.3670 -0.2803  1.0903
14886TIP3    H166149   3.996   5.000   5.061  0.9657 -1.3277  1.0920
14886TIP3    H266150   3.936   4.861   5.073 -0.8074 -0.7972 -0.8585
14887TIP3   OH266151   2.667   0.193  12.081  0.9059 -0.6273  0.6036
14887TIP3    H166152   2.739   0.242  12.121  0.2810  2.0050 -1.2438
14887TIP3    H266153   2.709   0.132  12.020  1.6381  1.0606 -0.6508
14888TIP3   OH266154   1.439   4.620  15.093 -0.2949  0.4598 -0.0414
14888TIP3    H166155   1.346   4.618  15.073 -0.4157 -0.8203  0.5329
14888TIP3    H266156   1.445   4.588  15.183  0.7067  0.4351 -0.1002
14889TIP3   OH266157   2.418   6.064  17.144  0.2663 -0.1431  0.0424
14889TIP3    H166158   2.407   6.064  17.239 -1.8192  1.7291 -0.1244
14889TIP3    H266159   2.418   6.157  17.120 -1.4178 -0.5958 -1.9676
14890TIP3   OH266160   6.225   5.801  10.939 -0.0289  0.7145  0.2514
14890TIP3    H166161   6.283   5.827  11.010 -0.0266  0.2688  0.4131
14890TIP3    H266162   6.255   5.714  10.913 -0.7086  0.4158  0.4292
14891TIP3   OH266163   2.543   2.767  15.433  0.2105 -0.1674  0.8775
14891TIP3    H166164   2.535   2.696  15.496 -2.3823 -0.6218  0.1266
14891TIP3    H266165   2.570   2.843  15.486  0.3115 -1.0624  2.1415
14892TIP3   OH266166   4.174   0.089  17.036  0.4787 -0.2574  0.5879
14892TIP3    H166167   4.213   0.020  17.090 -0.1860  0.3590  1.8829
14892TIP3    H266168   4.214   0.170  17.067 -0.0445  0.1262  0.2767
14893TIP3   OH266169   6.296   2.539  13.951  0.6337  0.0035  0.1384
14893TIP3    H166170   6.349   2.566  13.876 -3.0181  0.7839 -2.4645
14893TIP3    H266171   6.286   2.445  13.941  0.9956 -0.0499  0.2678
14894TIP3   OH266172   1.108   0.081  16.180 -0.5037 -0.6428 -0.0277
14894TIP3    H166173   1.063   0.019  16.237 -0.4995  0.3741  1.1306
14894TIP3    H266174   1.192   0.041  16.161 -0.5152 -1.0079  0.6830
14895TIP3   OH266175   0.907   5.013  11.621 -0.1745  0.0119  0.3525
14895TIP3    H166176   0.834   4.965  11.660 -0.9730  0.4884 -0.5030
14895TIP3    H266177   0.984   4.985  11.670 -1.2231  1.2779  2.9070
14896TIP3   OH266178   2.209   5.903   1.604  0.2936  0.2081  0.2710
14896TIP3    H166179   2.211   5.998   1.599  2.6585  0.2038  0.0331
14896TIP3    H266180   2.230   5.883   1.696 -0.0589 -0.0885  0.2909
14897TIP3   OH266181   2.140   3.084   1.551 -0.0267  0.1563 -0.4208
14897TIP3    H166182   2.065   3.063   1.496 -0.3326  0.1084  0.0049
14897TIP3    H266183   2.161   3.001   1.594 -0.9758  0.5819  0.9474
14898TIP3   OH266184   2.127   0.600   4.218 -0.1966  0.7942 -0.1253
14898TIP3    H166185   2.081   0.603   4.302  1.2176  2.8098  0.6642
14898TIP3    H266186   2.194   0.533   4.229 -0.0248  1.0414  0.3769
14899TIP3   OH266187   0.539   0.681   2.314  0.0962 -0.2198 -0.6751
14899TIP3    H166188   0.542   0.774   2.337 -0.1282 -0.0367 -1.3550
14899TIP3    H266189   0.586   0.676   2.231  1.5437 -0.9790  0.1420
14900TIP3   OH266190   4.151   6.534   5.385 -0.2193  0.2542 -0.0169
14900TIP3    H166191   4.165   6.593   5.459 -0.1246  0.0984  0.0925
14900TIP3    H266192   4.214   6.561   5.319 -0.4436  0.5237 -0.1205
14901TIP3   OH266193   5.506   4.743  11.601  0.1389 -0.0735 -0.2881
14901TIP3    H166194   5.424   4.786  11.579 -0.4411 -1.6727 -1.4030
14901TIP3    H266195   5.573   4.796  11.559 -0.4761  0.3028 -0.8095
14902TIP3   OH266196   0.868   4.732   5.871  0.3245 -0.5060 -0.2756
14902TIP3    H166197   0.789   4.697   5.912  0.0703 -1.0182 -1.1722
14902TIP3    H266198   0.864   4.700   5.781  0.9575  0.4574 -0.6535
14903TIP3   OH266199   4.043   0.239   2.296  0.3380 -0.0131 -0.1258
14903TIP3    H166200   3.958   0.277   2.317 -0.4099  0.1831 -3.1128
14903TIP3    H266201   4.033   0.145   2.312 -0.6930 -0.0850 -1.1114
14904TIP3   OH266202   0.222   4.178  13.358  0.4528 -0.0982  0.8664
14904TIP3    H166203   0.126   4.180  13.359  0.4587  0.7021  1.7769
14904TIP3    H266204   0.247   4.268  13.334  0.9850 -0.5829 -0.4788
14905TIP3   OH266205   2.041   5.779   4.100 -0.4181  0.6804 -0.2965
14905TIP3    H166206   2.113   5.834   4.130  0.0852 -0.3948  0.5539
14905TIP3    H266207   2.082   5.718   4.039 -0.1392 -1.2356  1.6875
14906TIP3   OH266208   6.585   0.228  13.510  0.1010 -0.0374  0.0433
14906TIP3    H166209   6.535   0.170  13.452  1.0182  0.0423 -0.8518
14906TIP3    H266210   6.526   0.245  13.583  0.3727 -3.5352  1.2948
14907TIP3   OH266211   2.737   0.677  13.774 -0.2754 -0.1215 -0.7554
14907TIP3    H166212   2.723   0.590  13.811 -0.1422  0.3993  0.5828
14907TIP3    H266213   2.692   0.675  13.689  0.0764 -1.6078 -0.9333
14908TIP3   OH266214   4.841   3.840  14.405  0.2127 -0.5841  0.5213
14908TIP3    H166215   4.800   3.893  14.473  0.7518 -0.9667  1.1552
14908TIP3    H266216   4.882   3.767  14.453 -0.6879 -1.6918 -0.3404
14909TIP3   OH266217   3.192   5.465  16.038  0.0808 -0.5167 -0.2894
14909TIP3    H166218   3.172   5.558  16.046 -1.5617 -0.9299  0.7672
14909TIP3    H266219   3.284   5.458  16.063 -0.5990  0.4250  2.8387
14910TIP3   OH266220   0.012   2.998   3.636 -0.3154  0.5910 -0.1302
14910TIP3    H166221  -0.036   2.974   3.557 -0.3203 -0.4561  0.1757
14910TIP3    H266222   0.104   3.003   3.608 -0.0482 -1.6625  0.1480
14911TIP3   OH266223   5.621   3.724   6.290 -0.2856  0.3710 -0.1105
14911TIP3    H166224   5.566   3.803   6.283  1.1846  1.4603  0.1062
14911TIP3    H266225   5.563   3.658   6.327 -0.8959  2.1196  2.3421
14912TIP3   OH266226   6.259   4.774   4.443 -0.0053 -0.1002 -0.4778
14912TIP3    H166227   6.218   4.836   4.383 -2.9950 -0.4939  0.9218
14912TIP3    H266228   6.244   4.688   4.403  2.3664 -0.1002 -1.4633
14913TIP3   OH266229   4.194   0.260  12.864  0.1384  0.2259 -0.4189
14913TIP3    H166230   4.204   0.279  12.957 -1.0820  2.4912 -0.6881
14913TIP3    H266231   4.283   0.265  12.829  1.1690 -3.7870  0.9974
14914TIP3   OH266232   3.898   2.902   5.109 -0.2381  0.2306  0.2201
14914TIP3    H166233   3.942   2.819   5.090 -1.2434  0.0050 -1.3895
14914TIP3    H266234   3.881   2.940   5.022  0.1768  2.1247  0.9116
14915TIP3   OH266235   3.404   2.785   1.787  0.4474  0.2165  0.1606
14915TIP3    H166236   3.335   2.848   1.807  0.0292 -0.2262  0.1436
14915TIP3    H266237   3.364   2.724   1.725  1.1614  0.5180 -0.6092
14916TIP3   OH266238   5.253   2.814  13.137  0.1686 -0.0396 -0.4498
14916TIP3    H166239   5.311   2.877  13.094 -0.0541 -0.9413 -2.1690
14916TIP3    H266240   5.168   2.828  13.096  0.0216 -1.1583 -0.5637
14917TIP3   OH266241   1.295   5.182  15.949 -0.1445 -0.4976  0.0625
14917TIP3    H166242   1.381   5.190  15.990  0.3844 -1.8656 -0.7034
14917TIP3    H266243   1.263   5.096  15.978 -1.1478 -0.1169  0.1211
14918TIP3   OH266244   2.194   2.692   6.297  0.2297  0.0205  0.2390
14918TIP3    H166245   2.132   2.631   6.259  1.0089  0.2564 -1.4956
14918TIP3    H266246   2.141   2.768   6.322 -0.4327 -0.5192  0.5075
14919TIP3   OH266247   0.023   4.591  13.633  0.2126  0.1936  0.0246
14919TIP3    H166248   0.108   4.605  13.675  0.5954  0.9886 -0.9867
14919TIP3    H266249  -0.012   4.679  13.617  0.9853  0.0516 -3.0786
14920TIP3   OH266250   2.383   4.114   2.453  0.0711 -1.3428  0.0234
14920TIP3    H166251   2.428   4.161   2.383  1.7877 -1.8079  0.7457
14920TIP3    H266252   2.345   4.037   2.410 -1.1649 -0.2924 -0.8280
14921TIP3   OH266253   3.800   3.472  15.581 -0.2531 -0.5055  0.2019
14921TIP3    H166254   3.836   3.416  15.650  0.2725 -0.0304  0.3225
14921TIP3    H266255   3.729   3.421  15.543  0.3710 -1.3447  0.1451
14922TIP3   OH266256   3.914   2.256   6.576 -0.5812 -0.3566 -0.1955
14922TIP3    H166257   3.841   2.210   6.618  0.6537 -1.3317  0.9659
14922TIP3    H266258   3.992   2.212   6.609  0.5868  1.3255 -0.5936
14923TIP3   OH266259   1.852   5.040   0.108 -0.0443  0.2968 -0.3562
14923TIP3    H166260   1.916   4.992   0.159 -1.8212  0.8764  2.6811
14923TIP3    H266261   1.878   5.132   0.116 -0.9341  0.4899  0.4762
14924TIP3   OH266262   1.933   0.446   2.441 -0.4149  0.3060  1.1338
14924TIP3    H166263   1.901   0.431   2.531  0.7465 -2.4415  1.1981
14924TIP3    H266264   1.870   0.508   2.404 -2.2282 -0.1610  3.1509
14925TIP3   OH266265   4.775   0.500   5.028 -0.0849  0.0974 -0.0598
14925TIP3    H166266   4.842   0.436   5.007  0.1323  1.4371 -4.5983
14925TIP3    H266267   4.818   0.585   5.016 -2.0178  1.0051 -1.0530
14926TIP3   OH266268   2.360   3.879  11.626  0.4669 -0.1494  0.1543
14926TIP3    H166269   2.331   3.853  11.714 -0.9123  2.6552  0.6443
14926TIP3    H266270   2.283   3.921  11.588  1.4869 -0.0312 -1.8659
14927TIP3   OH266271   4.304   2.706   3.888 -0.2074  0.0675 -0.5663
14927TIP3    H166272   4.365   2.636   3.910  0.7385  0.4725 -1.7341
14927TIP3    H266273   4.297   2.758   3.968  0.0916 -0.6399 -0.0758
14928TIP3   OH266274   3.579   4.879  13.517  0.6431 -0.1887 -0.3388
14928TIP3    H166275   3.561   4.829  13.437  2.2809  0.0022 -0.8729
14928TIP3    H266276   3.495   4.915  13.543  0.1266  0.0115 -2.1774
14929TIP3   OH266277   4.441   6.187  14.061  0.5426 -0.4059 -0.0205
14929TIP3    H166278   4.390   6.179  14.142  1.2082 -0.8720  0.3616
14929TIP3    H266279   4.420   6.108  14.012 -1.7484  0.9697 -1.4434
14930TIP3   OH266280   2.886   2.644  14.156 -0.1193  0.2086  0.0255
14930TIP3    H166281   2.832   2.708  14.110 -0.4352  0.1946  0.3730
14930TIP3    H266282   2.976   2.673  14.141 -0.1950  0.0375 -0.8547
14931TIP3   OH266283   1.814   3.457   0.114  0.7107 -0.0923  0.0662
14931TIP3    H166284   1.788   3.391   0.179  1.9262 -0.2232  0.4457
14931TIP3    H266285   1.762   3.535   0.137 -1.2284 -1.0821 -0.7955
14932TIP3   OH266286   3.793   0.644  13.161 -0.0722  0.1195  0.1165
14932TIP3    H166287   3.729   0.573  13.162  0.2522 -0.1848 -0.5669
14932TIP3    H266288   3.860   0.616  13.098  1.0472  0.1607  1.2451
14933TIP3   OH266289   3.300   6.452  16.258  0.5995 -0.2131 -0.0285
14933TIP3    H166290   3.229   6.515  16.263 -0.1324 -0.9769 -0.3949
14933TIP3    H266291   3.372   6.491  16.307  0.1991  0.9351 -0.3444
14934TIP3   OH266292   2.601   3.768   0.807  0.9424 -0.1131 -1.0277
14934TIP3    H166293   2.674   3.716   0.773  0.2187 -1.0532 -1.2123
14934TIP3    H266294   2.524   3.731   0.764 -0.0457 -1.4143  1.6077
14935TIP3   OH266295   1.884   3.444  11.634 -0.4188  0.0164 -0.7483
14935TIP3    H166296   1.916   3.388  11.564 -0.3427 -1.3921  0.3508
14935TIP3    H266297   1.960   3.458  11.691 -0.7675  0.0851 -0.2897
14936TIP3   OH266298   3.398   6.163  12.008  0.5462 -0.0084  0.1472
14936TIP3    H166299   3.340   6.102  12.055  2.7545 -2.5080 -0.1404
14936TIP3    H266300   3.421   6.229  12.074  0.1482 -0.9944  1.3186
14937TIP3   OH266301   0.445   5.226  12.406  0.7052 -0.2305  0.3467
14937TIP3    H166302   0.392   5.246  12.329  0.5498  0.0713  0.5285
14937TIP3    H266303   0.401   5.273  12.478  1.5231  0.4684  0.4024
14938TIP3   OH266304   0.853   5.940   0.024  0.0215 -0.1167 -0.3422
14938TIP3    H166305   0.947   5.952   0.022  0.1353 -0.9157 -0.0987
14938TIP3    H266306   0.841   5.845   0.032 -0.8003 -0.0568 -0.7219
14939TIP3   OH266307   2.059   6.072  13.728 -0.2648 -0.1605  0.1197
14939TIP3    H166308   2.062   5.976  13.728  0.9732 -0.1376 -0.3732
14939TIP3    H266309   2.080   6.097  13.638 -1.0341  0.5796  0.1283
14940TIP3   OH266310   2.445   0.603   3.367  0.2143  0.1645  0.3115
14940TIP3    H166311   2.508   0.668   3.399 -0.0749  1.5689 -1.7383
14940TIP3    H266312   2.473   0.584   3.277 -0.4163 -1.6830  0.4541
14941TIP3   OH266313   5.167   2.184  16.650 -0.2765 -0.2717 -1.1279
14941TIP3    H166314   5.216   2.104  16.629  1.8639  0.2060  1.4569
14941TIP3    H266315   5.232   2.254  16.645 -0.8610  0.5621  1.3108
14942TIP3   OH266316   5.898   5.590  12.801  0.3859  0.2406 -0.0491
14942TIP3    H166317   5.971   5.531  12.818  0.9480  0.6431 -0.9915
14942TIP3    H266318   5.899   5.603  12.706 -1.2792 -0.2210 -0.1635
14943TIP3   OH266319   4.535   2.014  15.372 -0.2409 -0.7030  0.4632
14943TIP3    H166320   4.541   2.063  15.454 -0.2157 -1.7551  1.1063
14943TIP3    H266321   4.610   1.955  15.374  0.4235  0.0402 -0.8675
14944TIP3   OH266322   5.962   3.815   1.490 -0.0453  0.0596 -0.1060
14944TIP3    H166323   5.989   3.741   1.545 -0.0009 -0.6099 -1.0156
14944TIP3    H266324   5.995   3.892   1.536 -1.2620 -0.3482  1.6015
14945TIP3   OH266325   6.271   0.345  12.749  0.1165 -0.4511 -0.0479
14945TIP3    H166326   6.294   0.257  12.779  0.3587  0.2409  1.9153
14945TIP3    H266327   6.349   0.398  12.765 -0.4907  0.4236  0.1014
14946TIP3   OH266328   6.363   4.236  14.696 -0.2732  0.7756  0.0875
14946TIP3    H166329   6.322   4.311  14.738 -0.7728  1.0242 -0.8236
14946TIP3    H266330   6.386   4.178  14.768  1.9544  2.6456  1.0242
14947TIP3   OH266331   4.986   1.756   5.296 -0.4747 -0.4012  0.0915
14947TIP3    H166332   5.063   1.791   5.340 -0.3964 -0.4192 -0.0312
14947TIP3    H266333   5.000   1.775   5.204 -0.5547 -0.5228  0.0540
14948TIP3   OH266334   4.582   4.587   0.181  0.4988  0.0014  0.5646
14948TIP3    H166335   4.576   4.496   0.151  1.9039  0.3622 -0.9556
14948TIP3    H266336   4.604   4.637   0.102 -2.4054  2.0221  0.8544
14949TIP3   OH266337   1.235   3.386   2.537  0.3007  0.6889  0.1443
14949TIP3    H166338   1.197   3.360   2.452 -0.7367 -0.0786  0.8090
14949TIP3    H266339   1.166   3.439   2.578 -0.6284 -1.6586  1.8550
14950TIP3   OH266340   3.848   2.276   1.755 -0.1655 -0.3624 -0.2309
14950TIP3    H166341   3.829   2.296   1.664 -0.1861 -0.0469 -0.1584
14950TIP3    H266342   3.920   2.334   1.778 -0.2214 -0.3755 -0.0204
14951TIP3   OH266343   1.668   3.829  16.314 -0.1941 -0.1719  0.0014
14951TIP3    H166344   1.605   3.887  16.271  0.1572 -0.4873 -0.9648
14951TIP3    H266345   1.662   3.852  16.407  0.3715  1.8440 -0.4209
14952TIP3   OH266346   2.944   6.038   1.216  0.0918 -0.1521  0.2451
14952TIP3    H166347   3.028   6.042   1.262  0.0349 -0.4440  0.3724
14952TIP3    H266348   2.887   6.095   1.267  0.5285  0.9914 -0.5034
14953TIP3   OH266349   5.463   6.041   2.128  0.3775 -0.3187  0.4307
14953TIP3    H166350   5.520   5.984   2.180 -1.0839 -1.5592  0.7469
14953TIP3    H266351   5.459   6.000   2.042 -1.0660 -1.0118  0.7990
14954TIP3   OH266352   0.849   4.269   1.581  0.1385  0.1090 -0.8529
14954TIP3    H166353   0.923   4.305   1.630  0.2608  1.6787 -2.0979
14954TIP3    H266354   0.807   4.208   1.642  0.8075  1.2704  0.8560
14955TIP3   OH266355   6.055   0.205   0.548  0.1635  0.1904  0.5317
14955TIP3    H166356   6.053   0.187   0.454 -0.2576  1.1927  0.3268
14955TIP3    H266357   5.986   0.271   0.560  0.6447  0.5395  1.4381
14956TIP3   OH266358   5.538   2.489   0.714 -0.0393 -0.3815 -0.3581
14956TIP3    H166359   5.517   2.429   0.642  1.3249 -0.5171 -0.6656
14956TIP3    H266360   5.543   2.575   0.672  0.8223 -0.4703 -0.4432
14957TIP3   OH266361   1.114   2.922  16.368  0.2631  0.5179 -0.2678
14957TIP3    H166362   1.032   2.950  16.408 -1.3653 -3.6439 -0.2111
14957TIP3    H266363   1.116   2.967  16.283 -2.6102  0.0169 -0.6890
14958TIP3   OH266364   2.283   4.826  14.180  0.4368  0.1450 -0.4446
14958TIP3    H166365   2.317   4.846  14.267 -0.1712 -0.3017 -0.1001
14958TIP3    H266366   2.202   4.778  14.196  0.2177  0.2270 -1.2569
14959TIP3   OH266367   5.968   4.145   3.116  0.1379 -0.0306  0.4305
14959TIP3    H166368   6.003   4.069   3.163  1.9872  0.9370  0.7359
14959TIP3    H266369   6.013   4.143   3.032 -0.0743  0.5206  0.3008
14960TIP3   OH266370   2.976   1.802   5.858  0.1193 -0.1990  0.3251
14960TIP3    H166371   2.937   1.797   5.946 -1.0301  0.1314 -0.1525
14960TIP3    H266372   2.903   1.790   5.799  0.3820  2.4266 -0.6545
14961TIP3   OH266373   2.818   5.584  12.534  0.3350  0.4394 -0.2131
14961TIP3    H166374   2.781   5.581  12.622  2.6432 -1.4490  0.7730
14961TIP3    H266375   2.908   5.615  12.546  0.5143  0.7388 -2.0000
14962TIP3   OH266376   3.853   1.311  11.166  0.0778 -0.2559 -0.0972
14962TIP3    H166377   3.833   1.272  11.251 -0.5657 -0.0455 -0.1391
14962TIP3    H266378   3.853   1.238  11.105  0.4398 -0.3946  0.0732
14963TIP3   OH266379   3.921   1.782  17.201  0.1994  0.6103  0.4763
14963TIP3    H166380   3.919   1.802  17.107 -1.9263  1.8696  0.7324
14963TIP3    H266381   3.995   1.833  17.234 -0.2338  1.7671 -0.2375
14964TIP3   OH266382   5.424   1.087  10.333 -0.4635 -0.1683 -0.6731
14964TIP3    H166383   5.455   1.064  10.245 -0.9627  0.2524 -0.9666
14964TIP3    H266384   5.330   1.074  10.329 -0.6466  1.0621 -0.5801
14965TIP3   OH266385   4.163   3.564  16.892  0.2112 -0.2073 -0.1257
14965TIP3    H166386   4.242   3.531  16.851  0.3405  0.9770 -0.8829
14965TIP3    H266387   4.121   3.618  16.825  1.0333  2.8212  1.5856
14966TIP3   OH266388   3.788   0.759   5.539  0.1830  0.0671  0.4617
14966TIP3    H166389   3.716   0.696   5.547  0.4416 -0.0837  1.9268
14966TIP3    H266390   3.760   0.834   5.592  0.6652  0.4381  0.1978
14967TIP3   OH266391   5.020   5.894   0.977 -0.1208 -0.0098  0.0107
14967TIP3    H166392   4.928   5.891   0.952 -0.0022  2.7784 -1.1236
14967TIP3    H266393   5.064   5.937   0.904  1.7723  0.4449  1.3240
14968TIP3   OH266394   5.723   3.764  15.130 -0.2043 -0.0102  0.1921
14968TIP3    H166395   5.703   3.778  15.223  0.1218  0.7484  0.1555
14968TIP3    H266396   5.727   3.669  15.121  1.3597 -0.0810  1.3044
14969TIP3   OH266397   3.679   0.555   1.542 -0.3640 -0.1674  0.1764
14969TIP3    H166398   3.723   0.626   1.496  0.0588 -0.2332  0.4725
14969TIP3    H266399   3.740   0.482   1.537  0.8751  0.5110  2.9668
14970TIP3   OH266400   1.374   0.768  11.136  0.2190  0.5556  0.0480
14970TIP3    H166401   1.290   0.777  11.180  0.2942  0.7338  0.1547
14970TIP3    H266402   1.386   0.673  11.127 -0.2566  0.5375 -0.4808
14971TIP3   OH266403   4.325   1.241  11.340  0.0949 -0.0491 -0.0221
14971TIP3    H166404   4.297   1.160  11.298  0.3806  0.4401 -1.1842
14971TIP3    H266405   4.361   1.294  11.269 -0.2377  1.1716  0.6894
14972TIP3   OH266406   3.377   4.892  15.213  0.1758 -0.1111  0.0987
14972TIP3    H166407   3.319   4.929  15.147 -1.0426 -1.3495  0.4343
14972TIP3    H266408   3.319   4.841  15.270  1.7744 -2.7822 -0.5201
14973TIP3   OH266409   6.349   4.555   3.154 -0.2236 -0.5657 -0.8202
14973TIP3    H166410   6.314   4.644   3.155 -1.4437 -0.9966  1.8506
14973TIP3    H266411   6.433   4.563   3.109  0.1475  2.1076  0.1889
14974TIP3   OH266412   5.934   3.287  16.985  0.2006  0.6729 -0.2536
14974TIP3    H166413   5.965   3.227  16.917  1.3125  1.7902 -0.7680
14974TIP3    H266414   5.842   3.262  16.999  0.4852 -0.7983 -0.8046
14975TIP3   OH266415   2.786   2.042   0.863  0.1211 -0.2576 -0.5241
14975TIP3    H166416   2.695   2.071   0.864  0.2058  0.2102 -2.5793
14975TIP3    H266417   2.801   2.006   0.951 -1.9854 -0.2056 -0.1026
14976TIP3   OH266418   2.999   3.097  16.392 -0.0358 -0.2845  0.0215
14976TIP3    H166419   2.944   3.145  16.453 -0.3070 -0.6996  0.1042
14976TIP3    H266420   3.014   3.012  16.433  1.5079  0.1594  0.4718
14977TIP3   OH266421   5.436   3.041   3.539  0.0792 -0.1355 -0.1139
14977TIP3    H166422   5.413   3.125   3.500 -0.4326 -0.2379 -0.0460
14977TIP3    H266423   5.470   2.989   3.467  0.6640  0.2209 -0.1034
14978TIP3   OH266424   5.530   4.239  15.076 -0.0572  0.1187  0.2449
14978TIP3    H166425   5.557   4.231  14.984  0.4972 -0.7508  0.4687
14978TIP3    H266426   5.457   4.300  15.074 -1.4903 -1.5445 -1.0767
14979TIP3   OH266427   0.326   5.366  13.465 -0.6713 -0.5062 -0.0612
14979TIP3    H166428   0.257   5.312  13.505  0.9602 -0.6266  2.8696
14979TIP3    H266429   0.335   5.440  13.525  1.2191 -0.0796 -0.8208
14980TIP3   OH266430   6.197   4.522   2.522  0.0992  0.6797  0.2942
14980TIP3    H166431   6.261   4.593   2.520 -0.1360  0.9672  1.7641
14980TIP3    H266432   6.208   4.478   2.438  2.1041  0.8170  0.4310
14981TIP3   OH266433   0.840   0.736   4.416 -0.1910  0.0101  0.5631
14981TIP3    H166434   0.779   0.679   4.369  0.4614 -0.3968  0.1886
14981TIP3    H266435   0.900   0.676   4.460  0.2864  0.3976  0.4551
14982TIP3   OH266436   6.205   1.135  17.116  0.3132 -0.0486  0.4576
14982TIP3    H166437   6.230   1.228  17.123 -1.6606  0.4344  1.5388
14982TIP3    H266438   6.288   1.090  17.100  1.4735  1.7778  1.0092
14983TIP3   OH266439   1.873   5.567  12.988  1.4227 -0.4211  0.5010
14983TIP3    H166440   1.887   5.578  13.082  3.6635  1.3331  0.0625
14983TIP3    H266441   1.893   5.653  12.951  0.8921 -1.1541 -1.6290
14984TIP3   OH266442   6.773   2.626  15.747  0.4922  0.1133  0.0690
14984TIP3    H166443   6.781   2.715  15.780 -3.6207  0.6986  0.0400
14984TIP3    H266444   6.757   2.573  15.825  2.0133 -0.5217 -0.0087
14985TIP3   OH266445   3.027   3.871  16.053 -0.1384 -0.3768  0.5917
14985TIP3    H166446   3.109   3.919  16.061 -0.2029 -0.0351 -0.6123
14985TIP3    H266447   3.039   3.792  16.107  1.4730 -0.9795 -0.5744
14986TIP3   OH266448   2.101   5.676   1.161 -0.5644  0.0537  0.3159
14986TIP3    H166449   2.167   5.740   1.188 -1.6201  1.3036  0.0193
14986TIP3    H266450   2.031   5.686   1.225 -1.1705 -0.1107 -0.3202
14987TIP3   OH266451   6.197   0.270  17.090 -0.7717 -0.0148  0.5600
14987TIP3    H166452   6.146   0.346  17.119  0.2405 -0.3802  3.7037
14987TIP3    H266453   6.133   0.200  17.080 -1.3431  0.4691  0.7631
14988TIP3   OH266454   6.737   0.090   1.583  0.8944  0.4527 -0.4541
14988TIP3    H166455   6.693   0.175   1.586 -0.4330 -0.2256  0.2970
14988TIP3    H266456   6.685   0.038   1.522  0.7281 -0.3219  0.3224
14989TIP3   OH266457   5.140   4.010  13.262 -0.1405 -0.3801 -0.3573
14989TIP3    H166458   5.139   4.064  13.341 -1.3810  1.1972 -1.3646
14989TIP3    H266459   5.152   3.921  13.293 -2.0943  0.0097  1.7462
14990TIP3   OH266460   1.874   4.017  15.546  0.5930 -0.0141  0.8549
14990TIP3    H166461   1.917   4.066  15.615  0.9319  2.7679 -1.1678
14990TIP3    H266462   1.781   4.020  15.569  0.4625  2.6509  0.2847
14991TIP3   OH266463   3.493   0.680  11.648  0.4326 -0.3682  0.0179
14991TIP3    H166464   3.503   0.709  11.739 -0.8340 -2.0238  0.7568
14991TIP3    H266465   3.406   0.710  11.622  1.7565  2.3686 -1.6350
14992TIP3   OH266466   1.187   1.358   0.523  0.6362 -0.5390  0.2958
14992TIP3    H166467   1.174   1.378   0.616  0.6081 -1.0101  0.3969
14992TIP3    H266468   1.196   1.443   0.481  0.9988 -0.3309  0.7858
14993TIP3   OH266469   3.679   6.098  17.012  0.5518  0.7542  0.1346
14993TIP3    H166470   3.726   6.094  17.095  1.8140 -0.0227 -0.5845
14993TIP3    H266471   3.747   6.085  16.945 -0.5951  0.2599 -0.9756
14994TIP3   OH266472   0.861   0.456   4.868  0.2620 -0.4378  0.1676
14994TIP3    H166473   0.954   0.457   4.844  0.0669 -0.5559 -0.6162
14994TIP3    H266474   0.820   0.518   4.807  0.0459  0.8006  1.5027
14995TIP3   OH266475   6.440   2.689   3.579 -0.1334 -0.0039 -0.6264
14995TIP3    H166476   6.353   2.723   3.556 -0.5474 -1.3476 -1.1578
14995TIP3    H266477   6.431   2.657   3.668  0.4158  1.7153  0.0926
14996TIP3   OH266478   1.929   3.801  15.817  0.2705 -0.4366 -0.3258
14996TIP3    H166479   1.855   3.783  15.760  0.2742  3.4392 -1.8951
14996TIP3    H266480   1.889   3.828  15.900  0.0908 -1.2333 -0.1408
14997TIP3   OH266481   3.242   1.861   2.148 -0.1291  0.8663  0.2070
14997TIP3    H166482   3.152   1.828   2.153  0.0964  0.0101 -0.8810
14997TIP3    H266483   3.273   1.831   2.062  1.8353 -0.5413  1.3444
14998TIP3   OH266484   4.924   1.824   1.020 -0.4445 -0.1161 -0.2437
14998TIP3    H166485   4.893   1.776   1.097  1.9284  1.2322  1.7101
14998TIP3    H266486   4.883   1.910   1.028 -0.1659  0.0392 -0.4716
14999TIP3   OH266487   3.058   0.092   2.107  0.6538  0.3963  0.4674
14999TIP3    H166488   2.966   0.117   2.116  0.6958  0.8647 -0.3330
14999TIP3    H266489   3.103   0.171   2.079  1.1493 -0.0405 -0.0114
15000TIP3   OH266490   2.305   3.273  12.151 -0.0710 -0.5635 -0.1630
15000TIP3    H166491   2.351   3.356  12.139  1.2076 -0.8784  2.0408
15000TIP3    H266492   2.251   3.264  12.072  0.3710  1.9314 -0.8358
15001TIP3   OH266493   3.708   1.617   0.962 -0.2520  0.1579  0.3009
15001TIP3    H166494   3.730   1.534   1.004 -0.0819  0.4016  0.7048
15001TIP3    H266495   3.782   1.635   0.904 -2.0259 -1.9530 -2.9311
15002TIP3   OH266496   3.230   3.530   4.737 -0.4325  0.0058 -0.2000
15002TIP3    H166497   3.198   3.469   4.804 -1.9213  1.3660  0.4067
15002TIP3    H266498   3.307   3.571   4.776 -0.1596 -0.6011 -0.1039
15003TIP3   OH266499   5.042   5.273  16.254 -0.7102  0.4175  0.4429
15003TIP3    H166500   5.028   5.363  16.282 -0.7766  0.8032 -0.7842
15003TIP3    H266501   5.121   5.245  16.300  0.4198  1.7585 -0.5888
15004TIP3   OH266502   2.981   5.757   1.757  0.5948 -0.4945  0.3032
15004TIP3    H166503   2.929   5.811   1.698  0.7254 -2.0751 -1.3282
15004TIP3    H266504   3.042   5.819   1.798  0.8501  0.5964 -1.6113
15005TIP3   OH266505   1.188   4.455   5.909 -0.8524 -0.3412  0.3584
15005TIP3    H166506   1.249   4.445   5.982  2.1985  0.3458 -1.8930
15005TIP3    H266507   1.179   4.549   5.898  0.9639 -0.3183 -1.7037
15006TIP3   OH266508   0.605   0.342  16.070  0.1068  0.4497  0.5075
15006TIP3    H166509   0.596   0.308  15.981 -1.9244 -0.6301  1.0450
15006TIP3    H266510   0.677   0.291  16.108  0.4142  0.3079 -0.2468
15007TIP3   OH266511   4.309   5.344   1.941  0.4543 -0.1234  0.2871
15007TIP3    H166512   4.357   5.299   2.011  0.0187 -1.6406 -0.3383
15007TIP3    H266513   4.268   5.273   1.892 -3.0422  1.0513  1.2032
15008TIP3   OH266514   4.846   4.562   6.309  0.1037  0.2088  0.1728
15008TIP3    H166515   4.808   4.478   6.285 -0.0166  0.5746 -0.9741
15008TIP3    H266516   4.826   4.572   6.402 -2.9425  0.5340 -0.4150
15009TIP3   OH266517   5.440   3.124  11.740 -0.8293  0.1376  0.4730
15009TIP3    H166518   5.365   3.165  11.698 -0.8728  1.8962  2.1159
15009TIP3    H266519   5.437   3.156  11.830  2.4853  1.1719  0.3387
15010TIP3   OH266520   6.783   3.452  15.581 -0.0395 -0.0979  0.0115
15010TIP3    H166521   6.688   3.447  15.567 -0.3105 -0.7541  1.8190
15010TIP3    H266522   6.819   3.380  15.530 -0.5390 -0.0512 -0.4141
15011TIP3   OH266523   2.216   6.731   4.738  0.0568  0.2696  0.3189
15011TIP3    H166524   2.128   6.738   4.775 -0.2674 -0.8762 -0.2200
15011TIP3    H266525   2.216   6.793   4.665 -0.1322  0.6465  0.6341
15012TIP3   OH266526   4.772   2.486   4.149 -0.4109 -0.5408  0.7777
15012TIP3    H166527   4.705   2.420   4.166 -1.3643  0.4062  0.8138
15012TIP3    H266528   4.851   2.451   4.191 -0.8814 -1.6616  0.7654
15013TIP3   OH266529   2.602   4.589  13.149 -0.6142  0.2126  0.4752
15013TIP3    H166530   2.678   4.539  13.119 -0.9668  0.8534 -1.6263
15013TIP3    H266531   2.537   4.522  13.172  0.3693 -0.3269  1.8075
15014TIP3   OH266532   5.672   2.309  16.761  0.2479  0.7956  0.1209
15014TIP3    H166533   5.718   2.266  16.689 -0.4440  0.8232 -0.3460
15014TIP3    H266534   5.636   2.238  16.813  0.2154  0.7841  0.0829
15015TIP3   OH266535   1.987   1.231  15.094 -0.2763 -0.4388 -0.4558
15015TIP3    H166536   2.037   1.151  15.077 -0.6361 -0.9931  0.9453
15015TIP3    H266537   1.915   1.229  15.031  0.7548 -0.2429 -1.6823
15016TIP3   OH266538   1.857   5.277   0.753  0.0913  0.1186 -0.1128
15016TIP3    H166539   1.822   5.325   0.828  0.3871 -2.3617  1.7108
15016TIP3    H266540   1.791   5.209   0.735  1.2204 -0.9399 -0.4041
15017TIP3   OH266541   4.614   4.283   2.608  0.1790 -0.2148  0.1431
15017TIP3    H166542   4.617   4.205   2.662  0.4306  0.2092  0.7465
15017TIP3    H266543   4.522   4.307   2.605  0.1710 -0.2110  0.4220
15018TIP3   OH266544   3.255   3.798   1.668 -0.3429  0.8602  0.3478
15018TIP3    H166545   3.301   3.819   1.587  0.5073  0.2978  0.6683
15018TIP3    H266546   3.234   3.705   1.661 -0.4349  0.8518  0.6866
15019TIP3   OH266547   4.703   5.877   4.086  0.0200 -0.2741 -0.4832
15019TIP3    H166548   4.677   5.799   4.038  1.7454 -0.0013 -1.9500
15019TIP3    H266549   4.792   5.895   4.056  2.1544 -1.2811  4.3499
15020TIP3   OH266550   0.859   3.142   1.725 -0.4918  0.5185  0.8345
15020TIP3    H166551   0.944   3.180   1.749 -0.8514  0.3878  2.4545
15020TIP3    H266552   0.819   3.118   1.809 -1.7377 -0.2870  0.0456
15021TIP3   OH266553   2.214   5.028  14.617 -0.6136 -0.0923 -0.1639
15021TIP3    H166554   2.299   5.052  14.655 -0.9881 -0.3881  0.9057
15021TIP3    H266555   2.216   5.065  14.529 -0.2005  1.7242  0.5676
15022TIP3   OH266556   6.294   1.784  14.984 -0.8058 -0.1826 -0.2826
15022TIP3    H166557   6.207   1.795  14.946 -0.7346  0.5010 -0.2645
15022TIP3    H266558   6.354   1.817  14.917 -0.6679  0.8527  0.3271
15023TIP3   OH266559   1.277   6.075  16.067  0.6810  0.2579 -0.3000
15023TIP3    H166560   1.190   6.035  16.064  0.1248  1.5218 -1.7630
15023TIP3    H266561   1.338   6.002  16.054 -0.2616 -0.3045 -1.6319
15024TIP3   OH266562   5.273   4.552  13.585  0.2952  0.5606  0.3842
15024TIP3    H166563   5.355   4.511  13.613  0.7258  2.0652  1.5005
15024TIP3    H266564   5.272   4.544  13.490 -0.3353 -3.1753  0.5619
15025TIP3   OH266565   1.791   5.111  15.686 -0.3683  0.3470 -0.0201
15025TIP3    H166566   1.722   5.046  15.674 -1.1320  1.2307 -0.6180
15025TIP3    H266567   1.873   5.062  15.681 -0.9370 -0.9454  2.0007
15026TIP3   OH266568   4.346   4.855  17.207  0.2125 -0.0067  0.0939
15026TIP3    H166569   4.320   4.763  17.215 -0.2909  0.0586 -0.6736
15026TIP3    H266570   4.367   4.866  17.114  1.2324  0.4111  0.3638
15027TIP3   OH266571   3.387   0.172  13.394  0.1244  0.0605 -0.7211
15027TIP3    H166572   3.353   0.252  13.355 -1.2705 -0.4305 -0.5829
15027TIP3    H266573   3.351   0.171  13.483  1.5904  0.1536 -0.0991
15028TIP3   OH266574   6.461   1.045  17.058 -0.1186  0.6519 -0.3170
15028TIP3    H166575   6.494   1.017  16.973  0.4511 -1.2850  0.5015
15028TIP3    H266576   6.530   1.023  17.120 -0.7837  1.4340  0.7492
15029TIP3   OH266577   6.678   3.345  12.748  0.7746  0.3294  0.1121
15029TIP3    H166578   6.612   3.410  12.721  0.1559 -0.2836  0.1193
15029TIP3    H266579   6.683   3.284  12.675  0.0490 -0.6055  0.8240
15030TIP3   OH266580   3.180   0.125  11.286 -0.2997  0.3673 -0.4040
15030TIP3    H166581   3.186   0.220  11.273 -0.9488  0.3335 -0.9714
15030TIP3    H266582   3.128   0.093  11.213 -0.0352 -0.4442 -0.2559
15031TIP3   OH266583   3.468   4.891   2.180 -0.1014  0.0483 -0.4107
15031TIP3    H166584   3.374   4.878   2.168 -0.9253 -0.6126  4.6216
15031TIP3    H266585   3.506   4.804   2.167  0.2092  0.5582 -3.7966
15032TIP3   OH266586   5.715   0.548  15.400 -0.2969  0.2535  0.4480
15032TIP3    H166587   5.810   0.542  15.387 -0.5627 -1.4592 -1.0371
15032TIP3    H266588   5.697   0.491  15.474 -0.1634  0.7272  0.8519
15033TIP3   OH266589   3.250   5.818   4.008 -0.0828 -0.0368  0.5650
15033TIP3    H166590   3.162   5.786   3.991 -0.2710 -0.7147  2.6453
15033TIP3    H266591   3.305   5.739   4.006  0.5937  0.4131 -1.0463
15034TIP3   OH266592   1.636   4.512  14.063 -0.1578  0.2938  0.0464
15034TIP3    H166593   1.662   4.586  14.008 -0.4481 -0.7826 -1.6227
15034TIP3    H266594   1.625   4.439  14.001 -0.7624 -0.9146  1.5169
15035TIP3   OH266595   0.202   1.384   4.304 -0.5081  0.1842  0.1298
15035TIP3    H166596   0.281   1.438   4.300  0.3514 -1.0100  0.3723
15035TIP3    H266597   0.159   1.399   4.220  0.8160 -0.3401 -0.6861
15036TIP3   OH266598   2.091   4.186  13.461 -0.0188  0.0791 -0.4342
15036TIP3    H166599   2.019   4.202  13.522 -0.0293 -0.3388 -0.3397
15036TIP3    H266600   2.136   4.109  13.495  1.7637  1.5339  0.6950
15037TIP3   OH266601   5.685   3.702   6.565 -0.3556  0.1811 -0.4394
15037TIP3    H166602   5.733   3.620   6.558  0.7765  0.8703 -0.8966
15037TIP3    H266603   5.654   3.720   6.476  0.4629  0.8758 -0.5896
15038TIP3   OH266604   1.988   6.171   5.427  0.1270  0.4428 -0.3522
15038TIP3    H166605   2.044   6.177   5.349 -0.0798 -1.9695 -0.7349
15038TIP3    H266606   1.977   6.262   5.454  1.1347  1.2776 -2.4685
15039TIP3   OH266607   6.752   5.097   2.525  0.0726  0.1984 -0.2466
15039TIP3    H166608   6.703   5.025   2.485 -0.2442  0.4827 -0.3697
15039TIP3    H266609   6.793   5.142   2.452 -0.2923  0.5596 -0.2306
15040TIP3   OH266610   0.648   2.455  13.162  0.4854 -0.1002 -0.5765
15040TIP3    H166611   0.630   2.544  13.132 -0.1895  0.1580  0.5491
15040TIP3    H266612   0.587   2.400  13.113 -0.5581  0.3072  0.2377
15041TIP3   OH266613   3.295   3.534  11.460  0.3492 -0.6869 -0.1305
15041TIP3    H166614   3.368   3.528  11.522  2.5183  0.5353 -2.3702
15041TIP3    H266615   3.304   3.456  11.405 -0.3856 -0.8056 -0.0873
15042TIP3   OH266616   3.806   5.756   4.415  1.0176  0.2033 -0.3783
15042TIP3    H166617   3.789   5.849   4.401 -0.7041 -0.1540 -0.8931
15042TIP3    H266618   3.899   5.746   4.397  1.5215  2.0160  0.8560
15043TIP3   OH266619   4.994   0.440  16.122 -0.0088  0.0937 -0.3326
15043TIP3    H166620   4.941   0.419  16.199  0.9815 -0.3707  0.2309
15043TIP3    H266621   5.056   0.506  16.152 -0.5128  0.9616 -1.1061
15044TIP3   OH266622   2.264   4.502  14.172 -0.3637 -0.2653 -0.2653
15044TIP3    H166623   2.228   4.436  14.113  0.4327 -0.6582 -0.3222
15044TIP3    H266624   2.188   4.555  14.197 -0.7828 -0.3341 -1.3181
15045TIP3   OH266625   6.799   4.213  13.158 -0.1291  0.1477  0.1544
15045TIP3    H166626   6.802   4.259  13.074 -0.5886 -0.0275  0.0357
15045TIP3    H266627   6.780   4.282  13.222  1.7083  0.5305  0.3323
15046TIP3   OH266628   0.407   0.522  11.587 -0.3416 -0.0784 -0.1662
15046TIP3    H166629   0.498   0.493  11.598 -0.0374  0.7920 -0.2978
15046TIP3    H266630   0.389   0.508  11.494  0.0716  0.8693 -0.4003
15047TIP3   OH266631   3.540   1.102   4.833  0.6061  0.0459  0.2948
15047TIP3    H166632   3.448   1.083   4.815  0.3323  1.9020 -0.4739
15047TIP3    H266633   3.582   1.102   4.747  1.2378 -0.2960  0.5941
15048TIP3   OH266634   1.819   4.224   0.064 -1.1520 -0.4601 -0.0847
15048TIP3    H166635   1.874   4.209   0.142 -0.3432 -0.9879 -0.7310
15048TIP3    H266636   1.808   4.136   0.026 -1.1890 -0.1571 -0.7901
15049TIP3   OH266637   4.623   3.200   0.560  0.7867  0.0314  0.2644
15049TIP3    H166638   4.686   3.271   0.550  1.5871 -0.0135  3.7915
15049TIP3    H266639   4.677   3.121   0.567 -0.0189 -0.7955 -1.9397
15050TIP3   OH266640   2.638   2.220  13.594  0.2889 -0.6696  0.0883
15050TIP3    H166641   2.640   2.255  13.683 -1.5990  0.3416 -0.2175
15050TIP3    H266642   2.691   2.282  13.543  0.3337 -0.5416  0.2871
15051TIP3   OH266643   3.371   6.593   1.312  0.1262  0.7120 -0.3614
15051TIP3    H166644   3.309   6.544   1.258 -0.6524  0.0498  1.0879
15051TIP3    H266645   3.317   6.646   1.370  0.7232 -1.4761  2.4362
15052TIP3   OH266646   4.246   6.586   0.163 -0.4464  0.4427 -0.0796
15052TIP3    H166647   4.162   6.622   0.134 -1.0820  0.1762  1.3161
15052TIP3    H266648   4.273   6.642   0.236 -0.4526 -0.6638  0.8184
15053TIP3   OH266649   1.194   0.766   4.058  0.1540 -0.2912  0.2566
15053TIP3    H166650   1.238   0.683   4.077  1.1804  0.3214  0.6198
15053TIP3    H266651   1.245   0.804   3.986  0.0749  0.3236  0.5213
15054TIP3   OH266652   2.523   4.709  12.455  0.2127  0.2795 -0.0303
15054TIP3    H166653   2.503   4.803  12.462  0.1389  0.2739 -0.1709
15054TIP3    H266654   2.451   4.666  12.502 -1.4325  0.1248 -2.5268
15055TIP3   OH266655   2.930   1.515   0.644  0.6333 -0.1137  0.5075
15055TIP3    H166656   2.869   1.521   0.571 -0.0242  1.3331  1.1414
15055TIP3    H266657   2.876   1.527   0.722  1.6727  0.9733  1.0972
15056TIP3   OH266658   0.931   4.650  11.378  0.4561 -0.2378  0.1723
15056TIP3    H166659   0.984   4.571  11.387  1.3438  0.5249  2.5075
15056TIP3    H266660   0.995   4.721  11.367 -0.3279  0.2042 -2.1097
15057TIP3   OH266661   2.784   4.550   4.547 -0.2432  0.1555  0.0874
15057TIP3    H166662   2.812   4.460   4.564 -1.2785 -0.7602 -2.5054
15057TIP3    H266663   2.748   4.580   4.631  1.3165 -1.3493  1.3544
15058TIP3   OH266664   6.696   2.206  16.206  0.6423  0.5379  0.0894
15058TIP3    H166665   6.787   2.214  16.179  0.4291 -0.0618 -0.8430
15058TIP3    H266666   6.646   2.215  16.125 -0.1472  1.1723  0.6348
15059TIP3   OH266667   5.036   5.258  13.588  0.1291 -0.9160 -0.3272
15059TIP3    H166668   4.997   5.308  13.660  0.1020 -1.4298  0.0233
15059TIP3    H266669   5.100   5.201  13.632  0.5230 -0.8236 -0.7776
15060TIP3   OH266670   4.558   3.024   2.771 -0.0894 -0.7641 -0.2838
15060TIP3    H166671   4.560   3.112   2.809 -1.6145 -1.3298  1.2389
15060TIP3    H266672   4.557   3.039   2.676  1.9924  0.7451 -0.1378
15061TIP3   OH266673   1.704   6.515  13.047  0.7656 -0.6325  0.1769
15061TIP3    H166674   1.751   6.451  13.101 -0.1694  0.1859  2.0667
15061TIP3    H266675   1.718   6.599  13.090 -0.7394 -0.0707 -0.3416
15062TIP3   OH266676   2.817   5.360  11.733  0.1239  0.2362  0.6853
15062TIP3    H166677   2.816   5.352  11.638 -0.5788 -0.2481  0.7262
15062TIP3    H266678   2.905   5.332  11.759 -0.3082 -1.5206  0.3255
15063TIP3   OH266679   1.240   1.427  14.831 -0.4817 -0.0474  0.2341
15063TIP3    H166680   1.227   1.473  14.914  1.4628  0.6213  0.2252
15063TIP3    H266681   1.183   1.472  14.769 -2.0226 -0.6113  1.1861
15064TIP3   OH266682   0.993   0.158  12.197 -0.4014 -0.2897 -0.2425
15064TIP3    H166683   1.003   0.248  12.228  0.4870 -0.3024 -0.4494
15064TIP3    H266684   1.074   0.141  12.148 -1.9587 -0.0450 -3.1468
15065TIP3   OH266685   2.934   3.014  16.010  0.6353 -0.7086  0.0956
15065TIP3    H166686   3.015   3.032  15.962 -0.3959 -0.2351 -1.5310
15065TIP3    H266687   2.910   3.099  16.047  0.8222 -0.8292  0.4979
15066TIP3   OH266688   6.692   1.860  14.595  0.1392  0.3185  0.0854
15066TIP3    H166689   6.759   1.928  14.596 -0.6365  1.1090 -0.0036
15066TIP3    H266690   6.684   1.835  14.504  0.6884 -0.1636  0.1670
15067TIP3   OH266691   1.197   1.232  15.753  0.1981 -0.7450 -0.4943
15067TIP3    H166692   1.160   1.145  15.745 -2.4807  0.4424 -3.1094
15067TIP3    H266693   1.248   1.245  15.673  1.1917 -0.1296  0.2014
15068TIP3   OH266694   5.631   0.653   1.266  0.0085 -0.0809 -0.0427
15068TIP3    H166695   5.644   0.619   1.177  1.8290  1.3494 -0.3874
15068TIP3    H266696   5.688   0.599   1.320 -0.5795 -0.5064  0.1599
15069TIP3   OH266697   3.445   2.659  12.906 -0.3129  0.1738 -0.2922
15069TIP3    H166698   3.413   2.719  12.973  1.2678  1.2580 -0.4619
15069TIP3    H266699   3.426   2.703  12.823 -2.7122 -1.3796 -0.6782
15070TIP3   OH266700   1.629   6.807  14.662  0.0962 -0.0597 -0.0243
15070TIP3    H166701   1.586   6.728  14.697  0.2443 -0.0840  0.0992
15070TIP3    H266702   1.695   6.829  14.727  1.2023 -0.8200 -0.8610
15071TIP3   OH266703   0.752   4.864  15.304 -0.0409  0.5826  0.5224
15071TIP3    H166704   0.823   4.873  15.368 -0.5424  0.8000  1.0634
15071TIP3    H266705   0.764   4.776  15.268  1.2932  1.0977 -0.3821
15072TIP3   OH266706   2.449   2.216  11.089 -0.0966  0.5697 -0.5816
15072TIP3    H166707   2.373   2.201  11.147  0.7488 -1.0571  0.1582
15072TIP3    H266708   2.464   2.310  11.094 -0.2718  0.5304  1.6194
15073TIP3   OH266709   6.506   2.995  16.462  0.1559  0.6411 -1.2080
15073TIP3    H166710   6.549   3.012  16.378 -0.1974  1.9423 -1.1433
15073TIP3    H266711   6.434   3.059  16.466  1.3933  2.0164  0.9612
15074TIP3   OH266712   6.596   1.494   3.494 -0.5593  0.5374 -0.0922
15074TIP3    H166713   6.515   1.537   3.470 -0.4642  0.5423 -0.4123
15074TIP3    H266714   6.601   1.418   3.436 -0.9555 -0.1673  0.7745
15075TIP3   OH266715   2.418   6.058  11.437  0.0908  0.5583 -0.3765
15075TIP3    H166716   2.488   6.107  11.479 -0.3867  1.3943 -0.5211
15075TIP3    H266717   2.361   6.031  11.509  1.6944 -2.1194  0.0256
15076TIP3   OH266718   0.296   1.448   3.604  0.1638  0.2526  0.2047
15076TIP3    H166719   0.343   1.365   3.615  0.8701  0.6977  0.6831
15076TIP3    H266720   0.235   1.432   3.532 -1.8127 -1.5967  2.1236
15077TIP3   OH266721   2.665   4.680   4.769  0.8005 -0.7436  1.2855
15077TIP3    H166722   2.632   4.763   4.734 -0.0363 -1.2903  0.7429
15077TIP3    H266723   2.657   4.690   4.864 -0.1442 -0.5351  1.1938
15078TIP3   OH266724   5.715   3.142   0.911  0.5952 -0.6345  0.3365
15078TIP3    H166725   5.655   3.068   0.917 -0.1239 -0.2251 -1.2185
15078TIP3    H266726   5.736   3.163   1.002 -0.2623 -1.8636  0.8557
15079TIP3   OH266727   1.973   3.920  13.346  0.1797 -0.1093 -0.3644
15079TIP3    H166728   2.046   3.890  13.401  0.9049 -2.3788 -2.3906
15079TIP3    H266729   1.977   4.015  13.351  1.6358 -0.2130  1.6332
15080TIP3   OH266730   0.095   3.546   4.979  0.2630  0.4942 -0.1256
15080TIP3    H166731   0.115   3.462   4.937  0.2475  0.2796  0.2771
15080TIP3    H266732   0.097   3.525   5.073 -1.2582  0.5816 -0.0407
15081TIP3   OH266733   5.502   4.399  12.643  0.4207  0.0445  0.2069
15081TIP3    H166734   5.419   4.387  12.597 -0.1436  0.5252  1.0659
15081TIP3    H266735   5.559   4.329  12.609 -0.4251 -0.4684 -0.1833
15082TIP3   OH266736   0.618   3.579  13.352  0.0770  0.3771  0.8452
15082TIP3    H166737   0.605   3.502  13.408  0.4430 -0.8497 -0.6996
15082TIP3    H266738   0.632   3.651  13.414  0.3386 -0.9001  2.3369
15083TIP3   OH266739   6.182   2.368   4.792 -0.2044  0.2873 -0.2065
15083TIP3    H166740   6.218   2.443   4.840 -0.5749  0.2269  0.1808
15083TIP3    H266741   6.088   2.383   4.793 -0.2069  0.3325 -1.0150
15084TIP3   OH266742   3.507   5.276  11.898  0.2932  0.1319 -0.3690
15084TIP3    H166743   3.450   5.349  11.874  0.4541  0.0019 -1.1850
15084TIP3    H266744   3.452   5.198  11.887 -0.0425  0.1404  1.0058
15085TIP3   OH266745   1.858   6.164   2.022 -0.1691 -0.4132 -0.0947
15085TIP3    H166746   1.806   6.184   2.099 -0.5275 -0.5903 -0.2866
15085TIP3    H266747   1.905   6.084   2.044  1.2719  0.5890  0.6779
15086TIP3   OH266748   2.912   2.725   3.501  0.2719  1.1166  0.1451
15086TIP3    H166749   2.995   2.752   3.464  0.3661 -2.3367 -2.6588
15086TIP3    H266750   2.934   2.690   3.588  2.1732 -1.3805 -1.2336
15087TIP3   OH266751   3.468   4.053  17.215  0.5228  0.3805  0.0456
15087TIP3    H166752   3.472   3.995  17.291  1.2469 -2.8073 -2.1951
15087TIP3    H266753   3.544   4.111  17.225  1.4191 -0.9222  1.0637
15088TIP3   OH266754   4.068   0.107  10.891 -0.6543 -0.5770  0.4415
15088TIP3    H166755   4.162   0.086  10.899 -0.5650 -0.1630  0.4932
15088TIP3    H266756   4.066   0.192  10.849 -1.0689 -1.6909 -1.9550
15089TIP3   OH266757   1.407   6.105  14.125  0.9693  0.3135  0.0809
15089TIP3    H166758   1.341   6.163  14.087  1.8001  0.6725 -0.8582
15089TIP3    H266759   1.420   6.138  14.214 -0.0817  0.2528  0.2706
15090TIP3   OH266760   2.692   0.244   4.818 -0.2662  0.1521 -0.1829
15090TIP3    H166761   2.622   0.180   4.802 -1.4107  1.0194  1.1202
15090TIP3    H266762   2.764   0.193   4.853 -1.1854 -0.4455  0.9040
15091TIP3   OH266763   5.972   5.498  16.620 -0.2694 -0.2690  0.5811
15091TIP3    H166764   5.950   5.531  16.533  1.0952  2.2212  1.0597
15091TIP3    H266765   6.051   5.445  16.607  0.4483  0.8185  0.3551
15092TIP3   OH266766   4.314   0.086  10.795  0.2710  0.5923  0.5144
15092TIP3    H166767   4.299   0.067  10.703  0.9788 -0.0147  0.5161
15092TIP3    H266768   4.396   0.042  10.816  0.0417  0.5875  1.4723
15093TIP3   OH266769   3.630   3.781  15.036 -0.1121  0.2041 -0.4291
15093TIP3    H166770   3.543   3.757  15.066  0.4652  0.6801  1.8105
15093TIP3    H266771   3.624   3.874  15.014  0.1425  0.6634  1.2660
15094TIP3   OH266772   4.710   1.934  13.412  0.2177  0.1961 -0.3277
15094TIP3    H166773   4.699   1.907  13.503 -0.7258 -0.3015 -0.5830
15094TIP3    H266774   4.777   1.875  13.377 -0.0391 -0.1742 -0.1967
15095TIP3   OH266775   2.419   1.556  15.866  0.9413  0.1529 -0.2702
15095TIP3    H166776   2.500   1.537  15.818  1.0574  1.6781 -0.7359
15095TIP3    H266777   2.388   1.639  15.829 -0.2908  0.1136  0.6114
15096TIP3   OH266778   1.253   0.138   3.722  0.3140  0.1366 -0.2438
15096TIP3    H166779   1.183   0.077   3.697 -1.2539  1.3993  0.8056
15096TIP3    H266780   1.324   0.082   3.752 -1.1739 -1.2248  0.9599
15097TIP3   OH266781   0.747   5.138  15.241  0.2339  0.2610 -0.1675
15097TIP3    H166782   0.738   5.046  15.265 -0.4181 -0.0265 -1.4450
15097TIP3    H266783   0.819   5.140  15.178 -0.3266  0.4920 -0.8083
15098TIP3   OH266784   3.821   2.368  15.613  0.3664  0.1661 -0.5344
15098TIP3    H166785   3.792   2.341  15.526 -0.7876 -1.3634  0.2756
15098TIP3    H266786   3.898   2.314  15.630  1.4503  1.4580 -1.1173
15099TIP3   OH266787   3.302   3.383  17.220 -0.1399 -0.2444 -0.3228
15099TIP3    H166788   3.348   3.327  17.282 -0.6176  0.1353  0.3922
15099TIP3    H266789   3.354   3.463  17.215  0.1398 -0.4532 -0.7625
15100TIP3   OH266790   2.182   2.830   5.180  0.5763 -0.4135  0.4258
15100TIP3    H166791   2.100   2.794   5.145  0.8735 -0.0104 -0.7397
15100TIP3    H266792   2.157   2.869   5.263 -1.0771  2.2819 -1.1803
15101TIP3   OH266793   3.023   0.750   5.140  0.2599  0.0481  0.6598
15101TIP3    H166794   3.061   0.780   5.222 -0.1355 -0.5615  1.0775
15101TIP3    H266795   2.956   0.687   5.166  1.6097 -1.8474 -0.1786
15102TIP3   OH266796   0.629   1.182   1.540 -0.2004  0.0286  0.0419
15102TIP3    H166797   0.584   1.099   1.521  0.0010  0.2611 -1.5533
15102TIP3    H266798   0.624   1.190   1.636 -1.4629 -1.1187  0.1099
15103TIP3   OH266799   3.149   6.055   3.922  0.1357 -0.2612  0.2108
15103TIP3    H166800   3.201   5.977   3.942 -0.7543 -0.7718  0.6101
15103TIP3    H266801   3.089   6.027   3.853  0.4561  0.3513 -0.3256
15104TIP3   OH266802   5.875   1.790   5.421  0.0406  0.4326 -0.1587
15104TIP3    H166803   5.970   1.797   5.422  0.0995 -0.2963 -0.1162
15104TIP3    H266804   5.846   1.847   5.492  0.4032  1.0912 -0.5212
15105TIP3   OH266805   0.710   0.548  10.518  0.7010 -0.1712  0.2138
15105TIP3    H166806   0.657   0.470  10.534 -0.2240 -0.0908 -2.0756
15105TIP3    H266807   0.689   0.606  10.591  1.1683 -1.9009  1.7975
15106TIP3   OH266808   2.048   4.354  14.790 -0.1420 -0.4071 -0.5784
15106TIP3    H166809   2.030   4.322  14.701  2.0199  1.8668 -1.9619
15106TIP3    H266810   1.995   4.433  14.797 -0.8380 -0.9440  0.4813
15107TIP3   OH266811   4.132   0.746  13.458  0.7284 -0.0059 -0.3230
15107TIP3    H166812   4.061   0.732  13.520  0.6881  0.6259 -0.2275
15107TIP3    H266813   4.135   0.841  13.445  1.0953 -0.0867 -0.8628
15108TIP3   OH266814   1.740   1.674  13.211  0.3576 -0.3944 -0.5537
15108TIP3    H166815   1.674   1.734  13.247 -0.1189  1.0966 -3.5278
15108TIP3    H266816   1.696   1.590  13.206  0.0834 -0.3852  1.1699
15109TIP3   OH266817   1.260   5.097   1.618  0.5460 -0.3697  0.4333
15109TIP3    H166818   1.321   5.066   1.684  1.9347  0.4206 -0.4371
15109TIP3    H266819   1.271   5.192   1.616 -1.1400 -0.1280  0.6379
15110TIP3   OH266820   4.422   3.704   1.868 -0.0922  0.5444 -0.1713
15110TIP3    H166821   4.436   3.630   1.928 -0.9758  0.8411  0.4195
15110TIP3    H266822   4.454   3.672   1.784 -1.7117 -1.0390 -0.2490
15111TIP3   OH266823   2.257   0.392   0.907 -0.2636  0.4900  0.1751
15111TIP3    H166824   2.282   0.466   0.852  0.0781  0.5415  0.3988
15111TIP3    H266825   2.250   0.319   0.846 -1.6487  0.9183 -0.2188
15112TIP3   OH266826   5.685   0.091  14.882  0.4290  0.1955 -0.1721
15112TIP3    H166827   5.683   0.176  14.926  0.6855 -0.3165  0.8459
15112TIP3    H266828   5.593   0.073  14.861  0.3791  0.7398 -0.4331
15113TIP3   OH266829   6.684   1.915   5.187 -0.0320 -0.0206  0.1415
15113TIP3    H166830   6.672   1.821   5.200 -0.5550 -0.2070 -1.4564
15113TIP3    H266831   6.740   1.943   5.259 -1.7649 -1.1004  2.0224
15114TIP3   OH266832   1.437   2.513   3.975  0.0958  0.6810  0.4604
15114TIP3    H166833   1.517   2.535   3.928  0.6176 -0.7404  0.6453
15114TIP3    H266834   1.467   2.478   4.059 -0.8028  3.6634  2.2038
15115TIP3   OH266835   1.866   5.970  16.291 -0.1303 -0.3095  0.4561
15115TIP3    H166836   1.780   6.009  16.307 -0.1186 -1.2077  3.3907
15115TIP3    H266837   1.926   6.044  16.284 -0.4930  0.3661  3.2943
15116TIP3   OH266838   1.460   4.161   4.563 -0.3115 -0.1673  0.5271
15116TIP3    H166839   1.402   4.179   4.488  0.2921  0.2138  0.1486
15116TIP3    H266840   1.548   4.161   4.526 -0.0737 -0.8813  1.0814
15117TIP3   OH266841   3.909   4.840   4.615  0.2108  0.2654 -0.3208
15117TIP3    H166842   3.947   4.872   4.697  1.7963 -0.8367 -0.5718
15117TIP3    H266843   3.964   4.766   4.591 -0.6892  0.0969 -2.0027
15118TIP3   OH266844   0.941   4.684  14.303  0.1514 -0.0957 -0.7232
15118TIP3    H166845   0.991   4.664  14.382  1.1802  1.0462 -1.0586
15118TIP3    H266846   0.856   4.714  14.335  0.9773  1.5715  0.0592
15119TIP3   OH266847   0.631   0.836  17.015 -0.1988 -0.1641  0.4391
15119TIP3    H166848   0.695   0.771  16.985 -0.0934  0.2365 -0.2177
15119TIP3    H266849   0.663   0.864  17.101  2.5903  2.7007 -1.3190
15120TIP3   OH266850   2.801   0.649   5.237  0.2039 -0.1764  0.6304
15120TIP3    H166851   2.783   0.740   5.260 -0.1486  0.4783 -1.9146
15120TIP3    H266852   2.717   0.605   5.244  0.0405  0.0829  0.3155
15121TIP3   OH266853   2.997   3.884  12.849  0.3040  0.1784  0.3629
15121TIP3    H166854   3.025   3.801  12.887  1.0747  0.2436 -0.0551
15121TIP3    H266855   2.991   3.944  12.923  0.0353 -0.1687  0.6240
15122TIP3   OH266856   1.444   2.747  15.827 -0.1287 -0.1934 -0.1238
15122TIP3    H166857   1.393   2.706  15.756  3.0633 -2.1234 -1.5406
15122TIP3    H266858   1.474   2.673  15.880  0.5062  0.9385  1.1315
15123TIP3   OH266859   1.942   6.246   1.266  0.5195 -0.0970 -0.4335
15123TIP3    H166860   1.989   6.190   1.328  1.2554 -1.8897 -2.4702
15123TIP3    H266861   1.857   6.261   1.307  0.5052 -2.2709  0.4823
15124TIP3   OH266862   0.123   5.672   1.829 -0.2087 -0.1898 -0.2716
15124TIP3    H166863   0.124   5.579   1.848 -0.2685 -0.0507  0.4250
15124TIP3    H266864   0.214   5.692   1.804 -0.0100 -0.2763  0.3690
15125TIP3   OH266865   4.392   0.142  10.523 -0.4689 -0.3461 -0.2709
15125TIP3    H166866   4.464   0.113  10.580 -1.2225 -1.8134  0.0059
15125TIP3    H266867   4.392   0.079  10.451 -1.2925 -0.1953 -0.4103
15126TIP3   OH266868   3.869   5.604  17.191  0.3835  0.3986  0.1678
15126TIP3    H166869   3.918   5.581  17.270  0.3468  3.2866  1.1344
15126TIP3    H266870   3.914   5.681  17.156 -0.4091 -0.0100 -1.9232
15127TIP3   OH266871   5.901   4.518  14.467 -0.6177 -0.3804 -0.0069
15127TIP3    H166872   5.993   4.528  14.493 -0.6846 -0.3038  0.1992
15127TIP3    H266873   5.857   4.485  14.545 -1.0571  1.0539  0.3824
15128TIP3   OH266874   0.598   1.760   4.531  0.2574  0.1974  0.2249
15128TIP3    H166875   0.610   1.670   4.562 -0.4591  0.2146  0.5713
15128TIP3    H266876   0.530   1.753   4.465 -0.8420  0.6676  1.2629
15129TIP3   OH266877   5.664   3.884   2.219 -0.3459 -0.4798  0.1656
15129TIP3    H166878   5.576   3.848   2.230 -0.4088 -0.6707 -0.8593
15129TIP3    H266879   5.661   3.969   2.262 -0.7120 -0.9463  1.0738
15130TIP3   OH266880   4.500   2.492  14.907 -0.3906 -0.8812 -0.9558
15130TIP3    H166881   4.579   2.438  14.910 -0.3881 -1.0220 -2.5898
15130TIP3    H266882   4.473   2.489  14.815 -1.6638  0.0813 -0.6334
15131TIP3   OH266883   1.609   0.639  17.139 -0.6914 -0.3887  0.1968
15131TIP3    H166884   1.598   0.582  17.063  2.3577  0.4279 -0.9820
15131TIP3    H266885   1.604   0.728  17.104 -0.0301  0.0121  1.1007
15132TIP3   OH266886   2.973   3.745  16.699  0.6663  0.0288  0.0779
15132TIP3    H166887   2.954   3.744  16.793 -4.6315 -0.1989 -0.7198
15132TIP3    H266888   2.946   3.659  16.668 -0.3871  1.0205 -1.9797
15133TIP3   OH266889   0.433   1.098  13.760  0.1578 -0.1432  0.5427
15133TIP3    H166890   0.350   1.060  13.788  0.3990 -0.8586  0.3137
15133TIP3    H266891   0.493   1.080  13.833  0.9127 -2.4296 -0.5332
15134TIP3   OH266892   0.342   2.747  16.937  0.4336  0.0757  0.2032
15134TIP3    H166893   0.421   2.791  16.906  0.3860  1.2534  1.5900
15134TIP3    H266894   0.273   2.812  16.926 -0.2349 -0.7221 -0.4255
15135TIP3   OH266895   0.077   2.706   0.650 -0.0442 -0.1737 -0.4548
15135TIP3    H166896   0.052   2.714   0.742  0.0409  0.2042 -0.4644
15135TIP3    H266897   0.043   2.786   0.609 -1.7454 -1.1824 -1.1278
15136TIP3   OH266898   4.241   2.658   6.154 -0.5462 -0.0533 -1.1886
15136TIP3    H166899   4.234   2.698   6.241 -1.3887  3.4906 -2.7117
15136TIP3    H266900   4.234   2.564   6.171  1.2269  0.3052  2.7138
15137TIP3   OH266901   3.875   2.538  15.273  0.2277  0.3269  0.1762
15137TIP3    H166902   3.792   2.583  15.286  0.8019  1.2836  0.6099
15137TIP3    H266903   3.918   2.586  15.203 -0.3358 -1.2676 -1.3361
15138TIP3   OH266904   3.762   5.094  16.539  0.3305  0.4498 -0.0897
15138TIP3    H166905   3.811   5.109  16.458  0.9964  0.6641  0.3448
15138TIP3    H266906   3.744   5.000  16.540 -0.4795  0.5744 -0.9279
15139TIP3   OH266907   1.781   3.135  11.489 -0.0447  0.1007  0.3407
15139TIP3    H166908   1.695   3.123  11.528  0.8320 -1.8309  1.8167
15139TIP3    H266909   1.782   3.078  11.412 -0.3606  0.7677 -0.1634
15140TIP3   OH266910   6.641   5.278  10.983  0.5225 -0.7844 -0.2683
15140TIP3    H166911   6.587   5.338  10.932 -1.1153 -3.1036 -1.4536
15140TIP3    H266912   6.720   5.266  10.931  0.0521 -1.0329 -0.9434
15141TIP3   OH266913   5.523   2.038   0.199 -0.4519  0.5633 -0.2119
15141TIP3    H166914   5.594   1.991   0.155 -0.2778 -0.0395  0.6839
15141TIP3    H266915   5.560   2.061   0.285 -2.2828 -2.4390  1.5160
15142TIP3   OH266916   2.573   0.350  11.831  0.3474 -0.4505 -0.1799
15142TIP3    H166917   2.488   0.307  11.841  0.3940 -0.7423 -0.9624
15142TIP3    H266918   2.608   0.355  11.919 -0.0634 -1.2030  0.0329
15143TIP3   OH266919   6.266   2.198   2.860  0.5448 -0.3771 -0.5253
15143TIP3    H166920   6.327   2.141   2.813 -1.1637 -0.5821 -2.6023
15143TIP3    H266921   6.231   2.257   2.794  0.1058  1.2232  1.0409
15144TIP3   OH266922   3.404   4.760   3.223 -0.2911 -0.3787  0.4862
15144TIP3    H166923   3.326   4.788   3.174  0.1430 -0.7840 -0.4654
15144TIP3    H266924   3.460   4.837   3.224 -1.2452  0.3467  2.3591
15145TIP3   OH266925   6.671   4.176   1.153  0.1858  0.1171 -0.4431
15145TIP3    H166926   6.760   4.210   1.167  0.1127 -0.7209  3.0747
15145TIP3    H266927   6.662   4.104   1.216 -4.0950  2.4905  2.2052
15146TIP3   OH266928   5.808   2.896   1.096  0.3683 -0.2775  0.3258
15146TIP3    H166929   5.807   2.803   1.119  1.1899 -0.5937 -0.8376
15146TIP3    H266930   5.816   2.897   1.000  0.7157  0.9862  0.3505
15147TIP3   OH266931   1.417   5.838  14.159 -0.7036 -0.6966 -0.4498
15147TIP3    H166932   1.341   5.847  14.217  0.2700 -0.4672  0.8447
15147TIP3    H266933   1.427   5.924  14.119 -1.0581 -0.6939 -0.5329
15148TIP3   OH266934   4.297   6.597   5.151  0.3548 -0.0666 -0.0909
15148TIP3    H166935   4.250   6.661   5.098  0.0719 -0.6143 -0.5072
15148TIP3    H266936   4.388   6.626   5.149  0.1106  0.7670  0.3761
15149TIP3   OH266937   4.291   2.999   4.115 -0.1152 -0.1562  0.6446
15149TIP3    H166938   4.214   3.013   4.059 -0.8157 -0.2694  1.5453
15149TIP3    H266939   4.279   2.910   4.150  0.7192 -0.3848  0.3556
15150TIP3   OH266940   2.757   5.154   3.133 -0.3698 -0.2053 -0.3886
15150TIP3    H166941   2.845   5.179   3.107  0.2045 -0.6047  1.0736
15150TIP3    H266942   2.755   5.059   3.122  0.0486 -0.4480  1.3945
15151TIP3   OH266943   6.775   5.008  15.814 -0.2615  0.2925  0.2613
15151TIP3    H166944   6.703   4.998  15.752  0.8462  0.6783 -1.1199
15151TIP3    H266945   6.735   4.988  15.899 -1.1607 -3.3494 -0.8363
15152TIP3   OH266946   4.261   0.291  13.127  0.4223  0.2893  0.1089
15152TIP3    H166947   4.224   0.378  13.113 -0.5983 -0.5047 -2.9089
15152TIP3    H266948   4.353   0.308  13.149  0.0383  2.1356  0.4783
15153TIP3   OH266949   6.800   0.783  16.769 -0.1660  0.0451  0.0922
15153TIP3    H166950   6.805   0.690  16.745 -2.7340 -0.0914 -0.1856
15153TIP3    H266951   6.852   0.790  16.848  0.4193 -1.5446 -0.1104
15154TIP3   OH266952   4.762   0.297  12.089  0.2734 -0.4411 -0.2283
15154TIP3    H166953   4.683   0.320  12.039  0.1874  1.0082  0.5160
15154TIP3    H266954   4.833   0.299  12.024 -0.2451 -1.5426 -0.8600
15155TIP3   OH266955   1.568   2.940  14.432 -0.1501 -0.6103 -0.1742
15155TIP3    H166956   1.559   2.885  14.354 -0.6281  0.3668 -0.8381
15155TIP3    H266957   1.483   2.982  14.442  0.6642  1.3142 -0.7466
15156TIP3   OH266958   5.551   2.647   1.072  0.0082  0.0374  0.5442
15156TIP3    H166959   5.646   2.633   1.073 -0.0120 -0.2048  1.8581
15156TIP3    H266960   5.523   2.619   0.985  1.3211  1.5221 -0.4093
15157TIP3   OH266961   4.158   1.509   5.457  0.4012  0.3280  0.2815
15157TIP3    H166962   4.133   1.575   5.522 -0.3852 -1.5179  1.9645
15157TIP3    H266963   4.231   1.462   5.498  1.2315  0.4051 -1.0715
15158TIP3   OH266964   1.725   1.982   4.797 -0.3273 -0.6718  0.0727
15158TIP3    H166965   1.740   2.077   4.794 -2.2863 -0.3176 -0.1389
15158TIP3    H266966   1.810   1.944   4.776  0.5959  1.0218  0.4907
15159TIP3   OH266967   1.016   6.548  10.509  0.0338  0.4184  0.4900
15159TIP3    H166968   0.953   6.601  10.461  1.1516  1.3728  0.0132
15159TIP3    H266969   0.963   6.483  10.556 -1.2054  0.4972 -0.7337
15160TIP3   OH266970   2.026   6.051  11.511 -0.0010  0.0263 -0.0799
15160TIP3    H166971   2.049   6.125  11.454 -0.3016  0.5457  0.4539
15160TIP3    H266972   2.107   6.003  11.522  0.0615 -0.0786 -0.9416
15161TIP3   OH266973   0.985   4.070   0.610 -0.1515  0.7097 -0.3945
15161TIP3    H166974   0.994   3.987   0.563 -0.3416  0.7476 -0.4995
15161TIP3    H266975   1.031   4.133   0.556  0.2822  0.6116 -0.1457
15162TIP3   OH266976   2.921   1.813   3.834 -0.4890 -0.3156 -0.0882
15162TIP3    H166977   2.843   1.845   3.880 -0.7817 -0.4271 -0.5102
15162TIP3    H266978   2.887   1.755   3.766  0.0718 -2.1923  1.1634
15163TIP3   OH266979   0.846   1.841   4.408  0.3263  0.7210  0.2097
15163TIP3    H166980   0.775   1.823   4.470  0.7391 -0.9874  0.2461
15163TIP3    H266981   0.819   1.795   4.328  2.3800 -2.0098  0.9270
15164TIP3   OH266982   1.039   4.606  12.702 -0.3494  0.0036 -0.1738
15164TIP3    H166983   0.962   4.645  12.662  0.2346  0.3695 -0.9660
15164TIP3    H266984   1.113   4.649  12.659  0.3151  0.7317  1.6141
15165TIP3   OH266985   5.001   4.248   3.248 -0.1066  0.2770  0.4818
15165TIP3    H166986   4.940   4.186   3.208  1.0629  0.9436 -2.6531
15165TIP3    H266987   4.957   4.333   3.239  0.7212  0.6037 -0.6965
15166TIP3   OH266988   4.455   1.686  14.179 -0.3240  0.6109  0.5192
15166TIP3    H166989   4.487   1.636  14.255 -0.8965  1.9677  1.7050
15166TIP3    H266990   4.403   1.623  14.130 -0.8824 -0.0257  1.8710
15167TIP3   OH266991   6.495   5.983  11.630  0.0179  0.0879 -0.2349
15167TIP3    H166992   6.591   5.984  11.627  0.0000  0.1088 -1.7983
15167TIP3    H266993   6.471   5.896  11.597 -0.4905 -0.8392  2.3997
15168TIP3   OH266994   2.359   2.585   4.224 -0.2028  0.4342  0.4206
15168TIP3    H166995   2.315   2.540   4.152  0.3409 -0.9693  0.9342
15168TIP3    H266996   2.340   2.531   4.301 -1.6736  2.4455  1.5753
15169TIP3   OH266997   2.056   2.168  12.340  0.1498 -0.1476 -0.2565
15169TIP3    H166998   2.093   2.242  12.291 -0.5396  0.1740 -0.3009
15169TIP3    H266999   2.131   2.113  12.360  0.9522  1.3895  1.2323
15170TIP3   OH267000   5.419   6.163  13.230 -0.1417 -0.1457 -0.5536
15170TIP3    H167001   5.489   6.196  13.174  0.8143  0.4528  0.9409
15170TIP3    H267002   5.439   6.198  13.316 -2.7473  0.7018 -0.2288
15171TIP3   OH267003   3.506   3.096   1.598 -0.4252  0.2553 -0.0896
15171TIP3    H167004   3.474   3.181   1.627  1.9251  0.5212  2.1429
15171TIP3    H267005   3.494   3.038   1.674  0.5873 -0.6232 -0.5606
15172TIP3   OH267006   2.922   1.398   2.451 -0.0776 -0.1390 -0.5673
15172TIP3    H167007   2.859   1.326   2.461 -0.2733 -0.2297 -2.1495
15172TIP3    H267008   3.007   1.355   2.448 -0.2334 -0.4009 -2.0751
15173TIP3   OH267009   2.205   3.760  14.954 -0.1521  0.2311 -0.2823
15173TIP3    H167010   2.213   3.669  14.983 -0.5519  0.5496  0.9025
15173TIP3    H267011   2.278   3.773  14.894  0.2282 -0.7126 -0.0412
15174TIP3   OH267012   2.051   3.224   1.840 -0.1147  0.4410  0.3388
15174TIP3    H167013   2.074   3.292   1.776  0.0601  0.6000  0.5685
15174TIP3    H267014   2.091   3.253   1.922 -0.1973  0.1542  0.4838
15175TIP3   OH267015   6.664   4.371   2.321 -0.5305 -0.5111  0.2480
15175TIP3    H167016   6.724   4.378   2.395 -0.7546  0.3379  0.3541
15175TIP3    H267017   6.718   4.335   2.250  0.7449  2.2419 -0.3221
15176TIP3   OH267018   5.224   3.179  16.381  0.2411 -0.1625  0.2878
15176TIP3    H167019   5.295   3.176  16.317 -1.0207  0.3961 -1.1831
15176TIP3    H267020   5.144   3.184  16.329 -0.7754  2.2569  1.8827
15177TIP3   OH267021   1.454   3.501   5.800 -0.2760  0.4037 -0.2306
15177TIP3    H167022   1.516   3.429   5.795 -0.3655  0.3366 -0.3900
15177TIP3    H267023   1.432   3.521   5.709 -1.3138 -0.2965 -0.1462
15178TIP3   OH267024   4.195   0.145   3.830 -0.3774  0.1994  0.4207
15178TIP3    H167025   4.164   0.215   3.773  0.4650 -0.5230 -0.9660
15178TIP3    H267026   4.284   0.126   3.799 -0.3624 -1.0591  1.1700
15179TIP3   OH267027   0.592   2.418   3.443  0.0432  0.2464  0.4102
15179TIP3    H167028   0.533   2.431   3.369  0.5178 -1.0797 -0.2157
15179TIP3    H267029   0.669   2.374   3.406  0.2981 -0.4169  1.6704
15180TIP3   OH267030   2.465   3.967   4.776  0.0683  0.5144 -0.1372
15180TIP3    H167031   2.482   3.875   4.798 -1.1235  0.2280 -0.3350
15180TIP3    H267032   2.448   4.008   4.861 -2.1989 -0.0874 -0.2289
15181TIP3   OH267033   5.426   0.745   2.398 -0.0245  0.2197  0.4773
15181TIP3    H167034   5.385   0.733   2.313 -0.9579 -0.1270  0.9564
15181TIP3    H267035   5.464   0.660   2.420  1.4463  0.6794 -0.1977
15182TIP3   OH267036   4.035   2.026  14.655 -0.3577  0.9784  0.2146
15182TIP3    H167037   4.059   1.985  14.572 -0.8388  1.6042 -0.2425
15182TIP3    H267038   4.028   1.953  14.717 -0.9927  0.3932 -0.5307
15183TIP3   OH267039   6.442   0.932   1.831 -0.5494  0.0650 -0.0198
15183TIP3    H167040   6.512   0.896   1.777 -0.9031  0.4752 -0.7788
15183TIP3    H267041   6.370   0.870   1.822 -0.9094  0.5718 -0.7424
15184TIP3   OH267042   5.511   4.820   4.910 -0.1310  0.3831  0.0552
15184TIP3    H167043   5.435   4.878   4.898 -0.0142  0.5932  0.3225
15184TIP3    H267044   5.580   4.861   4.857  0.2247  1.0084  0.9859
15185TIP3   OH267045   4.528   3.694   1.176  0.8130  0.1286  0.2591
15185TIP3    H167046   4.481   3.700   1.259  1.0811  3.2732  0.3012
15185TIP3    H267047   4.617   3.724   1.197  1.2491 -0.2755 -0.9139
15186TIP3   OH267048   0.387   2.245   5.877  0.1860 -0.1119  0.0505
15186TIP3    H167049   0.344   2.323   5.843  1.1891  0.0577 -0.8722
15186TIP3    H267050   0.318   2.178   5.876 -0.4114  0.4971 -0.1135
15187TIP3   OH267051   4.770   1.652   5.410 -0.2238 -0.3329  0.0443
15187TIP3    H167052   4.728   1.724   5.457  0.0224 -0.2205  0.0941
15187TIP3    H267053   4.856   1.686   5.385 -0.1194 -0.5970  0.0366
15188TIP3   OH267054   4.927   5.156   1.571 -0.5639  0.4927 -0.1421
15188TIP3    H167055   4.841   5.159   1.613 -1.5929 -0.3646 -2.0683
15188TIP3    H267056   4.955   5.065   1.581  0.8939  1.0896  1.8293
15189TIP3   OH267057   0.124   4.524  16.173  0.2554 -0.4787  0.3930
15189TIP3    H167058   0.188   4.466  16.134  0.1170 -0.3034 -0.1005
15189TIP3    H267059   0.168   4.609  16.180 -0.3744  0.0171 -1.2840
15190TIP3   OH267060   2.759   1.049   4.939  0.0520  0.2675  0.0381
15190TIP3    H167061   2.805   0.973   4.903 -1.2259 -0.6612  0.2969
15190TIP3    H267062   2.734   1.100   4.862 -1.1767 -0.8303 -0.3313
15191TIP3   OH267063   0.039   2.205   3.028 -0.2608 -0.1832 -0.0664
15191TIP3    H167064   0.053   2.226   2.936  0.9243  2.9111  0.6975
15191TIP3    H267065  -0.049   2.166   3.031 -0.9953  1.1202 -2.3104
15192TIP3   OH267066   3.804   6.478   6.085 -0.9332 -0.4702  0.2067
15192TIP3    H167067   3.864   6.457   6.156 -1.1667 -1.6007  0.0838
15192TIP3    H267068   3.717   6.463   6.121 -1.1094  0.2500  0.0909
15193TIP3   OH267069   3.360   2.739   4.938  0.3292  0.2429  0.4211
15193TIP3    H167070   3.274   2.762   4.973 -0.4381 -1.0585 -0.5251
15193TIP3    H267071   3.342   2.674   4.869  2.1486 -1.1354  1.1491
15194TIP3   OH267072   6.421   1.545   1.390  0.0719 -0.0380  0.0990
15194TIP3    H167073   6.409   1.497   1.472 -2.8338  0.7763  0.2399
15194TIP3    H267074   6.356   1.509   1.331  0.1665  1.3617 -0.9166
15195TIP3   OH267075   1.690   1.926   2.228 -0.4071 -0.3656 -0.3959
15195TIP3    H167076   1.660   1.989   2.294 -0.4563 -1.1926  0.4075
15195TIP3    H267077   1.785   1.925   2.237 -0.2393  1.0320 -1.7856
15196TIP3   OH267078   4.731   5.006   1.271 -0.1217 -0.0566  0.0525
15196TIP3    H167079   4.769   5.094   1.273  0.5480 -0.2899 -1.3902
15196TIP3    H267080   4.696   4.997   1.182 -1.1991 -0.8412  0.5302
15197TIP3   OH267081   1.893   2.717   3.933  0.1635 -0.1969  0.2052
15197TIP3    H167082   1.894   2.791   3.872  0.7092 -1.1648 -1.0013
15197TIP3    H267083   1.962   2.739   3.997 -0.5971  0.9503  0.6654
15198TIP3   OH267084   0.452   4.464  13.773  0.2132 -0.0840 -0.1886
15198TIP3    H167085   0.516   4.396  13.752 -1.0978 -0.7244 -2.5176
15198TIP3    H267086   0.381   4.417  13.817 -0.2888 -0.1177 -0.9974
15199TIP3   OH267087   4.971   6.022  13.040  0.2570  0.8796 -0.3520
15199TIP3    H167088   4.928   6.098  13.080 -1.2948 -1.1827  2.2536
15199TIP3    H267089   4.943   6.024  12.949 -0.5710  2.8666 -0.1011
15200TIP3   OH267090   3.134   3.637   3.683  0.0647 -0.7865 -0.0151
15200TIP3    H167091   3.183   3.717   3.664 -0.4161 -0.6092 -0.5610
15200TIP3    H267092   3.177   3.600   3.759 -1.1236  1.2506  1.7638
15201TIP3   OH267093   0.182   1.788   0.351 -0.1061  0.5312 -0.4776
15201TIP3    H167094   0.244   1.843   0.304 -1.0999  0.4241 -2.0093
15201TIP3    H267095   0.098   1.802   0.305 -0.9607 -0.1701  0.8035
15202TIP3   OH267096   5.860   2.737  14.782 -0.5014  0.6244 -0.0077
15202TIP3    H167097   5.955   2.729  14.786 -0.6311 -0.6145  2.4352
15202TIP3    H267098   5.834   2.683  14.707  0.6322 -0.1207  0.1115
15203TIP3   OH267099   5.572   6.714   2.960 -0.2208  0.0561  0.1579
15203TIP3    H167100   5.559   6.632   3.007 -0.7347 -0.8405 -1.4548
15203TIP3    H267101   5.659   6.706   2.921  0.1105  0.6886  0.7588
15204TIP3   OH267102   0.597   3.433  11.055  0.0492 -0.4256  0.2827
15204TIP3    H167103   0.657   3.496  11.093  0.1243 -0.2414 -0.1290
15204TIP3    H267104   0.652   3.358  11.033  0.2551 -0.0164 -0.6601
15205TIP3   OH267105   6.633   3.851  15.152 -0.2183  0.1322  0.6623
15205TIP3    H167106   6.551   3.842  15.199 -1.6883  1.0824 -1.5571
15205TIP3    H267107   6.635   3.777  15.091 -0.1708  0.8972 -0.2939
15206TIP3   OH267108   6.636   1.829  11.920 -0.1154 -0.4430  0.6238
15206TIP3    H167109   6.670   1.769  11.854 -0.1198  0.7513 -0.5086
15206TIP3    H267110   6.541   1.821  11.913 -0.1471  0.4123 -0.2698
15207TIP3   OH267111   1.370   3.324   0.558  0.0410  0.6953 -0.3188
15207TIP3    H167112   1.332   3.370   0.633  0.4267  1.1809 -0.4189
15207TIP3    H267113   1.345   3.232   0.572  0.8592  0.6246  0.8917
15208TIP3   OH267114   0.182   3.798  12.718  0.2824 -0.4073  0.2753
15208TIP3    H167115   0.237   3.791  12.795  1.7025 -0.4902 -0.7082
15208TIP3    H267116   0.208   3.880  12.677  0.5229 -1.0049 -0.8209
15209TIP3   OH267117   5.015   0.900   5.684 -0.2498  0.0433  0.3421
15209TIP3    H167118   5.038   0.989   5.659  0.1205  0.3201  1.5825
15209TIP3    H267119   4.927   0.908   5.722 -0.5353 -0.2506 -0.2505
15210TIP3   OH267120   1.490   5.783   2.926 -0.0257 -0.5702 -0.1223
15210TIP3    H167121   1.488   5.843   3.001 -0.9702 -1.6041  0.7079
15210TIP3    H267122   1.583   5.762   2.914  0.1272 -0.3958  0.7394
15211TIP3   OH267123   2.523   5.613   0.115 -0.2896 -0.1358  0.5258
15211TIP3    H167124   2.429   5.616   0.098 -0.1367 -0.1861 -0.3911
15211TIP3    H267125   2.532   5.552   0.188 -0.8987 -0.8545  0.0180
15212TIP3   OH267126   3.166   2.926  15.439 -0.5874  0.1646  0.2071
15212TIP3    H167127   3.114   2.935  15.358 -0.0365 -0.7117 -0.2632
15212TIP3    H267128   3.134   2.995  15.496 -0.3852  1.3768 -1.0925
15213TIP3   OH267129   6.118   2.912  16.674  0.7146 -0.4925  0.1768
15213TIP3    H167130   6.176   2.839  16.698  1.5206 -0.3273 -1.1605
15213TIP3    H267131   6.041   2.870  16.637  1.3148 -0.6994 -0.8948
15214TIP3   OH267132   1.872   4.867   0.529 -0.1202  0.2008  0.2616
15214TIP3    H167133   1.933   4.794   0.514  0.8853  0.7266  1.5453
15214TIP3    H267134   1.785   4.828   0.522  0.3636 -0.7080 -1.0116
15215TIP3   OH267135   4.003   4.325   2.581  0.6275 -0.1684  0.0389
15215TIP3    H167136   4.037   4.383   2.513  1.7400  0.2215  0.9001
15215TIP3    H267137   4.079   4.275   2.611  0.6091  1.0135  2.2849
15216TIP3   OH267138   1.659   4.683   4.388  0.0600  0.6298  0.4238
15216TIP3    H167139   1.588   4.732   4.345 -2.4969 -2.0901  1.1889
15216TIP3    H267140   1.717   4.657   4.316 -1.2044  0.6630 -0.6527
15217TIP3   OH267141   4.363   4.652  14.309  0.4275  0.3559 -0.7318
15217TIP3    H167142   4.444   4.618  14.347  0.4568 -0.5277 -1.5440
15217TIP3    H267143   4.358   4.742  14.341  1.8399  0.5019 -0.8331
15218TIP3   OH267144   1.906   5.019  12.785 -0.0526  0.4326  0.0439
15218TIP3    H167145   1.851   4.941  12.787  0.7081 -0.1262 -0.1737
15218TIP3    H267146   1.914   5.041  12.693  2.2630 -1.1208 -0.2247
15219TIP3   OH267147   1.371   3.886  14.524 -0.5696 -0.4304  0.3797
15219TIP3    H167148   1.459   3.924  14.527 -0.1237 -1.3914 -0.0894
15219TIP3    H267149   1.335   3.917  14.441 -0.5737 -0.2648  0.4417
15220TIP3   OH267150   3.564   2.037  12.335 -0.0178  0.3382  0.1977
15220TIP3    H167151   3.570   1.957  12.283 -1.0674 -0.1219  0.7502
15220TIP3    H267152   3.634   2.093  12.302  0.0352 -0.3771 -0.9493
15221TIP3   OH267153   2.602   5.729  13.877 -0.0769 -0.1560  0.3016
15221TIP3    H167154   2.560   5.652  13.840  0.7201 -0.3050 -0.3228
15221TIP3    H267155   2.554   5.746  13.958 -0.6381 -0.9480  0.1481
15222TIP3   OH267156   3.762   5.404  13.786 -0.4393  0.3400 -0.1788
15222TIP3    H167157   3.743   5.389  13.879 -0.7353  2.0764  0.0735
15222TIP3    H267158   3.700   5.472  13.760  1.9848  2.4888 -0.6805
15223TIP3   OH267159   3.560   5.643  14.449  0.4016 -0.0632 -0.4829
15223TIP3    H167160   3.607   5.641  14.366  0.3245 -0.2330 -0.5219
15223TIP3    H267161   3.467   5.646  14.423  0.2738 -2.1431 -0.4074
15224TIP3   OH267162   5.954   5.203   2.233 -0.1177 -0.7427  0.6158
15224TIP3    H167163   5.910   5.237   2.311  0.5599 -0.8272  1.0443
15224TIP3    H267164   5.884   5.195   2.168 -0.5236  0.2705  0.8980
15225TIP3   OH267165   3.728   0.501  16.486  0.7876  0.3277 -0.2739
15225TIP3    H167166   3.792   0.512  16.415  2.1527 -1.1688  0.6682
15225TIP3    H267167   3.725   0.407  16.501 -1.5405  0.3549 -0.1296
15226TIP3   OH267168   2.104   4.693   2.379  0.1081  0.5748 -0.3457
15226TIP3    H167169   2.113   4.628   2.309  1.3905 -0.0090  0.3495
15226TIP3    H267170   2.010   4.714   2.379  0.1671  1.1851 -2.7624
15227TIP3   OH267171   2.073   4.471  15.363 -0.5231 -0.0585  0.1973
15227TIP3    H167172   2.052   4.431  15.278  0.3570  1.2718 -0.7048
15227TIP3    H267173   2.057   4.403  15.427 -0.1045 -1.5009 -1.1658
15228TIP3   OH267174   6.583   2.021   4.906 -0.2053 -0.4580 -0.1763
15228TIP3    H167175   6.509   2.080   4.895  1.7294  1.9196 -1.3069
15228TIP3    H267176   6.592   1.977   4.821  0.9027  0.8294 -0.7507
15229TIP3   OH267177   5.562   4.569   2.338  0.3528  0.2692 -0.2825
15229TIP3    H167178   5.560   4.665   2.335 -1.5811  0.3595  1.5335
15229TIP3    H267179   5.482   4.542   2.293  0.2409 -0.4292  0.3246
15230TIP3   OH267180   3.908   6.635  14.821  0.1371 -0.6313  0.1971
15230TIP3    H167181   3.832   6.633  14.879  0.9911 -0.9390  1.3373
15230TIP3    H267182   3.927   6.729  14.809 -0.7661 -0.5339 -0.5891
15231TIP3   OH267183   2.899   0.818   2.197 -0.0202 -0.2892  0.5025
15231TIP3    H167184   2.954   0.853   2.127  0.6231 -2.1777  0.0257
15231TIP3    H267185   2.934   0.858   2.277 -0.4673  1.5212 -0.1387
15232TIP3   OH267186   5.004   6.412   4.760 -0.0951 -0.5135  0.2160
15232TIP3    H167187   4.972   6.482   4.703 -0.6337  1.1305  2.4111
15232TIP3    H267188   5.024   6.340   4.700 -2.6857  0.3053 -1.8177
15233TIP3   OH267189   0.190   1.386   1.106 -0.4358 -0.0071 -0.2435
15233TIP3    H167190   0.135   1.458   1.135 -0.3761 -0.8316  2.0887
15233TIP3    H267191   0.278   1.423   1.102 -0.4655  0.1663  0.5680
15234TIP3   OH267192   6.399   1.063  15.328 -0.1844 -0.0478  0.3018
15234TIP3    H167193   6.383   1.149  15.290  0.1181 -0.4831 -0.8732
15234TIP3    H267194   6.467   1.078  15.394  2.0127  0.2364 -1.8622
15235TIP3   OH267195   4.343   1.272  14.947  0.0758 -0.0383 -0.6102
15235TIP3    H167196   4.303   1.359  14.950  1.5362  0.6432  1.2677
15235TIP3    H267197   4.299   1.224  15.016 -0.8253 -0.8760 -1.7376
15236TIP3   OH267198   6.099   4.426   6.388 -0.1367  0.4572 -0.0138
15236TIP3    H167199   6.167   4.444   6.323 -1.8944  3.2704 -1.2992
15236TIP3    H267200   6.118   4.486   6.460 -0.5597  0.4042  0.1486
15237TIP3   OH267201   1.873   0.365  12.041 -0.3780  0.5080  0.4545
15237TIP3    H167202   1.790   0.318  12.044 -0.2761  0.3848  2.0022
15237TIP3    H267203   1.871   0.412  11.957 -2.2023  0.8773  0.6648
15238TIP3   OH267204   3.499   4.590   1.251 -0.1907  0.0995  0.3492
15238TIP3    H167205   3.483   4.502   1.285 -1.8140 -0.1763 -0.9668
15238TIP3    H267206   3.435   4.645   1.296 -1.3618 -0.0109 -1.0848
15239TIP3   OH267207   3.955   2.777  16.564 -0.5036  0.5340  0.0637
15239TIP3    H167208   3.990   2.857  16.605  0.7841 -0.3153  0.6981
15239TIP3    H267209   3.967   2.709  16.631  0.9032 -0.7292 -1.4147
15240TIP3   OH267210   1.661   2.127   1.773  0.1525 -0.3624 -0.1338
15240TIP3    H167211   1.626   2.216   1.763  2.2172  0.5509  0.1510
15240TIP3    H267212   1.704   2.109   1.689 -0.5785 -1.2802 -0.3294
15241TIP3   OH267213   3.048   3.303   4.253  0.6389 -0.0746  0.7807
15241TIP3    H167214   2.959   3.268   4.248  0.8243 -0.4486 -0.3900
15241TIP3    H267215   3.068   3.307   4.346 -0.2706 -0.8540  1.0227
15242TIP3   OH267216   1.671   3.221   2.658 -0.6234 -0.2504  0.9960
15242TIP3    H167217   1.588   3.269   2.655 -0.7913 -0.5710 -0.5205
15242TIP3    H267218   1.709   3.245   2.742 -1.4376  1.2917  0.9769
15243TIP3   OH267219   3.838   1.257  13.935  0.1494  0.3829 -0.0221
15243TIP3    H167220   3.784   1.228  13.861 -1.7863  0.6357  1.2120
15243TIP3    H267221   3.830   1.186  13.999 -0.8964  1.5344  1.2004
15244TIP3   OH267222   4.763   1.002  13.780  0.1827 -1.0287  0.0679
15244TIP3    H167223   4.740   0.931  13.719 -1.1031 -0.7984  0.2540
15244TIP3    H267224   4.680   1.025  13.822 -0.1677  2.6816 -2.2080
15245TIP3   OH267225   1.167   6.092   0.493 -0.5975 -0.0463 -0.1820
15245TIP3    H167226   1.198   6.010   0.455  0.2033  0.4534 -0.6325
15245TIP3    H267227   1.132   6.066   0.579  1.0108 -0.6745  0.3326
15246TIP3   OH267228   4.058   2.667  15.038 -0.2941 -0.0283 -0.1525
15246TIP3    H167229   4.101   2.603  14.981  0.6980  0.1754  0.3458
15246TIP3    H267230   4.047   2.744  14.983 -1.4918 -0.6058 -0.7561
15247TIP3   OH267231   2.872   1.200  16.100 -0.0782  0.5400 -0.4304
15247TIP3    H167232   2.839   1.155  16.022 -0.5705  1.4418 -0.7566
15247TIP3    H267233   2.960   1.165  16.113 -0.4539 -0.5258 -0.6542
15248TIP3   OH267234   1.091   2.356  14.121  0.3621 -0.3567 -0.0916
15248TIP3    H167235   1.028   2.421  14.154 -0.0500  0.2571 -1.9359
15248TIP3    H267236   1.169   2.369  14.174 -0.5354 -0.0432  1.1990
15249TIP3   OH267237   6.782   1.982   2.566  0.3378  0.4521  0.0337
15249TIP3    H167238   6.759   1.920   2.635  0.8242 -2.0002 -1.8420
15249TIP3    H267239   6.871   2.011   2.588 -0.1306  1.0274  1.2631
15250TIP3   OH267240   6.477   5.592   4.447  0.2046  0.1735  0.1342
15250TIP3    H167241   6.481   5.602   4.352 -0.9663  1.6833  0.1964
15250TIP3    H267242   6.454   5.680   4.479 -1.8177 -0.8271  1.6146
15251TIP3   OH267243   2.649   3.949   1.881  0.6998 -0.2001 -0.1595
15251TIP3    H167244   2.682   3.906   1.960  0.3434 -1.8098 -0.8521
15251TIP3    H267245   2.572   3.898   1.856 -0.5886  1.6845 -0.2673
15252TIP3   OH267246   3.992   0.693  12.065 -0.0696  0.0870 -0.0485
15252TIP3    H167247   3.927   0.637  12.022 -0.1113  0.6281 -0.7074
15252TIP3    H267248   3.948   0.777  12.073 -0.5114 -0.3004  2.1795
15253TIP3   OH267249   4.151   3.312  15.881  0.3574  0.3351 -0.7926
15253TIP3    H167250   4.237   3.341  15.852  0.5734  0.9008  0.3950
15253TIP3    H267251   4.167   3.229  15.926  0.5703  1.3388  1.0698
15254TIP3   OH267252   6.628   3.151  15.261  0.3199  0.2900 -0.4845
15254TIP3    H167253   6.612   3.106  15.178  1.9064 -1.9744  0.3397
15254TIP3    H267254   6.593   3.092  15.328  1.6515  0.6803  0.6014
15255TIP3   OH267255   5.364   4.469  11.014 -0.1845 -0.2291 -0.0671
15255TIP3    H167256   5.450   4.457  10.973 -0.0094  0.6676  0.0160
15255TIP3    H267257   5.303   4.474  10.940  0.0077  0.4071 -0.1913
15256TIP3   OH267258   2.642   1.450   1.042  0.5816  0.2197  0.1051
15256TIP3    H167259   2.673   1.498   0.966 -0.6512 -1.2820 -1.4303
15256TIP3    H267260   2.719   1.402   1.073  1.0005  0.5054 -0.4649
15257TIP3   OH267261   5.883   4.677   1.223 -0.4891 -0.3760  0.1924
15257TIP3    H167262   5.820   4.744   1.249 -0.8476 -0.4874 -0.3718
15257TIP3    H267263   5.951   4.725   1.174 -0.3498 -0.3155  0.4443
15258TIP3   OH267264   6.791   5.224  13.395  0.2179 -0.0493  0.4675
15258TIP3    H167265   6.830   5.153  13.445  0.2367 -0.7426 -0.4919
15258TIP3    H267266   6.865   5.282  13.375  0.1224  0.5042  1.6439
15259TIP3   OH267267   3.385   1.021  14.206 -0.1474 -0.0366  0.0197
15259TIP3    H167268   3.411   1.112  14.221 -1.0225  0.0532  1.1503
15259TIP3    H267269   3.290   1.026  14.191 -0.4950 -0.8940  1.7171
15260TIP3   OH267270   2.271   4.772   3.797  0.5308 -0.2273 -0.4812
15260TIP3    H167271   2.293   4.697   3.852 -0.1263 -0.4165 -0.4743
15260TIP3    H267272   2.209   4.823   3.849  1.3642  0.6087 -0.2697
15261TIP3   OH267273   1.671   1.598  14.727 -0.1157 -0.0652 -0.4948
15261TIP3    H167274   1.630   1.560  14.650  0.5884  0.1541 -0.9826
15261TIP3    H267275   1.600   1.603  14.792 -0.6571 -0.4459 -1.0478
15262TIP3   OH267276   3.352   4.346  16.771 -0.2714  0.0954 -0.1519
15262TIP3    H167277   3.395   4.261  16.772  0.5946  0.5154 -0.8180
15262TIP3    H267278   3.401   4.398  16.834  0.1391  0.5376 -0.8247
15263TIP3   OH267279   5.011   5.140   2.513 -0.2819 -0.3896  0.1759
15263TIP3    H167280   5.019   5.053   2.474 -0.3439 -0.7859  1.0245
15263TIP3    H267281   4.969   5.124   2.597  0.8592  0.3070  0.9071
15264TIP3   OH267282   5.095   2.001   2.155  0.0606  0.1079 -0.2910
15264TIP3    H167283   5.147   2.032   2.081 -0.6261 -1.1548 -1.3474
15264TIP3    H267284   5.055   2.080   2.192  2.1330  1.0302  0.1381
15265TIP3   OH267285   1.890   5.914  11.313 -0.1019  0.2234 -0.1308
15265TIP3    H167286   1.932   5.844  11.263  0.2125 -0.5950  1.2034
15265TIP3    H267287   1.955   5.938  11.379 -1.4365 -0.6273  1.5809
15266TIP3   OH267288   3.935   5.204  12.273  0.4767 -0.1776  0.3328
15266TIP3    H167289   3.873   5.237  12.338  0.7574  0.5462  0.2420
15266TIP3    H267290   3.919   5.109  12.271 -1.3588  0.1067 -0.4619
15267TIP3   OH267291   1.420   2.930   0.011 -0.0274 -0.0978  0.1562
15267TIP3    H167292   1.421   3.025   0.025  2.1297  0.4980 -3.0042
15267TIP3    H267293   1.350   2.916  -0.053 -0.1004 -0.6083  0.3454
15268TIP3   OH267294   3.089   1.956  15.692  0.3085  0.0820  0.0849
15268TIP3    H167295   3.050   2.041  15.675 -0.0262 -0.3599 -1.5170
15268TIP3    H267296   3.181   1.975  15.711  0.2168  0.8003 -0.1646
15269TIP3   OH267297   2.778   4.991   0.586 -0.0501 -0.3292  0.2356
15269TIP3    H167298   2.865   4.998   0.626 -0.1149 -0.2579  0.3654
15269TIP3    H267299   2.726   4.940   0.649  0.4704 -2.2409 -0.8022
15270TIP3   OH267300   5.361   6.095  17.069 -0.1777 -0.8215 -0.1833
15270TIP3    H167301   5.350   6.016  17.016 -0.5803  0.3569 -1.9160
15270TIP3    H267302   5.445   6.082  17.113  0.5458 -1.5404 -1.6884
15271TIP3   OH267303   3.763   6.795  12.285  0.1496 -0.5487  0.6491
15271TIP3    H167304   3.819   6.863  12.322  0.0115  0.1548 -0.3952
15271TIP3    H267305   3.677   6.810  12.325  0.2198 -0.3551  0.7254
15272TIP3   OH267306   3.324   4.920  16.894 -0.2668 -0.3765 -0.6873
15272TIP3    H167307   3.389   4.946  16.828 -0.5027 -0.2563 -0.8746
15272TIP3    H267308   3.313   4.826  16.880  0.8356 -0.6566  0.2133
15273TIP3   OH267309   1.314   6.681   4.197 -0.0581  0.2681  0.0759
15273TIP3    H167310   1.346   6.659   4.285  0.1630 -0.2036 -0.1216
15273TIP3    H267311   1.371   6.634   4.138 -1.2279 -0.7589 -0.2828
15274TIP3   OH267312   4.384   0.808  10.497  0.6226  0.2602 -0.0940
15274TIP3    H167313   4.331   0.824  10.419 -0.5828  0.9302  0.8298
15274TIP3    H267314   4.354   0.874  10.560  0.2815 -1.4194  1.5607
15275TIP3   OH267315   1.087   4.908   4.890 -0.3735  0.1589 -0.3109
15275TIP3    H167316   1.178   4.937   4.896 -0.8724  1.5047  2.3134
15275TIP3    H267317   1.037   4.988   4.870 -1.3601  0.4958  2.9265
15276TIP3   OH267318   4.046   6.365  15.892 -0.2673  0.3322  0.0902
15276TIP3    H167319   3.970   6.315  15.920  0.2189 -0.6426 -0.2835
15276TIP3    H267320   4.012   6.428  15.829 -0.9046  0.5357  0.6331
15277TIP3   OH267321   0.613   0.493   3.949  0.5894  0.7423 -0.0544
15277TIP3    H167322   0.538   0.435   3.935  2.5620 -2.2559  1.0104
15277TIP3    H267323   0.656   0.497   3.863  0.7777  0.0885  0.0032
15278TIP3   OH267324   4.919   3.134  11.439 -0.8663 -0.4073 -0.1738
15278TIP3    H167325   4.995   3.120  11.496 -2.6176 -1.0827  2.1600
15278TIP3    H267326   4.872   3.207  11.480 -2.7123 -1.5757 -0.0944
15279TIP3   OH267327   2.553   1.379  16.806 -0.2518 -0.3368 -0.0814
15279TIP3    H167328   2.495   1.345  16.737  0.0585 -1.0603  0.0040
15279TIP3    H267329   2.581   1.464  16.774  0.1458 -0.8052 -1.0027
15280TIP3   OH267330   1.354   4.371   1.067  0.3404  0.0627 -0.0679
15280TIP3    H167331   1.415   4.366   1.141  2.2825  0.2116 -1.5684
15280TIP3    H267332   1.271   4.398   1.106  1.7327  1.9288  1.8502
15281TIP3   OH267333   0.312   1.329  15.784 -0.2652 -0.4245  0.6372
15281TIP3    H167334   0.294   1.421  15.762 -1.2430 -0.2319  2.1018
15281TIP3    H267335   0.316   1.328  15.879  2.5639 -1.4318  0.5961
15282TIP3   OH267336   6.158   6.150  13.617  0.1936 -0.2682 -0.3930
15282TIP3    H167337   6.068   6.177  13.637  0.8686  2.4102 -0.6676
15282TIP3    H267338   6.151   6.056  13.602 -2.6230 -0.1142 -0.6695
15283TIP3   OH267339   2.499   5.867  11.260  0.4828  0.0771 -0.0669
15283TIP3    H167340   2.587   5.904  11.257  0.2749  0.8492  2.0310
15283TIP3    H267341   2.445   5.935  11.300 -0.6269 -1.1844  0.6823
15284TIP3   OH267342   0.461   1.043  17.150 -0.4494 -0.2495 -0.3175
15284TIP3    H167343   0.505   1.063  17.233 -1.8499  0.3160  0.3228
15284TIP3    H267344   0.503   1.101  17.087  0.3044 -0.3360  0.0897
15285TIP3   OH267345   0.518   2.369   4.033  0.0822  0.2786  0.4626
15285TIP3    H167346   0.533   2.391   4.125 -0.2769  0.6500  0.4367
15285TIP3    H267347   0.461   2.439   4.001 -1.0622 -0.6717  0.3560
15286TIP3   OH267348   0.763   3.756   3.647  0.0761 -0.1917 -0.5779
15286TIP3    H167349   0.710   3.753   3.726 -1.3157 -1.7888 -1.5030
15286TIP3    H267350   0.734   3.836   3.602 -1.4247 -0.9098 -0.9499
15287TIP3   OH267351   1.609   4.876   0.611 -0.2295 -0.0225 -0.4697
15287TIP3    H167352   1.607   4.814   0.683 -0.9085  1.9190  1.2711
15287TIP3    H267353   1.596   4.962   0.652  1.1037  1.3493 -2.7067
15288TIP3   OH267354   2.511   4.279  16.126  0.0130  0.5891 -0.2930
15288TIP3    H167355   2.604   4.291  16.148 -0.3927 -1.1470  3.1211
15288TIP3    H267356   2.512   4.232  16.043  2.2681 -0.1019  0.0445
15289TIP3   OH267357   4.220   0.185  11.580 -0.0769  0.0048 -0.2310
15289TIP3    H167358   4.293   0.134  11.546 -0.7750 -0.1145 -1.5805
15289TIP3    H267359   4.223   0.267  11.531 -1.2033 -0.2346 -0.7032
15290TIP3   OH267360   1.252   0.907   3.834  0.0961  0.4366 -0.0577
15290TIP3    H167361   1.194   0.980   3.815  1.4122  1.7675  0.7849
15290TIP3    H267362   1.307   0.898   3.756 -0.3676  0.0248 -0.3428
15291TIP3   OH267363   5.720   0.731  14.395  0.3549 -0.0163 -0.1542
15291TIP3    H167364   5.686   0.820  14.385 -0.0752 -0.1778 -0.1450
15291TIP3    H267365   5.688   0.702  14.480  0.0725 -0.3595 -0.3707
15292TIP3   OH267366   4.537   5.181   2.683 -0.2595 -0.4448  0.3184
15292TIP3    H167367   4.586   5.250   2.726 -0.6338 -0.2462  0.4307
15292TIP3    H267368   4.472   5.227   2.630  0.1002 -0.6860 -0.3535
15293TIP3   OH267369   1.030   3.521   2.070 -0.0874 -0.1790  0.5037
15293TIP3    H167370   1.013   3.582   1.998 -0.4178  0.2639  0.9463
15293TIP3    H267371   0.970   3.448   2.053  1.8526 -1.4586 -1.2480
15294TIP3   OH267372   5.227   5.849   4.044  0.5050  0.0657 -0.2797
15294TIP3    H167373   5.295   5.847   3.977 -0.3620  0.3840 -1.1970
15294TIP3    H267374   5.229   5.762   4.083  2.2799  0.4598  0.6006
15295TIP3   OH267375   0.726   0.987   2.140  0.2651 -0.0088  0.1099
15295TIP3    H167376   0.701   0.970   2.050  0.0177 -2.6141  0.5918
15295TIP3    H267377   0.666   1.056   2.169 -0.7182 -0.2543 -1.2442
15296TIP3   OH267378   6.311   4.431   3.405  0.0642 -0.3488  0.1027
15296TIP3    H167379   6.284   4.454   3.316  0.3744 -0.9090 -0.1443
15296TIP3    H267380   6.229   4.424   3.454 -0.0371  1.3165  0.2155
15297TIP3   OH267381   4.337   4.129   5.402  0.5110  0.5082 -0.0903
15297TIP3    H167382   4.357   4.038   5.421  1.5262  0.7993  0.3220
15297TIP3    H267383   4.274   4.155   5.469  0.0225  0.0503 -0.3634
15298TIP3   OH267384   4.395   2.622   1.940 -0.2126  0.1000 -0.1678
15298TIP3    H167385   4.424   2.652   1.854  1.3923 -1.7115 -0.3154
15298TIP3    H267386   4.310   2.581   1.923 -0.1918  0.3012 -0.7844
15299TIP3   OH267387   5.675   0.852   2.466 -0.2253 -0.2828  0.3216
15299TIP3    H167388   5.609   0.802   2.418  0.9147 -2.6825  1.1249
15299TIP3    H267389   5.629   0.883   2.544 -1.2238  0.9158 -0.6964
15300TIP3   OH267390   1.362   1.635  12.884 -0.0200 -0.4309 -0.3097
15300TIP3    H167391   1.297   1.699  12.911 -0.2642 -0.9177  0.2970
15300TIP3    H267392   1.426   1.684  12.833 -0.7590  0.0882 -0.7354
15301TIP3   OH267393   5.815   1.904   5.887  0.1368  0.1730 -0.2737
15301TIP3    H167394   5.857   1.938   5.966  0.5679  1.3136 -0.9880
15301TIP3    H267395   5.784   1.817   5.913 -0.1557  0.7147  1.2950
15302TIP3   OH267396   0.821   1.816  12.105  0.3571 -0.1003 -0.8512
15302TIP3    H167397   0.862   1.840  12.188 -0.0896 -1.4211 -0.2320
15302TIP3    H267398   0.731   1.845  12.113  0.2632 -0.4038 -0.7896
15303TIP3   OH267399   1.734   6.362  13.821 -0.2250 -0.4053 -0.1751
15303TIP3    H167400   1.701   6.452  13.818  0.1958 -0.2785 -1.6779
15303TIP3    H267401   1.829   6.371  13.814  0.2311 -0.8063  3.4346
15304TIP3   OH267402   2.102   4.979   2.880  0.1323  0.0486 -0.2359
15304TIP3    H167403   2.055   4.995   2.962  0.5676 -0.1119  0.0487
15304TIP3    H267404   2.132   4.888   2.887  2.2140  0.7363  0.4822
15305TIP3   OH267405   4.702   0.599  13.548  0.0133 -0.4123  0.2247
15305TIP3    H167406   4.612   0.582  13.522  0.7214 -2.0880 -1.3627
15305TIP3    H267407   4.714   0.548  13.628 -0.1753 -1.0023 -0.1170
15306TIP3   OH267408   0.398   0.364   3.009 -0.3571  0.4491 -0.0223
15306TIP3    H167409   0.442   0.378   2.925 -0.0919  0.9225  0.1942
15306TIP3    H267410   0.424   0.275   3.035 -0.9429  0.0575 -0.7375
15307TIP3   OH267411   6.308   0.389  10.922 -0.2852  0.4081  0.8748
15307TIP3    H167412   6.393   0.345  10.929 -0.3096  0.2628  0.2609
15307TIP3    H267413   6.315   0.444  10.844 -0.7897  0.3238  0.7684
15308TIP3   OH267414   0.182   0.218  17.160  0.1445 -0.2835  0.3372
15308TIP3    H167415   0.229   0.284  17.210  1.5117 -1.4716  0.6985
15308TIP3    H267416   0.248   0.180  17.102 -0.7256 -0.9857 -0.2212
15309TIP3   OH267417   1.134   5.692  11.641  0.3526 -0.2174 -0.0922
15309TIP3    H167418   1.103   5.649  11.562 -1.4885  0.7717  0.0315
15309TIP3    H267419   1.204   5.750  11.612 -1.6558  1.7113 -1.4626
15310TIP3   OH267420   2.339   3.670  16.411 -0.1436 -0.2117  0.0809
15310TIP3    H167421   2.270   3.731  16.436  0.9052  1.0188  0.0669
15310TIP3    H267422   2.294   3.604  16.358 -0.9293  1.9393 -2.1432
15311TIP3   OH267423   3.030   6.259   4.801  0.0348 -0.2797 -0.5125
15311TIP3    H167424   2.969   6.190   4.773 -0.6717 -0.5566  1.5178
15311TIP3    H267425   3.115   6.215   4.804 -0.6095 -1.6026  2.1127
15312TIP3   OH267426   4.147   6.379  15.229 -0.2538  0.0806  0.5792
15312TIP3    H167427   4.078   6.421  15.280  1.3771  1.0910  2.0790
15312TIP3    H267428   4.222   6.375  15.289  1.0263 -0.8802 -1.0017
15313TIP3   OH267429   2.177   5.084  15.118  0.4838 -0.2447 -0.4902
15313TIP3    H167430   2.089   5.048  15.107 -0.7677  1.8877  1.5067
15313TIP3    H267431   2.229   5.010  15.147 -1.3697 -1.0630  1.0127
15314TIP3   OH267432   3.705   4.685  11.786 -0.1566  0.1548 -0.1423
15314TIP3    H167433   3.785   4.641  11.813  0.3542  0.7865 -0.6045
15314TIP3    H267434   3.719   4.706  11.693 -0.9429  0.0734 -0.2898
15315TIP3   OH267435   6.164   5.205   5.586 -0.2176 -0.5575 -0.0178
15315TIP3    H167436   6.181   5.227   5.677 -1.0448 -0.7082  0.1819
15315TIP3    H267437   6.070   5.218   5.575 -0.1318 -0.5778 -0.8382
15316TIP3   OH267438   4.272   3.790   2.373  0.2550  0.1293 -0.4543
15316TIP3    H167439   4.325   3.797   2.294  0.5713  0.2395 -0.2366
15316TIP3    H267440   4.281   3.699   2.400 -1.0346 -0.2987 -1.3476
15317TIP3   OH267441   3.193   2.211  15.078 -0.0457  0.1655 -0.1966
15317TIP3    H167442   3.209   2.297  15.039  0.7487 -0.2455 -0.8100
15317TIP3    H267443   3.138   2.229  15.154 -2.0731  0.9653 -1.7691
15318TIP3   OH267444   0.156   2.403  12.721  0.6288  0.2421  0.0764
15318TIP3    H167445   0.250   2.401  12.704  0.5895  0.7878 -0.2288
15318TIP3    H267446   0.116   2.386  12.635  0.4482 -0.3283  0.2670
15319TIP3   OH267447   6.347   3.507   5.662 -0.1692 -0.0985  0.6067
15319TIP3    H167448   6.353   3.454   5.582  0.1721 -1.6464  1.6141
15319TIP3    H267449   6.435   3.507   5.698 -0.3128  0.6207  0.9656
15320TIP3   OH267450   3.136   0.427   2.586 -0.3843  0.0597  0.3561
15320TIP3    H167451   3.060   0.398   2.534 -0.6069 -0.2027  0.8244
15320TIP3    H267452   3.119   0.392   2.673  0.2569  0.0408  0.4719
15321TIP3   OH267453   4.380   4.944   2.737  0.5300  0.1288 -0.0838
15321TIP3    H167454   4.423   5.029   2.724  0.0091  0.2518 -1.1132
15321TIP3    H267455   4.293   4.956   2.699 -0.1105 -0.3900  1.1758
15322TIP3   OH267456   5.506   0.395  13.619  0.6704  0.1587  0.0033
15322TIP3    H167457   5.598   0.367  13.623  0.4034 -0.6818  0.3724
15322TIP3    H267458   5.484   0.390  13.526  1.0724  0.6474 -0.1273
15323TIP3   OH267459   0.455   3.074  13.026  0.4230 -0.0023  0.4963
15323TIP3    H167460   0.516   3.049  13.096 -0.1033 -1.4972  0.4593
15323TIP3    H267461   0.468   3.169  13.016  0.9004  0.1625  2.2400
15324TIP3   OH267462   0.562   0.234   5.535 -0.1399  0.0947  0.4301
15324TIP3    H167463   0.567   0.198   5.623  1.2771 -1.9658 -0.4199
15324TIP3    H267464   0.478   0.204   5.501 -0.6745  0.8685  1.0468
15325TIP3   OH267465   5.379   6.296   2.242 -0.4160  0.2110  0.1478
15325TIP3    H167466   5.430   6.220   2.214 -0.4588  0.0914  0.3882
15325TIP3    H267467   5.438   6.347   2.297 -0.5650  0.0473  0.4667
15326TIP3   OH267468   4.700   3.616   5.824  0.4140  0.3321  0.0885
15326TIP3    H167469   4.627   3.587   5.880 -1.0781  1.2107 -1.3183
15326TIP3    H267470   4.719   3.705   5.853  1.6002 -0.2150  1.0705
15327TIP3   OH267471   2.106   4.765  14.956 -0.9702  0.1411  0.1893
15327TIP3    H167472   2.080   4.731  15.042  0.2783  1.2091  1.0322
15327TIP3    H267473   2.199   4.742  14.948  0.2344  3.8868  1.2079
15328TIP3   OH267474   1.984   3.039   0.285 -0.5022 -0.6535 -0.0866
15328TIP3    H167475   2.012   3.115   0.235  0.7546 -0.3259  1.0591
15328TIP3    H267476   1.999   2.965   0.225 -0.2604 -0.1583 -0.6537
15329TIP3   OH267477   3.780   2.088  15.724  0.2979 -0.0710  0.2108
15329TIP3    H167478   3.732   2.037  15.658 -0.9472  1.4173 -0.1188
15329TIP3    H267479   3.868   2.097  15.688 -0.7488  2.0407 -2.1445
15330TIP3   OH267480   3.848   1.517   4.286  0.1642  0.0523  0.1448
15330TIP3    H167481   3.842   1.601   4.332 -0.0706 -0.5544  1.2631
15330TIP3    H267482   3.942   1.500   4.278  0.2151 -0.0317  0.8106
15331TIP3   OH267483   1.864   3.653  13.795  0.0009  0.7250  0.4793
15331TIP3    H167484   1.897   3.601  13.722  0.5538 -1.2197  2.0151
15331TIP3    H267485   1.781   3.689  13.764 -0.2585 -0.8514 -0.7738
15332TIP3   OH267486   5.197   0.327   1.216 -0.4981 -0.3287  0.4931
15332TIP3    H167487   5.291   0.326   1.230 -0.4412 -0.6480  0.1149
15332TIP3    H267488   5.164   0.249   1.261 -0.6126 -0.0806  0.8376
15333TIP3   OH267489   3.008   6.732  12.628 -0.4788 -0.2940 -0.3025
15333TIP3    H167490   2.970   6.707  12.544  0.5600 -0.6310 -0.6888
15333TIP3    H267491   3.047   6.818  12.612  0.3446 -0.6713 -0.3765
15334TIP3   OH267492   0.244   5.536   0.244 -0.0143  0.4063  0.1447
15334TIP3    H167493   0.324   5.589   0.243  0.7558 -0.7020  1.0480
15334TIP3    H267494   0.173   5.601   0.248  0.9038  1.3967  1.3162
15335TIP3   OH267495   5.149   4.933  15.919 -0.0316  0.0509  0.9333
15335TIP3    H167496   5.093   4.995  15.967 -1.4243  0.1626 -0.7575
15335TIP3    H267497   5.093   4.858  15.903  0.9890 -0.7565  1.0536
15336TIP3   OH267498   2.278   1.335   3.730  0.2753  0.4415  0.3916
15336TIP3    H167499   2.230   1.253   3.714  1.6049 -0.0392 -1.4858
15336TIP3    H267500   2.368   1.307   3.747  0.7382  1.4935 -0.2419
15337TIP3   OH267501   5.882   6.438  14.864 -0.0558 -0.3066  0.4711
15337TIP3    H167502   5.880   6.514  14.922 -1.4100  2.2895 -2.6300
15337TIP3    H267503   5.967   6.444  14.820 -0.1484 -0.6188  0.2455
15338TIP3   OH267504   5.984   4.143   4.253  0.1734  0.1675  0.0186
15338TIP3    H167505   5.967   4.237   4.248 -0.1566  0.1658  0.9957
15338TIP3    H267506   6.050   4.133   4.321  0.6358 -0.2657 -0.4786
15339TIP3   OH267507   5.424   0.204  16.738  0.0504  0.2621  0.3183
15339TIP3    H167508   5.335   0.214  16.703  0.3782 -0.8286 -0.8920
15339TIP3    H267509   5.412   0.153  16.818 -0.4190  0.2949  0.2759
15340TIP3   OH267510   5.360   3.397  16.216  0.1776  0.6530 -0.6019
15340TIP3    H167511   5.450   3.427  16.228  0.1552  1.8761 -2.8475
15340TIP3    H267512   5.311   3.439  16.287  1.1761  0.9762 -0.0875
15341TIP3   OH267513   0.335   0.419  12.835  0.5345  0.0251  0.4972
15341TIP3    H167514   0.285   0.337  12.826 -2.1760  1.7722 -3.0145
15341TIP3    H267515   0.393   0.420  12.759 -0.2372  1.7467 -0.1154
15342TIP3   OH267516   5.017   1.191  12.418 -0.0928 -0.5175 -0.2438
15342TIP3    H167517   4.997   1.165  12.508  1.3232 -1.4753 -0.1574
15342TIP3    H267518   5.097   1.142  12.397  3.1000  3.9987 -0.0023
15343TIP3   OH267519   3.977   3.056   0.371  0.1146  0.0254 -0.0279
15343TIP3    H167520   3.904   3.004   0.336  0.3383 -0.7120  0.5854
15343TIP3    H267521   4.022   3.088   0.293 -1.5462  1.5059 -0.4620
15344TIP3   OH267522   1.951   2.176  14.010 -0.1482  0.8663 -0.6621
15344TIP3    H167523   1.999   2.258  14.012  0.7286  0.5191  3.7973
15344TIP3    H267524   1.865   2.197  14.046 -0.6675  0.1804 -1.4639
15345TIP3   OH267525   1.190   4.964  14.197  0.0709  0.0121  0.1859
15345TIP3    H167526   1.208   4.932  14.285 -0.3876 -0.1494  0.2279
15345TIP3    H267527   1.256   5.031  14.181  0.7205 -0.5965  0.2979
15346TIP3   OH267528   6.560   5.504  16.930 -0.0070  0.1596  0.1054
15346TIP3    H167529   6.597   5.499  16.842  1.6987 -1.9672  0.8556
15346TIP3    H267530   6.623   5.459  16.985 -1.2648  1.0018  2.3758
15347TIP3   OH267531   6.052   6.026   1.238  0.1453 -0.0145 -0.3239
15347TIP3    H167532   6.094   5.940   1.234 -1.3445 -0.7127 -2.7909
15347TIP3    H267533   6.038   6.050   1.147  0.6182  2.9529  0.2862
15348TIP3   OH267534   6.757   1.854  15.746 -0.5133  0.0235 -0.4121
15348TIP3    H167535   6.820   1.815  15.685  1.3637  0.8628  0.8918
15348TIP3    H267536   6.673   1.816  15.721  0.7024 -2.3213 -1.2902
15349TIP3   OH267537   5.000   0.134  13.111  0.6401  0.3421  0.2425
15349TIP3    H167538   5.019   0.163  13.021  0.7092  0.3227  0.2510
15349TIP3    H267539   5.077   0.083  13.136 -0.4634 -1.8572 -0.6223
15350TIP3   OH267540   1.140   6.029   5.002  0.1911  0.9550 -0.1525
15350TIP3    H167541   1.220   5.992   5.038  0.2668  0.5079 -0.7694
15350TIP3    H267542   1.069   5.982   5.047  0.2646  1.5129  0.5614
15351TIP3   OH267543   2.875   0.486  13.549 -0.1791 -0.0073  0.8293
15351TIP3    H167544   2.835   0.445  13.626 -1.0899 -1.6339 -0.4577
15351TIP3    H267545   2.835   0.442  13.474 -0.1718  2.3133 -0.6403
15352TIP3   OH267546   2.717   4.138   1.168  0.1689  0.3506 -0.0337
15352TIP3    H167547   2.649   4.071   1.161  1.0666 -0.5254 -0.5835
15352TIP3    H267548   2.797   4.089   1.188  1.2195  1.0507 -2.2673
15353TIP3   OH267549   1.733   5.792   3.672  0.2126  0.1217  0.0135
15353TIP3    H167550   1.796   5.864   3.673  0.5604 -0.1753 -0.3586
15353TIP3    H267551   1.655   5.828   3.716 -0.1746  1.2338 -1.5063
15354TIP3   OH267552   1.547   5.292  12.807 -0.5058  0.4362 -0.9056
15354TIP3    H167553   1.622   5.350  12.799  0.3671 -0.6395 -0.7881
15354TIP3    H267554   1.505   5.317  12.889 -0.6495  1.4500 -1.2762
15355TIP3   OH267555   3.053   5.803   4.927  0.3456  0.3979 -0.0602
15355TIP3    H167556   3.100   5.856   4.991 -2.0716 -0.7097  2.9111
15355TIP3    H267557   2.977   5.855   4.904 -1.7131 -1.2410  2.4024
15356TIP3   OH267558   5.064   5.163  12.779 -0.3336 -0.4628 -0.1173
15356TIP3    H167559   5.061   5.233  12.715 -1.7760  0.3736  0.8130
15356TIP3    H267560   5.068   5.208  12.864 -1.6056 -1.4542  0.5161
15357TIP3   OH267561   1.330   5.032  11.597 -0.3737 -0.0017 -0.3999
15357TIP3    H167562   1.240   5.043  11.567 -0.4691 -1.1062 -0.5430
15357TIP3    H267563   1.381   5.088  11.539 -1.1615  2.4156  1.0766
15358TIP3   OH267564   0.602   0.227   5.231 -0.6907 -0.6218 -0.6136
15358TIP3    H167565   0.671   0.264   5.287 -1.1954 -1.4452  0.6020
15358TIP3    H267566   0.607   0.278   5.150 -0.2983  1.0141  0.3822
15359TIP3   OH267567   4.607   6.250  11.859 -0.1613 -0.1175  0.2189
15359TIP3    H167568   4.609   6.157  11.884 -0.0489 -0.1395  0.1262
15359TIP3    H267569   4.517   6.277  11.879 -0.7495 -0.7117 -1.3969
15360TIP3   OH267570   1.686   1.189   1.301 -0.0286  0.0942  0.1089
15360TIP3    H167571   1.615   1.176   1.364  0.6832  0.8597  1.0995
15360TIP3    H267572   1.663   1.133   1.227 -1.2952 -0.2139  0.7106
15361TIP3   OH267573   5.270   5.905  13.269  0.4895  0.2971 -0.1892
15361TIP3    H167574   5.289   5.856  13.189 -0.3388 -0.5377  0.1082
15361TIP3    H267575   5.328   5.980  13.265  1.5644 -0.5349 -0.8257
15362TIP3   OH267576   2.673   3.195  10.136 -0.1395 -0.1837  0.1646
15362TIP3    H167577   2.646   3.283  10.164 -0.2778  0.0758 -0.7209
15362TIP3    H267578   2.590   3.148  10.125 -0.0483 -0.5538  1.0065
15363TIP3   OH267579   6.585   0.667  14.687 -0.3844 -0.4546 -0.0866
15363TIP3    H167580   6.496   0.679  14.652  0.0452 -0.8378 -1.3349
15363TIP3    H267581   6.573   0.607  14.761 -1.0781 -1.0125 -0.6416
15364TIP3   OH267582   2.640   3.160   2.071 -0.5326  0.2172 -0.8995
15364TIP3    H167583   2.549   3.185   2.055 -0.7050 -0.8514 -1.7125
15364TIP3    H267584   2.647   3.154   2.167 -0.3859  3.5124 -0.6111
15365TIP3   OH267585   5.917   1.455   1.176  0.4775 -0.2120  0.0950
15365TIP3    H167586   5.931   1.435   1.269 -1.7959  0.2939  0.6022
15365TIP3    H267587   5.831   1.419   1.156  1.3968 -1.3080 -2.1679
15366TIP3   OH267588   2.442   3.407  16.682  0.1779 -0.0363  0.0719
15366TIP3    H167589   2.371   3.466  16.709 -0.0796  0.7345 -2.0419
15366TIP3    H267590   2.425   3.326  16.729 -1.1717  0.6574  0.8479
15367TIP3   OH267591   6.661   3.262   2.995  0.3939 -0.5005  0.7388
15367TIP3    H167592   6.716   3.334   3.027 -2.1265  2.5550 -1.1308
15367TIP3    H267593   6.692   3.247   2.906 -0.4264 -0.1649  0.3804
15368TIP3   OH267594   2.213   6.375   5.072  0.2139  0.0322 -0.9028
15368TIP3    H167595   2.162   6.438   5.021 -1.1932 -0.2408  0.1034
15368TIP3    H267596   2.272   6.429   5.125 -0.9820  0.5491 -0.0454
15369TIP3   OH267597   2.349   0.905  15.097  0.1647 -0.5616 -0.2282
15369TIP3    H167598   2.299   0.977  15.059 -0.0986  0.6993  2.2877
15369TIP3    H267599   2.300   0.827  15.074 -0.8500  0.2829 -1.0310
15370TIP3   OH267600   6.084   2.709  15.974 -0.3820  0.4628  0.6493
15370TIP3    H167601   6.107   2.657  16.051  0.0893  0.6426  0.6364
15370TIP3    H267602   6.026   2.777  16.007 -0.0684  0.6234  0.8741
15371TIP3   OH267603   2.399   6.194   5.440  0.3196  0.3144 -0.0406
15371TIP3    H167604   2.471   6.131   5.440  0.2122  0.1876 -0.9041
15371TIP3    H267605   2.415   6.249   5.517 -0.1288 -1.3754  1.3308
15372TIP3   OH267606   5.424   6.588  11.376 -0.6858  0.1406  0.5662
15372TIP3    H167607   5.440   6.516  11.437 -0.5872  0.5026  0.9738
15372TIP3    H267608   5.378   6.548  11.303 -0.1542 -0.4406  0.5437
15373TIP3   OH267609   0.007   3.941  12.466  0.1653  0.0097  0.3460
15373TIP3    H167610   0.005   4.023  12.416  0.3504 -0.6274 -0.7385
15373TIP3    H267611   0.094   3.939  12.505  0.4066  0.0090 -0.1884
15374TIP3   OH267612   0.258   5.299  12.184  0.3878  0.3689  0.4133
15374TIP3    H167613   0.167   5.311  12.209 -0.1241 -1.5780 -0.4256
15374TIP3    H267614   0.282   5.381  12.140  0.3730  2.6306  4.1700
15375TIP3   OH267615   3.445   0.482  16.491 -0.1252  0.1352  0.5152
15375TIP3    H167616   3.539   0.493  16.477  0.0427 -0.6131  1.0486
15375TIP3    H267617   3.437   0.410  16.553 -1.0242  0.6460  1.0293
15376TIP3   OH267618   6.797   0.774  13.984 -0.4975  0.3512 -0.1751
15376TIP3    H167619   6.837   0.699  13.940 -1.7760  0.1625 -1.0958
15376TIP3    H267620   6.824   0.765  14.076  0.6710 -0.3243 -0.5587
15377TIP3   OH267621   5.689   6.217   4.742  0.4792  0.1289 -0.4919
15377TIP3    H167622   5.768   6.171   4.769 -0.2851 -2.4351 -2.3260
15377TIP3    H267623   5.618   6.170   4.785 -0.2144  0.9545 -0.7029
15378TIP3   OH267624   0.729   3.703  14.364 -0.2638 -0.7106 -0.1743
15378TIP3    H167625   0.766   3.681  14.279 -3.2583  0.3008 -1.8961
15378TIP3    H267626   0.634   3.706  14.349 -0.7926  1.6913  2.6337
15379TIP3   OH267627   5.192   2.548   2.845  0.2379 -0.3330  0.1316
15379TIP3    H167628   5.143   2.504   2.914  0.8774 -2.0128 -0.4146
15379TIP3    H267629   5.177   2.493   2.767  1.8873 -0.1541 -0.3482
15380TIP3   OH267630   1.295   3.178   3.563 -0.0929 -0.2440 -0.3264
15380TIP3    H167631   1.337   3.171   3.648 -1.1680 -3.1230  0.0798
15380TIP3    H267632   1.235   3.251   3.571  0.3990  0.0282  1.1075
15381TIP3   OH267633   0.829   2.968  12.948 -0.3861  0.1521  0.0824
15381TIP3    H167634   0.801   3.014  12.869 -0.2002 -0.4162 -0.3200
15381TIP3    H267635   0.924   2.981  12.950 -0.2078 -0.9599 -0.5257
15382TIP3   OH267636   1.477   2.555   6.712  0.4021 -0.2468  0.3645
15382TIP3    H167637   1.500   2.647   6.703  0.8091 -0.4051 -0.2340
15382TIP3    H267638   1.440   2.548   6.800 -1.0497  0.7804 -0.1347
15383TIP3   OH267639   3.266   5.044   0.678  0.9991  0.3470  0.6269
15383TIP3    H167640   3.322   4.976   0.642  0.2716 -0.0474  0.2241
15383TIP3    H267641   3.319   5.085   0.746  3.1640  2.3619 -2.0165
15384TIP3   OH267642   0.646   0.867   5.027  0.4070 -0.0589  1.4095
15384TIP3    H167643   0.590   0.930   4.980  1.3938 -0.1605  0.0334
15384TIP3    H267644   0.591   0.789   5.036  0.3070 -0.1821  0.0214
15385TIP3   OH267645   6.402   0.066   6.552 -0.0887  0.0124 -0.1642
15385TIP3    H167646   6.310   0.089   6.542 -0.1810 -0.8470 -1.5397
15385TIP3    H267647   6.418   0.000   6.484  1.6760  0.5214 -0.2878
15386TIP3   OH267648   5.054   3.963  13.896 -0.4274  0.0802  0.0714
15386TIP3    H167649   5.011   3.907  13.833 -1.5204 -0.6438  1.4002
15386TIP3    H267650   5.112   3.904  13.945 -0.2711  0.4449  0.3308
15387TIP3   OH267651   1.932   0.497   0.872 -0.1118 -0.3215 -0.4933
15387TIP3    H167652   1.864   0.442   0.911 -0.0883  0.1243  0.1987
15387TIP3    H267653   2.005   0.491   0.933  0.7791 -1.3967 -1.6008
15388TIP3   OH267654   0.189   4.972  11.984 -0.3540  0.8578  0.2096
15388TIP3    H167655   0.261   4.996  12.041 -0.7464 -0.2573  1.2092
15388TIP3    H267656   0.115   4.959  12.043 -0.2214 -2.5841 -0.2094
15389TIP3   OH267657   3.234   1.399   5.379  0.0960  0.3041 -0.0726
15389TIP3    H167658   3.170   1.352   5.326 -0.5612  0.8024  0.2595
15389TIP3    H267659   3.195   1.486   5.392  0.3240  0.2516  1.0666
15390TIP3   OH267660   3.416   0.789  13.970 -0.4304  0.5526  0.6670
15390TIP3    H167661   3.412   0.693  13.971 -0.9980  0.5711  0.7596
15390TIP3    H267662   3.498   0.810  14.014 -0.1183  0.1003  0.3063
15391TIP3   OH267663   1.840   2.040  16.825 -0.0114 -0.1005  0.1295
15391TIP3    H167664   1.922   2.023  16.871 -0.6693 -0.9026  1.0230
15391TIP3    H267665   1.797   1.955  16.818 -0.1819  0.0829 -1.5195
15392TIP3   OH267666   3.037   1.474  16.085 -0.4554  0.1533 -0.3668
15392TIP3    H167667   3.023   1.456  16.178  0.4082  1.1634 -0.0229
15392TIP3    H267668   3.032   1.388  16.042  0.4395 -0.4885  0.7815
15393TIP3   OH267669   5.524   2.073  10.257  0.3860  0.1423  0.0506
15393TIP3    H167670   5.441   2.044  10.218  0.1369 -1.2520  1.4976
15393TIP3    H267671   5.586   2.004  10.234  0.8877  0.6641 -0.1503
15394TIP3   OH267672   3.335   0.722   0.939  0.0607 -0.5033  0.3535
15394TIP3    H167673   3.269   0.681   0.995 -1.2535  0.1893 -0.6298
15394TIP3    H267674   3.348   0.809   0.978 -0.3719 -0.2679 -0.0057
15395TIP3   OH267675   5.956   3.697  12.510  0.0349  0.0764  0.3077
15395TIP3    H167676   6.044   3.703  12.548 -0.2407 -1.2427  1.2105
15395TIP3    H267677   5.897   3.701  12.586 -0.6296 -0.3851 -0.1711
15396TIP3   OH267678   1.958   1.770   4.003 -0.5055 -0.0100  0.6617
15396TIP3    H167679   1.885   1.759   3.943 -1.2848  0.9877  1.3974
15396TIP3    H267680   1.959   1.689   4.055 -2.1156  0.5796  1.7043
15397TIP3   OH267681   5.533   3.410  13.760 -0.2671 -0.2565 -0.4965
15397TIP3    H167682   5.455   3.364  13.790 -1.7708  1.6884 -1.2015
15397TIP3    H267683   5.545   3.482  13.821  0.9407 -0.4583 -0.4605
15398TIP3   OH267684   4.833   1.795  11.556  0.1138  0.0741 -0.3860
15398TIP3    H167685   4.827   1.722  11.495 -0.3235 -0.0327 -0.2210
15398TIP3    H267686   4.860   1.869  11.503 -2.1058  0.4481 -1.1014
15399TIP3   OH267687   5.045   0.288  15.690 -0.4751  0.0050  0.0935
15399TIP3    H167688   5.119   0.252  15.641 -1.3078 -2.2776  0.3785
15399TIP3    H267689   5.014   0.215  15.743 -2.8535  0.9292  0.0882
15400TIP3   OH267690   1.052   6.095  16.650 -0.0567  0.3697  0.1514
15400TIP3    H167691   1.120   6.143  16.602  0.0748 -1.6483 -1.8454
15400TIP3    H267692   0.984   6.079  16.585 -1.1302 -0.1869  1.3683
15401TIP3   OH267693   1.857   4.519   6.049  0.6434  0.2276  0.0358
15401TIP3    H167694   1.880   4.436   6.008  0.3836 -0.3791  1.0930
15401TIP3    H267695   1.938   4.548   6.091  1.4073  1.7193 -2.2702
15402TIP3   OH267696   6.305   4.017   3.146 -0.4799  0.1355  0.0030
15402TIP3    H167697   6.292   4.041   3.054 -0.5726  0.7499  0.1738
15402TIP3    H267698   6.381   3.958   3.145 -0.8609 -0.3525 -0.5375
15403TIP3   OH267699   5.507   6.487   2.436  0.0500  0.0642 -0.0405
15403TIP3    H167700   5.441   6.538   2.484 -1.1208 -0.7089 -0.7784
15403TIP3    H267701   5.584   6.543   2.435 -0.7979  1.2875  0.2750
15404TIP3   OH267702   3.902   6.730   1.704 -0.7272 -0.0197  0.2444
15404TIP3    H167703   3.897   6.638   1.730  0.4364 -0.1051  0.1892
15404TIP3    H267704   3.895   6.778   1.787 -0.3997 -0.1886  0.3715
15405TIP3   OH267705   6.200   3.653  11.961  0.6403 -0.1401 -0.2140
15405TIP3    H167706   6.244   3.586  11.910  1.7533  0.1092  0.3811
15405TIP3    H267707   6.262   3.675  12.031  0.2133  1.3331 -0.2552
15406TIP3   OH267708   1.689   1.881  15.460  0.1615 -0.1282 -0.1450
15406TIP3    H167709   1.771   1.930  15.454  0.0431 -0.0519 -1.3022
15406TIP3    H267710   1.648   1.891  15.374 -1.1071 -0.1052  0.4334
15407TIP3   OH267711   5.081   5.244  11.868 -0.2052  0.6457 -0.1030
15407TIP3    H167712   4.995   5.208  11.848 -0.7310  1.2302  1.0616
15407TIP3    H267713   5.141   5.172  11.852 -1.0863 -0.3029  0.7719
15408TIP3   OH267714   5.859   6.668   5.043  0.2176  0.0790  0.0049
15408TIP3    H167715   5.797   6.710   5.102 -0.1602 -0.6181  0.1133
15408TIP3    H267716   5.944   6.705   5.067  0.1497 -0.5850  1.3608
15409TIP3   OH267717   1.788   2.659  16.501 -0.4683 -0.3740 -0.2031
15409TIP3    H167718   1.784   2.687  16.593 -1.8218 -2.7921  0.5613
15409TIP3    H267719   1.708   2.607  16.489  0.3028 -1.1344 -2.4003
15410TIP3   OH267720   6.501   5.109  11.373 -0.3663  0.2014 -0.3889
15410TIP3    H167721   6.496   5.022  11.334 -0.2345 -0.8691  1.8256
15410TIP3    H267722   6.411   5.129  11.397 -0.3060  0.3902 -0.3213
15411TIP3   OH267723   0.557   3.151  10.610  0.3390  0.4059  0.3733
15411TIP3    H167724   0.604   3.110  10.537 -0.9929  1.2031 -0.9641
15411TIP3    H267725   0.505   3.080  10.647  1.3346 -0.1015  0.8543
15412TIP3   OH267726   2.334   0.552   0.468  0.2698 -0.1442 -0.2185
15412TIP3    H167727   2.277   0.572   0.542 -1.8982  0.0468 -1.8523
15412TIP3    H267728   2.400   0.622   0.469 -0.1776  0.2872  1.0590
15413TIP3   OH267729   3.637   6.055   5.568  0.6766 -0.0399 -0.4456
15413TIP3    H167730   3.550   6.083   5.541  0.1215  0.3558  1.5509
15413TIP3    H267731   3.654   6.102   5.650  1.4144 -2.4241  0.8862
15414TIP3   OH267732   0.986   3.771   3.922  0.1731  0.0002 -0.2359
15414TIP3    H167733   0.933   3.847   3.897  0.7778 -0.3563 -2.8338
15414TIP3    H267734   0.948   3.698   3.875  1.3212 -0.7709 -0.0193
15415TIP3   OH267735   1.605   1.497   5.562  0.5872 -0.7495  0.1873
15415TIP3    H167736   1.517   1.508   5.526  1.3392  0.5500 -1.3309
15415TIP3    H267737   1.653   1.574   5.532  2.6139 -2.0840 -0.1262
15416TIP3   OH267738   0.310   4.495   3.383  0.3583 -0.3594  0.1903
15416TIP3    H167739   0.375   4.469   3.449  0.8902  0.6095  0.0705
15416TIP3    H267740   0.343   4.460   3.301  0.3877 -0.4358  0.2353
15417TIP3   OH267741   1.317   3.562   6.598  0.0394 -0.0452 -0.1903
15417TIP3    H167742   1.331   3.610   6.516  0.0264 -1.4927 -1.0793
15417TIP3    H267743   1.404   3.535   6.625  0.0687  0.6315  0.4218
15418TIP3   OH267744   3.190   1.546   2.219  0.4349  0.4465 -0.2420
15418TIP3    H167745   3.202   1.544   2.314 -0.0312 -0.6414 -0.1896
15418TIP3    H267746   3.095   1.543   2.207  0.4851  0.8021 -0.7380
15419TIP3   OH267747   1.095   5.574  15.013  0.0193 -0.2094  0.0829
15419TIP3    H167748   1.137   5.617  14.939  0.5075  0.5344  0.7804
15419TIP3    H267749   1.166   5.530  15.059 -0.3612 -1.1278 -0.1827
15420TIP3   OH267750   6.733   1.466   4.751  0.7383  0.7203  0.1950
15420TIP3    H167751   6.794   1.449   4.823 -0.0563  1.7757  1.1633
15420TIP3    H267752   6.703   1.380   4.723 -0.0688  0.3059  2.1532
15421TIP3   OH267753   2.635   2.277   2.627  0.6026 -1.1075  0.1488
15421TIP3    H167754   2.596   2.312   2.547 -0.4064  1.6792  1.7007
15421TIP3    H267755   2.569   2.217   2.662 -0.5326  0.3432  0.6018
15422TIP3   OH267756   5.770   3.422  17.237  0.4772  0.5172 -0.9436
15422TIP3    H167757   5.700   3.458  17.291  1.3229  0.6423  0.0869
15422TIP3    H267758   5.725   3.362  17.177 -0.3365 -0.6037  0.7290
15423TIP3   OH267759   0.527   3.157   0.707 -0.2212  0.5407  0.4678
15423TIP3    H167760   0.563   3.109   0.633  0.4270  1.6325  0.0470
15423TIP3    H267761   0.440   3.184   0.678  0.0278  0.9582  0.0978
15424TIP3   OH267762   1.962   2.952  15.702 -0.0229 -0.2842  0.2119
15424TIP3    H167763   1.889   2.925  15.647 -0.4504  1.4367 -0.1141
15424TIP3    H267764   2.040   2.940  15.646  0.2566 -3.8249  1.1436
15425TIP3   OH267765   3.820   5.471   2.964 -0.1840  0.3046 -0.2711
15425TIP3    H167766   3.893   5.453   3.023  0.0575  1.2482 -0.2750
15425TIP3    H267767   3.751   5.504   3.021 -0.3176  0.2013 -0.3751
15426TIP3   OH267768   3.419   0.655  11.267 -0.0746  0.1511  0.0736
15426TIP3    H167769   3.341   0.672  11.319 -1.2026 -1.5789 -0.9298
15426TIP3    H267770   3.398   0.690  11.180 -0.5657 -1.9253 -0.7150
15427TIP3   OH267771   0.092   0.952   5.381 -0.5282  0.1651  0.5066
15427TIP3    H167772   0.165   0.895   5.405  0.2384  0.7789 -0.2982
15427TIP3    H267773   0.040   0.899   5.320 -1.0696 -0.4624  1.4798
15428TIP3   OH267774   4.411   6.562  11.173 -0.2182  0.2786  0.3373
15428TIP3    H167775   4.336   6.597  11.124 -0.6275 -0.8037  0.1664
15428TIP3    H267776   4.457   6.640  11.204 -2.0917  0.9879  1.5208
15429TIP3   OH267777   0.820   2.054   4.099  0.1492 -0.3209  0.9563
15429TIP3    H167778   0.910   2.085   4.107  0.2206  0.3076 -1.5419
15429TIP3    H267779   0.770   2.133   4.077 -0.8010 -0.8733  1.0942
15430TIP3   OH267780   2.507   5.992   5.770  0.1588 -0.4394 -0.1281
15430TIP3    H167781   2.477   6.083   5.776  0.5517 -0.1716 -1.8173
15430TIP3    H267782   2.434   5.941   5.806  0.3930  0.5632  1.9328
15431TIP3   OH267783   4.259   5.224  11.740 -0.0134 -0.2958  0.1888
15431TIP3    H167784   4.293   5.255  11.656 -1.2370  0.1778 -0.1460
15431TIP3    H267785   4.291   5.287  11.804 -1.6234  1.1591 -0.3498
15432TIP3   OH267786   5.744   2.493  11.933 -0.5579  0.1910 -0.0484
15432TIP3    H167787   5.807   2.561  11.909 -0.5213 -0.0315 -0.5928
15432TIP3    H267788   5.660   2.527  11.905 -0.4528 -0.2971 -1.0185
15433TIP3   OH267789   3.091   3.483   2.453 -0.3325  0.4061  0.4413
15433TIP3    H167790   3.031   3.557   2.441 -0.7936  0.0532  0.5286
15433TIP3    H267791   3.178   3.522   2.453 -0.5535  0.9103  0.1528
15434TIP3   OH267792   5.114   2.922   4.596  0.4112 -0.0900  0.6056
15434TIP3    H167793   5.107   3.007   4.554  0.5698 -0.5742 -0.4427
15434TIP3    H267794   5.196   2.926   4.645  0.9161  0.0515 -0.2183
15435TIP3   OH267795   0.790   2.618   3.284  0.0747  0.2772  0.3423
15435TIP3    H167796   0.748   2.532   3.293  2.5726 -0.9781  0.9440
15435TIP3    H267797   0.720   2.676   3.253 -1.5438 -2.1003 -0.7314
15436TIP3   OH267798   5.113   1.485  12.327 -0.1768 -0.0676 -0.4550
15436TIP3    H167799   5.090   1.395  12.351  0.7830  0.1659  1.5265
15436TIP3    H267800   5.028   1.526  12.308 -0.7333 -1.0831 -0.2689
15437TIP3   OH267801   6.619   0.328   2.846  0.2120 -0.2658  0.1434
15437TIP3    H167802   6.685   0.397   2.846  1.0433 -0.9837 -1.5030
15437TIP3    H267803   6.629   0.285   2.931 -0.3438  1.6063  1.2041
15438TIP3   OH267804   3.188   0.317  13.084 -0.1835  0.2278  0.1525
15438TIP3    H167805   3.181   0.307  13.179  0.3678  0.1651  0.1888
15438TIP3    H267806   3.272   0.279  13.062 -1.2821 -1.8942 -0.6760
15439TIP3   OH267807   2.194   1.678  16.296 -0.4869 -0.4002  0.2267
15439TIP3    H167808   2.235   1.607  16.246 -1.4285  0.2935 -1.5807
15439TIP3    H267809   2.222   1.661  16.386  0.7022 -2.0836 -0.3926
15440TIP3   OH267810   3.703   6.215   1.756 -0.0879  0.1066  0.2151
15440TIP3    H167811   3.610   6.226   1.778 -0.2086 -2.0575  0.9994
15440TIP3    H267812   3.746   6.205   1.841  0.4428 -1.6277 -0.2295
15441TIP3   OH267813   1.395   3.547  14.015  0.1355  0.2810 -0.4356
15441TIP3    H167814   1.410   3.492  13.937  3.0305  1.2032 -0.6638
15441TIP3    H267815   1.472   3.530  14.070 -0.3656  1.9313  0.8281
15442TIP3   OH267816   1.134   2.645   5.346  0.3261 -0.2591  0.2299
15442TIP3    H167817   1.212   2.640   5.401 -0.1779  1.1742  1.1425
15442TIP3    H267818   1.122   2.739   5.330 -2.4655 -0.1844  2.0508
15443TIP3   OH267819   4.202   4.846  12.551 -0.1839  0.4980 -0.7773
15443TIP3    H167820   4.283   4.884  12.583 -0.4498  1.9520 -1.7486
15443TIP3    H267821   4.133   4.888  12.603 -0.3259 -1.8683  1.1630
15444TIP3   OH267822   6.139   3.204   1.482 -0.7166 -0.8061 -0.3727
15444TIP3    H167823   6.158   3.162   1.399  0.1561 -1.0166 -0.0824
15444TIP3    H267824   6.122   3.296   1.460  1.9260 -0.2746 -0.5963
15445TIP3   OH267825   6.043   0.649  11.658  0.1287 -0.0831  0.2988
15445TIP3    H167826   6.038   0.722  11.720 -0.8458  0.2434 -0.1418
15445TIP3    H267827   6.114   0.594  11.691 -1.0210 -0.4623  2.3106
15446TIP3   OH267828   3.877   5.273  16.047  0.1669  0.3442  0.1361
15446TIP3    H167829   3.934   5.308  16.116 -0.4725  1.1108  0.2978
15446TIP3    H267830   3.891   5.332  15.973  0.8938 -0.5086 -0.4261
15447TIP3   OH267831   6.112   5.879  15.546 -0.2935 -0.4822  0.3959
15447TIP3    H167832   6.168   5.862  15.622  0.2675 -1.3450 -0.1902
15447TIP3    H267833   6.024   5.859  15.576 -0.3455  1.1369  1.4120
15448TIP3   OH267834   2.176   1.448  12.535 -0.0543 -0.2123 -0.0512
15448TIP3    H167835   2.263   1.454  12.575 -0.9189 -0.5048  2.0422
15448TIP3    H267836   2.155   1.539  12.512  0.1972  0.0961  0.8735
15449TIP3   OH267837   1.996   6.380  12.850  0.0170 -0.4154 -0.3129
15449TIP3    H167838   1.966   6.345  12.934 -0.2023 -1.7182 -0.9012
15449TIP3    H267839   1.921   6.369  12.791  0.0191  0.9030 -0.5761
15450TIP3   OH267840   0.513   2.615   4.817 -0.0421 -0.0463 -0.5645
15450TIP3    H167841   0.496   2.700   4.858  0.4021 -0.3028  0.1942
15450TIP3    H267842   0.454   2.612   4.742 -0.5177  0.6631 -0.2376
15451TIP3   OH267843   1.356   5.263  15.006  0.7637  0.0831 -0.0920
15451TIP3    H167844   1.322   5.320  14.938  1.1794 -0.2342 -0.5798
15451TIP3    H267845   1.428   5.216  14.964  0.6867 -0.5068  0.4078
15452TIP3   OH267846   2.612   3.852   0.017  0.8033 -0.0597  0.7670
15452TIP3    H167847   2.626   3.942   0.048  0.2733 -0.0572  1.0103
15452TIP3    H267848   2.686   3.803   0.053  1.6601  0.4676 -0.2090
15453TIP3   OH267849   0.266   5.092   3.376 -0.3137  0.0869  0.1541
15453TIP3    H167850   0.314   5.049   3.306 -0.7126  1.2360 -0.8668
15453TIP3    H267851   0.174   5.084   3.351 -0.4059  1.4870 -0.0783
15454TIP3   OH267852   3.461   2.423   3.283 -0.3722  0.1155  0.1322
15454TIP3    H167853   3.495   2.462   3.202 -0.6390  2.0717  0.9009
15454TIP3    H267854   3.375   2.463   3.294 -0.4748 -0.3833  1.2131
15455TIP3   OH267855   5.121   5.524  16.086  0.1503 -0.6242  0.0123
15455TIP3    H167856   5.130   5.430  16.072 -1.6397 -0.9183  0.5883
15455TIP3    H267857   5.080   5.532  16.172  1.3515  0.7573  0.5125
15456TIP3   OH267858   0.242   3.517   4.621 -0.0935 -0.3020  0.5416
15456TIP3    H167859   0.271   3.605   4.647  1.3145 -1.0286  1.5905
15456TIP3    H267860   0.279   3.504   4.534  2.3271 -0.9390  1.5786
15457TIP3   OH267861   4.951   0.576  14.340 -0.4869 -0.4603 -0.0727
15457TIP3    H167862   5.008   0.599  14.267 -0.6936  0.4100  0.0257
15457TIP3    H267863   4.918   0.660  14.372 -1.3341 -0.9050  0.2675
15458TIP3   OH267864   5.116   4.438   4.517 -0.2584 -0.1450 -0.4277
15458TIP3    H167865   5.153   4.429   4.605 -0.3751 -1.3987 -0.4896
15458TIP3    H267866   5.123   4.350   4.479 -1.4247  0.0706 -1.1811
15459TIP3   OH267867   2.250   3.492  11.586 -0.2195  0.3970  0.0696
15459TIP3    H167868   2.243   3.403  11.554  1.4139  0.2919 -0.0808
15459TIP3    H267869   2.233   3.547  11.510  1.8954  0.1619 -0.6311
15460TIP3   OH267870   4.741   5.865   0.332 -0.0108  0.4050  0.0697
15460TIP3    H167871   4.682   5.906   0.270  0.2231  1.2531  0.3942
15460TIP3    H267872   4.693   5.864   0.415 -0.9240 -2.0893 -0.3911
15461TIP3   OH267873   1.756   4.276  15.499  0.0308 -0.1752 -0.2404
15461TIP3    H167874   1.818   4.204  15.489 -0.1175 -0.5552  1.3102
15461TIP3    H267875   1.675   4.244  15.461 -0.2635 -1.1765  1.1360
15462TIP3   OH267876   0.448   1.834   6.168 -0.3653 -0.5365 -0.7353
15462TIP3    H167877   0.468   1.835   6.075  0.6792 -1.4224 -0.5325
15462TIP3    H267878   0.530   1.858   6.211 -1.2532  1.5481 -0.0775
15463TIP3   OH267879   2.237   0.245   0.615  0.6805  0.4031  0.1004
15463TIP3    H167880   2.316   0.278   0.573  2.4585  0.7810  3.3805
15463TIP3    H267881   2.255   0.152   0.631  0.5958  0.5410  1.0672
15464TIP3   OH267882   0.293   0.522  13.871  0.3084  0.6212 -0.0642
15464TIP3    H167883   0.329   0.598  13.826  2.4455  0.9379  2.0082
15464TIP3    H267884   0.336   0.521  13.956  0.1723 -2.7547  0.1024
15465TIP3   OH267885   3.587   6.493   2.124  0.0792 -0.7091  0.2450
15465TIP3    H167886   3.595   6.512   2.218  2.5035 -0.2546  0.0006
15465TIP3    H267887   3.493   6.501   2.106 -0.3765 -0.2887  2.5082
15466TIP3   OH267888   1.916   3.514   1.427 -0.1341 -0.0718  0.2706
15466TIP3    H167889   1.930   3.571   1.352 -0.3572  1.5332  1.3870
15466TIP3    H267890   1.949   3.428   1.400 -0.2948  0.4362 -1.6589
15467TIP3   OH267891   3.208   2.076   4.973  0.1014 -0.3880  0.2707
15467TIP3    H167892   3.278   2.091   4.910  0.9566 -0.5333  1.1634
15467TIP3    H267893   3.199   2.159   5.020  1.8758 -1.2475  2.2852
15468TIP3   OH267894   0.615   6.605  13.120 -0.7535  0.1821 -0.2000
15468TIP3    H167895   0.707   6.629  13.131 -0.5423 -0.1746 -1.0812
15468TIP3    H267896   0.573   6.630  13.203  0.1574  0.2246  0.2609
15469TIP3   OH267897   5.871   0.474   3.701  0.4429  0.4696 -0.3957
15469TIP3    H167898   5.860   0.500   3.609  1.1212 -0.7101 -0.8376
15469TIP3    H267899   5.863   0.379   3.700  3.3364  0.1011  0.2470
15470TIP3   OH267900   1.948   0.218  15.649  0.0245  0.0667 -0.8033
15470TIP3    H167901   1.943   0.308  15.614 -0.4164  0.8345  1.1230
15470TIP3    H267902   2.018   0.221  15.713 -0.2350 -0.8818 -0.4675
15471TIP3   OH267903   2.371   6.402   5.946  0.3890 -0.1385  0.0987
15471TIP3    H167904   2.277   6.405   5.961  0.3100 -1.2340 -0.0721
15471TIP3    H267905   2.408   6.465   6.008 -0.3747 -0.4077  0.8346
15472TIP3   OH267906   3.987   5.968   5.148  0.4006 -0.1320 -0.5526
15472TIP3    H167907   4.016   5.929   5.066 -0.2093  1.2403 -1.4592
15472TIP3    H267908   4.066   5.972   5.202  1.1248  0.1969 -1.6034
15473TIP3   OH267909   0.964   6.562   3.976 -0.2189  0.0865 -0.3565
15473TIP3    H167910   0.887   6.513   3.945  0.3378 -0.9522 -0.1484
15473TIP3    H267911   0.982   6.525   4.063  0.3909  0.4587 -0.3191
15474TIP3   OH267912   6.043   4.205  16.702 -0.0635 -0.2108  0.1009
15474TIP3    H167913   5.970   4.255  16.665 -0.0187  0.0580  0.3744
15474TIP3    H267914   6.121   4.255  16.677  0.1163 -1.0777 -1.1419
15475TIP3   OH267915   1.078   2.052   3.855  0.2018  0.4069 -0.4919
15475TIP3    H167916   1.019   2.016   3.788  0.0034  0.8701 -0.5685
15475TIP3    H267917   1.116   2.129   3.814  0.2046  0.5974 -0.1291
15476TIP3   OH267918   3.052   2.572  16.407  0.4969  0.6247 -0.1783
15476TIP3    H167919   2.990   2.558  16.335  0.6488  1.3482 -0.4541
15476TIP3    H267920   3.129   2.519  16.383 -0.0918 -0.4813  0.2929
15477TIP3   OH267921   3.619   6.342   0.460  0.0062 -0.4088  0.3614
15477TIP3    H167922   3.696   6.383   0.500  0.8437 -0.0421 -1.5281
15477TIP3    H267923   3.621   6.252   0.492  0.8294 -0.2311  0.8541
15478TIP3   OH267924   4.972   6.439  12.112  0.0573 -0.4104  0.2634
15478TIP3    H167925   5.019   6.506  12.062  1.8533 -2.2703 -0.7075
15478TIP3    H267926   4.947   6.374  12.046 -0.6496 -1.2471  1.3284
15479TIP3   OH267927   0.836   1.954  15.155  0.5687  0.4732 -0.2710
15479TIP3    H167928   0.757   1.925  15.109 -0.2696  0.9038  0.8367
15479TIP3    H267929   0.855   1.884  15.217  0.5868  0.7160  0.0023
15480TIP3   OH267930   0.465   2.392  14.234  0.1605  0.5089 -0.3806
15480TIP3    H167931   0.448   2.455  14.164  0.1901  0.0323 -0.8235
15480TIP3    H267932   0.463   2.307  14.191 -4.4921 -0.3180  0.9100
15481TIP3   OH267933   0.969   3.642   5.990  0.5265 -0.1760  0.3273
15481TIP3    H167934   1.036   3.605   5.933  0.5804 -1.7624  1.3442
15481TIP3    H267935   1.007   3.723   6.023  2.3272 -1.4002  1.4714
15482TIP3   OH267936   6.536   1.298   3.266  0.5038  0.2797  0.4851
15482TIP3    H167937   6.551   1.354   3.190  1.3983  0.1308  0.5367
15482TIP3    H267938   6.456   1.251   3.246 -0.3121  1.6094  0.4640
15483TIP3   OH267939   1.612   0.483   5.452 -0.0533  0.1351  0.0311
15483TIP3    H167940   1.664   0.456   5.528  0.6347 -1.0837 -0.8414
15483TIP3    H267941   1.647   0.569   5.429 -0.9540  0.9906  1.6737
15484TIP3   OH267942   3.427   6.015   5.871  0.1113 -0.4864 -0.0595
15484TIP3    H167943   3.358   6.059   5.921  1.2932  0.3552  0.8638
15484TIP3    H267944   3.381   5.943   5.827 -1.4764  0.4184  0.0226
15485TIP3   OH267945   1.326   1.808  16.373  0.0327  0.2570  0.2381
15485TIP3    H167946   1.295   1.809  16.464 -1.7711  0.5459 -0.3415
15485TIP3    H267947   1.421   1.796  16.380 -0.1590 -0.5282  2.1354
15486TIP3   OH267948   0.506   4.122  16.477  0.6105 -0.3426 -0.4393
15486TIP3    H167949   0.439   4.053  16.478  0.6141 -0.3558 -0.9730
15486TIP3    H267950   0.588   4.076  16.493  0.3846 -0.1859  1.4126
15487TIP3   OH267951   6.417   4.190  12.452  0.5933  0.0001  1.2467
15487TIP3    H167952   6.407   4.262  12.391 -0.5308 -0.6338  0.6463
15487TIP3    H267953   6.401   4.111  12.399 -0.6678 -0.5492  2.3844
15488TIP3   OH267954   6.375   2.174   4.959  0.3302  0.2589 -0.2950
15488TIP3    H167955   6.282   2.195   4.949  0.0081  0.3236  2.2090
15488TIP3    H267956   6.404   2.230   5.031  2.8265  1.6120 -2.2049
15489TIP3   OH267957   5.763   5.564  12.311  0.0925  0.2845  0.2342
15489TIP3    H167958   5.694   5.505  12.341  0.6655  0.5774  2.2826
15489TIP3    H267959   5.716   5.631  12.262 -0.6207 -1.5460 -1.7307
15490TIP3   OH267960   0.532   2.661   3.570  0.0269 -0.5622 -0.2338
15490TIP3    H167961   0.523   2.576   3.528  2.3009  0.7188 -3.7811
15490TIP3    H267962   0.626   2.679   3.570 -0.4023  2.2207 -0.2573
15491TIP3   OH267963   2.280   0.034   4.477 -0.3909 -0.0315  0.6975
15491TIP3    H167964   2.203   0.089   4.468 -0.1710  0.5660  2.1684
15491TIP3    H267965   2.349   0.081   4.429 -0.8968 -0.5463 -0.5784
15492TIP3   OH267966   4.549   3.395   1.964 -0.0709 -0.1071  0.0459
15492TIP3    H167967   4.575   3.311   2.003 -0.0605 -0.3283 -0.4284
15492TIP3    H267968   4.523   3.373   1.875 -0.2734  0.3664 -0.0154
15493TIP3   OH267969   1.592   3.059   6.474  0.0041 -0.8471  0.0293
15493TIP3    H167970   1.619   3.130   6.416  0.8860 -1.8078 -0.7763
15493TIP3    H267971   1.657   2.990   6.460 -1.2616 -2.1282  0.1835
15494TIP3   OH267972   1.955   5.813  12.852 -0.1308  0.5342 -0.1534
15494TIP3    H167973   2.045   5.806  12.885  0.1355  0.5592 -0.8483
15494TIP3    H267974   1.963   5.791  12.759 -1.0993 -1.1198  0.1237
15495TIP3   OH267975   2.525   3.122   2.343 -0.4569  0.4089  0.6342
15495TIP3    H167976   2.437   3.142   2.310 -0.1104 -1.4017 -1.6665
15495TIP3    H267977   2.510   3.058   2.412 -0.9764 -0.6591 -0.4144
15496TIP3   OH267978   5.319   1.665  14.187 -0.6028 -0.5512  0.3755
15496TIP3    H167979   5.292   1.574  14.198 -0.5503 -0.9522 -2.1833
15496TIP3    H267980   5.239   1.717  14.201 -0.8273 -1.0356  0.9330
15497TIP3   OH267981   5.768   0.906   1.319  0.2323  0.3542  0.1606
15497TIP3    H167982   5.722   0.827   1.346  0.8051  0.0818  0.3494
15497TIP3    H267983   5.748   0.915   1.225  0.4818 -0.2271  0.0526
15498TIP3   OH267984   1.472   4.057  16.738  0.1933  0.3377 -0.4359
15498TIP3    H167985   1.490   4.150  16.724  1.5418 -0.1815 -2.7532
15498TIP3    H267986   1.377   4.051  16.738  0.0554  1.8302  0.8818
15499TIP3   OH267987   3.784   4.409   4.732 -0.1639 -0.6587 -0.1787
15499TIP3    H167988   3.780   4.461   4.813 -0.2565  0.0195 -0.6081
15499TIP3    H267989   3.749   4.468   4.665 -1.6652 -1.7778 -0.4398
15500TIP3   OH267990   2.364   4.995   1.717  0.0498 -0.0434  0.5473
15500TIP3    H167991   2.456   5.005   1.739  0.2519  0.2425 -0.3780
15500TIP3    H267992   2.354   4.903   1.696  0.4898  0.2139 -0.8782
15501TIP3   OH267993   0.740   6.605   0.082 -0.0497  0.5323 -0.4135
15501TIP3    H167994   0.657   6.594   0.036  1.0027 -1.6897 -1.9918
15501TIP3    H267995   0.803   6.624   0.013  1.0779  0.1657  0.4796
15502TIP3   OH267996   0.494   3.155  15.515  0.3172  0.0858 -0.0407
15502TIP3    H167997   0.457   3.169  15.603  1.4033 -0.3502  0.5102
15502TIP3    H267998   0.432   3.095  15.473  0.7942 -1.3388  1.1755
15503TIP3   OH267999   4.198   6.756   1.079  0.1281 -0.4917  0.8046
15503TIP3    H168000   4.135   6.710   1.024 -0.0714 -2.7069  2.7711
15503TIP3    H268001   4.155   6.765   1.164  0.7705  2.0565  0.9529
15504TIP3   OH268002   3.608   0.401  10.953  0.0344  0.2246 -0.2980
15504TIP3    H168003   3.645   0.351  10.881 -0.5351 -0.2352 -0.2775
15504TIP3    H268004   3.537   0.452  10.914  1.1987  1.7627 -0.5056
15505TIP3   OH268005   4.791   1.237  11.721  0.1609 -0.1363  0.6360
15505TIP3    H168006   4.847   1.315  11.715  0.1459 -0.1832 -0.2564
15505TIP3    H268007   4.708   1.270  11.754  0.2612  0.1635  0.5905
15506TIP3   OH268008   2.423   4.231  16.702 -0.1971  0.4648  0.3095
15506TIP3    H168009   2.402   4.322  16.724 -1.7551  1.1083 -3.1011
15506TIP3    H268010   2.345   4.182  16.727 -1.0841  0.8454 -1.5147
15507TIP3   OH268011   0.279   1.411   0.027  0.1403 -0.0641  0.6100
15507TIP3    H168012   0.273   1.505   0.041  0.3538 -0.1029  0.9799
15507TIP3    H268013   0.193   1.377   0.053 -0.1462  0.0955 -0.1118
15508TIP3   OH268014   4.555   2.416   5.653  0.1232 -0.2857  0.3063
15508TIP3    H168015   4.584   2.421   5.562  2.6466  0.4147  1.0619
15508TIP3    H268016   4.538   2.322   5.667  1.3807 -0.6503 -0.4437
15509TIP3   OH268017   2.464   2.402  16.259  0.1030 -0.1129  0.5703
15509TIP3    H168018   2.389   2.359  16.219  1.9670 -1.8666 -1.2853
15509TIP3    H268019   2.500   2.336  16.318  1.5491 -0.2371 -0.3987
15510TIP3   OH268020   4.264   6.237  14.397  1.0784 -0.0630  0.1943
15510TIP3    H168021   4.230   6.279  14.318 -0.4565 -0.9139  0.3825
15510TIP3    H268022   4.281   6.310  14.457  0.6455  0.4604 -0.3074
15511TIP3   OH268023   1.869   2.388  15.494  0.1472 -0.2273  0.2417
15511TIP3    H168024   1.891   2.295  15.503 -2.1156 -0.9044 -0.5196
15511TIP3    H268025   1.904   2.413  15.408  0.3574 -0.5206  0.2423
15512TIP3   OH268026   4.804   6.559   2.975  0.4217  0.5182 -0.5565
15512TIP3    H168027   4.828   6.466   2.972 -0.8210  0.0986  1.2538
15512TIP3    H268028   4.709   6.560   2.988  0.4728  2.0290 -0.0431
15513TIP3   OH268029   1.939   3.126   4.609  0.4031  0.6055 -0.1402
15513TIP3    H168030   1.905   3.165   4.528  1.5601 -0.0828 -0.9872
15513TIP3    H268031   1.947   3.200   4.669  1.4772  1.5151 -1.3330
15514TIP3   OH268032   2.566   0.992   3.616 -0.7587 -0.0950 -0.5206
15514TIP3    H168033   2.615   1.045   3.680 -0.5130 -1.9766  0.9546
15514TIP3    H268034   2.539   1.055   3.549  2.9980  1.2345 -1.0801
15515TIP3   OH268035   6.523   6.386   3.086  0.0138  0.5443 -0.3319
15515TIP3    H168036   6.511   6.471   3.127  3.1750  1.0698 -0.2443
15515TIP3    H268037   6.470   6.391   3.006 -0.6708  2.1872  0.1764
15516TIP3   OH268038   4.852   5.864  13.204  0.2465  0.3298 -0.5344
15516TIP3    H168039   4.897   5.781  13.188  2.1891  0.6100  2.5892
15516TIP3    H268040   4.898   5.927  13.150  1.1834 -0.0387 -0.1886
15517TIP3   OH268041   4.045   1.060  15.621  0.2823 -0.3522  0.4506
15517TIP3    H168042   4.139   1.072  15.633  0.5355 -2.2134  0.6207
15517TIP3    H268043   4.007   1.069  15.708  0.3160  0.1854  0.4139
15518TIP3   OH268044   3.182   6.772   4.406  0.1666  0.0317  0.4881
15518TIP3    H168045   3.225   6.844   4.360  0.3351 -0.6095 -0.3973
15518TIP3    H268046   3.096   6.764   4.364  0.0947 -0.1785  0.6729
15519TIP3   OH268047   5.141   1.075  15.078  0.5993 -0.1525  0.0111
15519TIP3    H168048   5.222   1.077  15.130 -0.5027  3.2065  1.9192
15519TIP3    H268049   5.141   1.159  15.031 -1.1543 -0.6863 -1.0458
15520TIP3   OH268050   0.233   3.357   3.282 -0.0900  0.0465 -0.5496
15520TIP3    H168051   0.282   3.428   3.322 -0.4880  0.6887 -1.1759
15520TIP3    H268052   0.175   3.325   3.351  0.7214 -0.2740 -0.0037
15521TIP3   OH268053   5.084   0.536   2.028 -0.0912 -0.0567  0.0013
15521TIP3    H168054   5.052   0.598   1.962 -2.3496 -1.0773  0.0613
15521TIP3    H268055   5.119   0.463   1.977 -0.4166 -0.1667 -0.0648
15522TIP3   OH268056   4.447   0.994   5.070 -0.2236  0.1448  0.0811
15522TIP3    H168057   4.386   1.016   5.000  0.3988  1.2970 -0.1217
15522TIP3    H268058   4.473   1.078   5.107  2.0891 -0.2214 -0.5582
15523TIP3   OH268059   2.978   6.523  14.310  0.0840 -0.0111  0.2683
15523TIP3    H168060   3.025   6.440  14.317  0.1629 -0.1253 -1.3220
15523TIP3    H268061   2.896   6.500  14.266 -1.3123  0.2649  2.5738
15524TIP3   OH268062   5.527   0.031  14.567 -0.3344 -0.1809 -0.5174
15524TIP3    H168063   5.488   0.069  14.646 -0.0049  0.7258 -0.7893
15524TIP3    H268064   5.478  -0.051  14.554  0.1228 -0.7449  1.0657
15525TIP3   OH268065   6.159   6.595   0.877  0.3175  0.5573 -0.0822
15525TIP3    H168066   6.100   6.651   0.827 -1.0574 -1.5417 -0.9806
15525TIP3    H268067   6.228   6.571   0.815  0.4883  0.6518  0.0701
15526TIP3   OH268068   6.215   0.218  16.023 -0.1907 -0.2047 -0.5638
15526TIP3    H168069   6.145   0.164  16.059  0.9265 -0.8383  0.7637
15526TIP3    H268070   6.183   0.244  15.937 -0.7604 -3.0907 -1.3497
15527TIP3   OH268071   6.338   6.566   0.652  0.7048 -0.2009 -0.5128
15527TIP3    H168072   6.260   6.521   0.619  0.3333  0.8655 -1.1411
15527TIP3    H268073   6.349   6.640   0.593  0.3371  1.4736  1.4203
15528TIP3   OH268074   5.337   4.336   2.826  0.4124 -0.6827 -0.4077
15528TIP3    H168075   5.294   4.356   2.910 -0.9204  0.2182 -1.2604
15528TIP3    H268076   5.386   4.415   2.805 -0.1089 -0.5094 -0.9804
15529TIP3   OH268077   4.750   3.499  17.000 -0.0060  0.0907  0.4570
15529TIP3    H168078   4.803   3.567  17.041  0.5582  0.3259 -0.6066
15529TIP3    H268079   4.676   3.547  16.962 -2.0740 -0.4283  3.4778
15530TIP3   OH268080   1.018   4.117  11.801  0.1081  0.2979  0.5393
15530TIP3    H168081   1.014   4.075  11.887 -0.5487 -2.0716 -0.5495
15530TIP3    H268082   1.096   4.080  11.760 -2.4726 -3.1214 -1.8795
15531TIP3   OH268083   0.945   2.050   0.246 -0.0920  0.0925  0.0152
15531TIP3    H168084   0.916   2.140   0.239 -0.2214  0.0760  0.3508
15531TIP3    H268085   0.885   2.001   0.189 -1.2830 -0.0693  1.3583
15532TIP3   OH268086   3.722   6.135  13.649  0.3432 -0.1524  0.2297
15532TIP3    H168087   3.659   6.203  13.672  1.3153  0.9452 -0.2329
15532TIP3    H268088   3.783   6.133  13.723 -0.0498 -0.9838  0.5341
15533TIP3   OH268089   3.718   6.330  16.873  0.4552 -0.0340 -0.1606
15533TIP3    H168090   3.686   6.254  16.922  0.0790  0.6221  0.6521
15533TIP3    H268091   3.754   6.388  16.941 -1.2343  1.4709 -0.4669
15534TIP3   OH268092   6.313   1.245  12.433 -0.2756  0.4743 -0.0235
15534TIP3    H168093   6.353   1.332  12.443 -1.4640  1.1376 -0.7855
15534TIP3    H268094   6.340   1.197  12.511 -0.8201  2.0242  1.1763
15535TIP3   OH268095   0.459   4.248   0.126 -0.3124  0.5745  0.3053
15535TIP3    H168096   0.444   4.270   0.218 -1.6831  1.3530 -0.0684
15535TIP3    H268097   0.499   4.327   0.089  1.3521 -0.1558  0.4564
15536TIP3   OH268098   0.620   2.814  16.478  0.4214 -0.2322  0.0153
15536TIP3    H168099   0.616   2.719  16.465  2.0946 -0.4703  0.8958
15536TIP3    H268100   0.705   2.828  16.522  0.6474  1.7770 -0.9697
15537TIP3   OH268101   2.369   4.613  11.501  0.5888  0.1645  0.1174
15537TIP3    H168102   2.451   4.601  11.453  0.6535  0.3428  0.1845
15537TIP3    H268103   2.301   4.588  11.439  0.6559  0.6538 -0.1581
15538TIP3   OH268104   3.469   4.486  13.330 -0.6797 -0.5393  0.2310
15538TIP3    H168105   3.463   4.438  13.248 -0.1107  0.7902 -0.6346
15538TIP3    H268106   3.393   4.459  13.380 -2.9987  1.0999 -2.1219
15539TIP3   OH268107   0.787   4.343  13.409  0.0787  0.2947  0.0004
15539TIP3    H168108   0.725   4.414  13.391  0.9423  1.2976  0.8546
15539TIP3    H268109   0.737   4.263  13.393 -1.6486  1.0680  1.2893
15540TIP3   OH268110   1.727   2.293  16.471  0.2500  0.0506 -0.8189
15540TIP3    H168111   1.663   2.364  16.475 -0.0271 -0.2034 -0.6420
15540TIP3    H268112   1.731   2.267  16.379 -2.6279 -2.3559 -0.4186
15541TIP3   OH268113   1.012   2.796   4.723 -0.2873  0.6435 -0.4131
15541TIP3    H168114   1.099   2.835   4.735 -0.1297 -0.2150  1.6098
15541TIP3    H268115   0.957   2.869   4.694  0.9394  1.3378 -1.1056
15542TIP3   OH268116   2.543   0.669  12.057 -0.1947  0.4675 -0.3612
15542TIP3    H168117   2.576   0.670  11.967  0.2264 -0.3070 -0.2198
15542TIP3    H268118   2.448   0.665  12.047 -0.2077  1.4546 -0.7652
15543TIP3   OH268119   2.523   2.971  16.963 -0.0252  0.1427 -0.0389
15543TIP3    H168120   2.461   2.927  17.022 -1.3003  2.0062  0.1282
15543TIP3    H268121   2.519   2.921  16.882 -1.6698  0.0980  0.0268
15544TIP3   OH268122   0.907   2.727   2.864 -0.1827 -0.1471  0.1221
15544TIP3    H168123   0.905   2.743   2.958 -2.7084 -0.8413  0.2659
15544TIP3    H268124   0.961   2.797   2.828  0.7965  0.1480  2.0665
15545TIP3   OH268125   2.402   4.407   6.229  0.2007 -0.1777 -0.3848
15545TIP3    H168126   2.324   4.352   6.243 -1.6560  2.9756  3.7310
15545TIP3    H268127   2.466   4.375   6.293  0.3582  0.3604 -0.2669
15546TIP3   OH268128   4.869   0.745   3.679  0.2271  0.3285  0.4337
15546TIP3    H168129   4.905   0.754   3.590  0.8455 -0.5854  0.5760
15546TIP3    H268130   4.850   0.834   3.706  0.1953  0.6382 -0.5551
15547TIP3   OH268131   4.224   6.798  12.908 -0.2590 -0.4426 -0.4971
15547TIP3    H168132   4.314   6.820  12.931 -0.2962 -0.7574 -0.0460
15547TIP3    H268133   4.199   6.864  12.843 -0.2928  0.7033  0.6500
15548TIP3   OH268134   4.224   4.479   2.897 -0.0885  0.0778  0.6104
15548TIP3    H168135   4.259   4.390   2.897 -2.9100 -1.1343  1.6949
15548TIP3    H268136   4.212   4.500   2.990 -4.7563 -0.8066  0.4140
15549TIP3   OH268137   2.922   5.847  11.293  0.1867  0.0360 -0.2981
15549TIP3    H168138   2.981   5.882  11.360  0.7857 -3.1752  1.0540
15549TIP3    H268139   2.942   5.897  11.214  1.8594  1.7025  1.0972
15550TIP3   OH268140   6.487   1.538  14.061  0.4183 -0.0052 -0.3551
15550TIP3    H168141   6.511   1.489  14.139 -3.7488 -1.6617  0.0924
15550TIP3    H268142   6.404   1.580  14.082 -1.5088 -1.4160 -4.1109
15551TIP3   OH268143   4.041   2.115   1.929 -0.2740 -0.1843  0.0392
15551TIP3    H168144   3.975   2.145   1.867  0.2373  0.5042 -0.1835
15551TIP3    H268145   4.122   2.157   1.901 -0.2321  1.0296  1.7733
15552TIP3   OH268146   6.082   1.134  15.265 -0.9349 -0.0572 -0.1006
15552TIP3    H168147   6.176   1.115  15.258 -1.3466 -2.3866 -0.1397
15552TIP3    H268148   6.046   1.059  15.312 -2.5010  1.8107  1.8860
15553TIP3   OH268149   0.740   4.946   4.779  0.0808 -0.1438  0.2223
15553TIP3    H168150   0.793   5.007   4.831  0.0319  1.6695 -1.7189
15553TIP3    H268151   0.668   4.999   4.745 -1.6990 -2.0258  0.8809
15554TIP3   OH268152   1.837   6.281  11.947  0.5315 -0.0492  0.2514
15554TIP3    H168153   1.908   6.339  11.975 -0.0765 -0.4639  2.8992
15554TIP3    H268154   1.765   6.339  11.924  0.1024  0.3384  2.3870
15555TIP3   OH268155   4.554   3.327  15.688  0.5865  0.8708  0.4929
15555TIP3    H168156   4.630   3.324  15.629 -0.6084  0.3337 -1.1090
15555TIP3    H268157   4.527   3.235  15.697 -1.1260  1.1895 -0.7456
15556TIP3   OH268158   4.285   4.620  11.447 -0.6480  0.0242  0.2929
15556TIP3    H168159   4.329   4.541  11.416 -0.2541  0.2014  0.3893
15556TIP3    H268160   4.290   4.681  11.374  0.3672  0.4757  0.7116
15557TIP3   OH268161   4.827   4.097   4.092 -0.2517  0.3280  0.3772
15557TIP3    H168162   4.777   4.098   4.011  2.9480 -1.6360 -1.8439
15557TIP3    H268163   4.853   4.005   4.103  2.2969  1.0956  1.6506
15558TIP3   OH268164   3.295   2.168   6.759 -0.1720  0.3467 -0.3976
15558TIP3    H168165   3.255   2.101   6.704  1.1750  0.5413 -1.6571
15558TIP3    H268166   3.352   2.218   6.700 -0.2493  1.8813  0.7463
15559TIP3   OH268167   1.549   6.341  13.399  0.1049 -0.1637  0.4535
15559TIP3    H168168   1.548   6.434  13.420  1.9631  0.2353 -1.0384
15559TIP3    H268169   1.470   6.328  13.346  0.8266  1.0065 -0.9704
15560TIP3   OH268170   1.739   6.291  10.976 -0.0402 -0.0103  0.0113
15560TIP3    H168171   1.662   6.323  11.023 -0.8310  0.2836 -1.3913
15560TIP3    H268172   1.753   6.202  11.010  0.1529  0.5964  1.5890
15561TIP3   OH268173   3.395   0.117   5.409  0.3984  0.2249  0.6705
15561TIP3    H168174   3.316   0.171   5.412  0.6464  0.6967 -0.8179
15561TIP3    H268175   3.363   0.030   5.386  0.1267 -0.0514  1.9745
15562TIP3   OH268176   3.902   0.042   5.552  0.1788 -0.0264  0.0797
15562TIP3    H168177   3.920   0.030   5.459 -0.4402 -0.2746 -0.0158
15562TIP3    H268178   3.958   0.115   5.579 -1.1614  1.4555 -0.9707
15563TIP3   OH268179   6.782   0.172   5.101 -0.1963  0.2953  0.1959
15563TIP3    H168180   6.730   0.204   5.174  0.0881  1.3486 -0.0510
15563TIP3    H268181   6.812   0.085   5.129 -3.7032 -1.2854 -0.4648
15564TIP3   OH268182   1.905   5.893   6.908 -0.0733  0.3543 -0.9972
15564TIP3    H168183   1.967   5.821   6.913  0.3926  0.8142  0.2679
15564TIP3    H268184   1.820   5.853   6.926  0.2184  0.1438 -0.0222
15565TIP3   OH268185   3.025   1.864  13.373 -0.0679  0.4788  0.1265
15565TIP3    H168186   3.022   1.895  13.463  0.4608 -0.8034  0.6119
15565TIP3    H268187   2.968   1.923  13.324  0.3744  1.7498  1.1246
15566TIP3   OH268188   6.190   2.476   0.880  0.5470 -0.3838  0.1239
15566TIP3    H168189   6.213   2.384   0.865 -0.2144 -0.5875  0.1534
15566TIP3    H268190   6.115   2.472   0.939 -1.2382  0.1355 -1.9964
15567TIP3   OH268191   2.872   6.162  14.226  0.2638 -0.3275  0.4364
15567TIP3    H168192   2.826   6.078  14.232 -1.0403  0.4043  1.2460
15567TIP3    H268193   2.907   6.176  14.314 -2.0903  1.3201  1.2009
15568TIP3   OH268194   5.910   3.128  13.708  0.1422  0.0614  0.8937
15568TIP3    H168195   5.885   3.082  13.628 -0.9611  2.4700 -0.2530
15568TIP3    H268196   5.981   3.075  13.746  1.5318 -0.5670 -2.2952
15569TIP3   OH268197   2.048   5.962  12.150  0.4050 -0.0041  0.2608
15569TIP3    H168198   2.002   5.922  12.076 -0.4560 -0.2926  0.9513
15569TIP3    H268199   2.135   5.921  12.148 -0.1792 -1.3079  0.4415
15570TIP3   OH268200   1.292   1.355  11.313 -0.1289 -0.2435 -0.2741
15570TIP3    H168201   1.221   1.370  11.375  0.9163  0.1695  0.8540
15570TIP3    H268202   1.346   1.288  11.354 -0.3041 -1.2074 -1.5279
15571TIP3   OH268203   3.195   5.036   2.686  0.0103  0.0719 -0.2573
15571TIP3    H168204   3.266   4.972   2.693  0.5760  0.5852 -1.1518
15571TIP3    H268205   3.182   5.048   2.592 -0.4035  0.9329 -0.1013
15572TIP3   OH268206   5.053   3.032  17.273  0.4502 -0.6379  0.2501
15572TIP3    H168207   4.982   2.974  17.299 -0.6206  0.5199 -0.0116
15572TIP3    H268208   5.082   2.998  17.188  0.8083 -1.6260  0.7507
15573TIP3   OH268209   3.060   3.661   5.656 -0.3231  0.5432  0.7017
15573TIP3    H168210   3.048   3.755   5.638  0.8123  0.3115 -1.4959
15573TIP3    H268211   3.145   3.656   5.698 -0.1333  0.4381  0.3031
15574TIP3   OH268212   6.802   6.153   5.753  0.1397  0.0547 -0.3797
15574TIP3    H168213   6.790   6.139   5.659 -1.4252 -1.8012  0.0330
15574TIP3    H268214   6.858   6.080   5.781  1.7569  1.3574 -0.0486
15575TIP3   OH268215   1.697   1.471  16.895  0.0851 -0.2816  0.2555
15575TIP3    H168216   1.767   1.515  16.944  0.6848  1.5974 -2.0891
15575TIP3    H268217   1.630   1.453  16.961  1.7977 -0.0571  2.1700
15576TIP3   OH268218   4.651   4.404   5.024 -0.1242  0.2294  0.4026
15576TIP3    H168219   4.691   4.489   5.006  1.7331 -0.3103  1.7451
15576TIP3    H268220   4.560   4.425   5.047 -0.2120  1.6461 -0.9956
15577TIP3   OH268221   0.265   1.985   4.920  0.0937  0.0515  0.1383
15577TIP3    H168222   0.317   1.907   4.945 -1.4035 -0.8149  0.6768
15577TIP3    H268223   0.239   1.968   4.830 -0.1715 -0.0340  0.2318
15578TIP3   OH268224   0.975   5.251   4.588  0.4151  0.2790 -0.1184
15578TIP3    H168225   1.012   5.177   4.539  1.1049  1.2616 -1.1275
15578TIP3    H268226   1.025   5.327   4.559 -0.1216  1.1227  1.0796
15579TIP3   OH268227   1.650   2.032   3.096  0.4924  0.0475  0.1137
15579TIP3    H168228   1.680   1.946   3.066 -0.0034 -0.9754  2.3162
15579TIP3    H268229   1.555   2.031   3.082  0.4765  0.1908  0.2066
15580TIP3   OH268230   4.352   6.518   0.860 -0.6088 -0.2725 -0.1421
15580TIP3    H168231   4.366   6.507   0.955 -2.5735  1.9419  0.4919
15580TIP3    H268232   4.367   6.611   0.844  0.1022 -0.6763 -2.1489
15581TIP3   OH268233   1.340   2.806   5.566  0.0397  0.8067  0.1684
15581TIP3    H168234   1.353   2.833   5.475  0.9828  0.2294  0.1196
15581TIP3    H268235   1.319   2.887   5.612 -0.5849  1.0848 -0.5789
15582TIP3   OH268236   1.636   4.230   1.899  0.0290  0.3807  0.3432
15582TIP3    H168237   1.720   4.210   1.940  0.5177  0.2222 -0.6974
15582TIP3    H268238   1.658   4.248   1.808 -0.8954  1.8075  0.3736
15583TIP3   OH268239   2.552   1.333  11.927  0.1921 -0.5743 -0.1035
15583TIP3    H168240   2.541   1.239  11.937 -1.1884 -0.2808  1.8206
15583TIP3    H268241   2.472   1.370  11.965  2.0076  1.4405  2.0614
15584TIP3   OH268242   5.116   1.619   4.945  0.2361  0.6972 -0.3634
15584TIP3    H168243   5.100   1.602   4.853 -3.8033 -2.7958  0.6375
15584TIP3    H268244   5.030   1.645   4.980  1.3541  0.8470  2.5766
15585TIP3   OH268245   0.875   1.139   4.878 -0.3010  0.1770 -0.1949
15585TIP3    H168246   0.843   1.219   4.920 -1.8986 -0.7232  0.4092
15585TIP3    H268247   0.876   1.160   4.784 -0.1194  1.0842  0.0015
15586TIP3   OH268248   1.789   0.084   5.148 -0.7224 -0.3754  0.8927
15586TIP3    H168249   1.803   0.161   5.202 -0.7646  0.0441  0.3112
15586TIP3    H268250   1.825   0.107   5.062 -0.2270 -1.2063  0.8658
15587TIP3   OH268251   2.563   3.573  11.522 -0.1768 -0.4267  0.1522
15587TIP3    H168252   2.523   3.538  11.602 -2.5640  1.3050 -0.1467
15587TIP3    H268253   2.609   3.652  11.551 -1.2552  0.3443 -0.1294
15588TIP3   OH268254   0.214   2.582  16.782  0.7936 -0.2795  0.1412
15588TIP3    H168255   0.296   2.616  16.818  0.5674 -0.3656  0.7381
15588TIP3    H268256   0.157   2.658  16.773  1.0734 -0.1520 -0.6643
15589TIP3   OH268257   1.482   3.471  12.949 -0.0980 -0.2348 -0.1264
15589TIP3    H168258   1.447   3.471  12.860  0.0305 -0.6727 -0.1768
15589TIP3    H268259   1.574   3.496  12.939 -0.7681  2.7920  0.1670
15590TIP3   OH268260   0.563   2.134   4.451 -0.2387 -0.2484 -0.0457
15590TIP3    H168261   0.547   2.197   4.522 -0.8151 -0.9790  0.4852
15590TIP3    H268262   0.479   2.090   4.439 -0.0998 -0.2562 -1.0690
15591TIP3   OH268263   6.506   6.702  16.236  0.4848  0.3106 -0.5861
15591TIP3    H168264   6.472   6.773  16.182  0.7255  0.8198 -0.0726
15591TIP3    H268265   6.438   6.686  16.301 -1.0940 -2.1951 -2.6416
15592TIP3   OH268266   4.360   5.966   2.889  0.4625 -0.8408 -0.3795
15592TIP3    H168267   4.444   5.920   2.896  1.1783  0.5416  0.9072
15592TIP3    H268268   4.365   6.033   2.957 -1.2440 -0.0048 -1.0330
15593TIP3   OH268269   3.635   5.694  16.649 -0.0179 -0.2985 -0.7734
15593TIP3    H168270   3.634   5.613  16.598 -0.6867  0.0883 -1.3879
15593TIP3    H268271   3.567   5.681  16.716 -0.6998  0.0565 -1.3779
15594TIP3   OH268272   3.509   2.500  15.033 -0.0447  0.2767  0.3320
15594TIP3    H168273   3.445   2.431  15.046  0.3460 -0.3822 -1.0475
15594TIP3    H268274   3.473   2.554  14.963  1.0304 -0.3230 -0.7316
15595TIP3   OH268275   0.300   3.234   1.275 -0.0087 -0.5475  0.5308
15595TIP3    H168276   0.279   3.241   1.182 -0.2882 -0.2365  0.6171
15595TIP3    H268277   0.378   3.178   1.278  0.1106 -0.4070  0.0960
15596TIP3   OH268278   2.373   5.857  10.428  0.1140  0.0270  0.5551
15596TIP3    H168279   2.451   5.912  10.416  0.8353 -0.4059  2.7017
15596TIP3    H268280   2.311   5.914  10.474 -0.6573  0.2026 -0.6699
15597TIP3   OH268281   4.535   4.983   3.448  0.2696  0.3962  0.4302
15597TIP3    H168282   4.598   5.039   3.402  0.8791 -1.3995 -1.0622
15597TIP3    H268283   4.483   5.044   3.500  1.4408  2.2456 -0.4283
15598TIP3   OH268284   1.019   3.616  14.970  0.0096 -0.2463  0.2273
15598TIP3    H168285   1.022   3.572  15.055 -2.8981 -2.8194 -0.8230
15598TIP3    H268286   1.049   3.549  14.908 -1.5244  0.2796 -1.1392
15599TIP3   OH268287   5.101   0.758  14.915 -0.3601  0.1482 -0.4673
15599TIP3    H168288   5.011   0.772  14.942 -0.3817  3.7700 -1.9087
15599TIP3    H268289   5.098   0.758  14.819  1.2237  0.9272 -0.5536
15600TIP3   OH268290   2.553   3.055   4.491 -0.5790 -0.2328  0.1761
15600TIP3    H168291   2.539   3.001   4.569 -2.3354 -0.1235 -0.0221
15600TIP3    H268292   2.523   3.142   4.517 -0.4326 -0.0135 -0.3905
15601TIP3   OH268293   2.393   5.605   2.584 -0.1542 -0.4525  0.5976
15601TIP3    H168294   2.477   5.647   2.597 -0.3738 -0.3177  1.6290
15601TIP3    H268295   2.350   5.658   2.516  0.0464  0.2775  1.0321
15602TIP3   OH268296   1.812   4.376  11.279  1.1559  0.1819 -0.3208
15602TIP3    H168297   1.855   4.451  11.237 -1.0849  1.2330 -0.8802
15602TIP3    H268298   1.750   4.344  11.213 -0.2390 -0.0889  1.0836
15603TIP3   OH268299   6.319   6.490   3.783  0.3712 -0.0263  0.4523
15603TIP3    H168300   6.236   6.459   3.818 -0.6275  1.7503 -0.2348
15603TIP3    H268301   6.307   6.489   3.688  1.3281 -0.2075  0.3219
15604TIP3   OH268302   3.629   4.200   0.443  0.1605  0.4582 -0.1823
15604TIP3    H168303   3.572   4.127   0.417  1.3989 -0.4653 -0.3526
15604TIP3    H268304   3.631   4.195   0.539  0.1415  0.3540 -0.1872
15605TIP3   OH268305   1.991   3.778  14.008 -0.1077 -0.0731  0.1366
15605TIP3    H168306   1.950   3.735  13.933  0.2628 -1.9953  0.9744
15605TIP3    H268307   1.921   3.827  14.049 -0.1973  1.5050 -1.7596
15606TIP3   OH268308   1.192   4.233   0.507 -0.0189  0.0105  0.4651
15606TIP3    H168309   1.135   4.309   0.522  0.7340  0.5200  0.7654
15606TIP3    H268310   1.272   4.252   0.556 -0.0040 -1.2040  0.9414
15607TIP3   OH268311   2.958   1.993   0.161 -0.0830  0.3091  0.4458
15607TIP3    H168312   3.034   2.043   0.132  0.3547 -0.7608 -0.3055
15607TIP3    H268313   2.994   1.915   0.204 -0.7316 -0.4603 -0.3548
15608TIP3   OH268314   1.724   2.446   5.065 -0.0332 -0.5687  0.2257
15608TIP3    H168315   1.651   2.410   5.115 -0.3258 -1.9275 -1.0962
15608TIP3    H268316   1.789   2.471   5.131 -1.0399 -0.8159  1.3378
15609TIP3   OH268317   3.384   1.681   1.063  0.0056  0.2472  1.1082
15609TIP3    H168318   3.364   1.601   1.015 -0.2347  0.6468  0.5300
15609TIP3    H268319   3.457   1.721   1.014 -0.8076  1.0960  0.5481
15610TIP3   OH268320   6.111   0.328  11.809 -0.2609  0.1066  0.2643
15610TIP3    H168321   6.021   0.331  11.841 -0.3555 -1.0473  0.1396
15610TIP3    H268322   6.104   0.343  11.715 -0.4143 -0.8431  0.1192
15611TIP3   OH268323   2.658   0.991   6.053 -0.2483 -0.1812 -0.3942
15611TIP3    H168324   2.597   1.028   6.117  0.1339 -2.2709  1.2966
15611TIP3    H268325   2.738   0.975   6.103  0.2718 -1.3269 -1.5336
15612TIP3   OH268326   3.994   5.946  11.104  0.2128 -0.3893 -0.5535
15612TIP3    H168327   4.051   5.922  11.031 -0.0767  0.0402 -0.9241
15612TIP3    H268328   3.907   5.917  11.079  0.3384 -1.5107  0.2400
15613TIP3   OH268329   1.914   0.485   1.775 -0.5682  0.3847  0.3729
15613TIP3    H168330   1.831   0.444   1.800 -0.4339 -1.3555 -1.7833
15613TIP3    H268331   1.895   0.529   1.692  0.9583 -1.3227 -0.9608
15614TIP3   OH268332   1.788   0.765   2.727  0.0073 -0.2549 -0.0870
15614TIP3    H168333   1.710   0.768   2.784 -1.5846 -2.0734 -1.9866
15614TIP3    H268334   1.754   0.734   2.643  2.7741 -0.8552 -1.0680
15615TIP3   OH268335   2.106   5.655   5.559  0.0873 -0.0241 -0.3922
15615TIP3    H168336   2.165   5.589   5.596 -1.5631 -2.1737 -1.3887
15615TIP3    H268337   2.140   5.669   5.470  3.2162  4.1057  1.1386
15616TIP3   OH268338   2.015   3.594   6.421 -0.0835  0.0276 -0.2849
15616TIP3    H168339   2.075   3.541   6.474 -0.3098 -2.0596 -1.9767
15616TIP3    H268340   2.004   3.675   6.471  3.1340 -0.0071  0.7188
15617TIP3   OH268341   3.001   0.319  11.539  0.2800  0.1549 -0.1279
15617TIP3    H168342   2.916   0.332  11.497  0.4340 -0.7494 -0.7590
15617TIP3    H268343   2.979   0.304  11.631 -0.4841 -2.1982 -0.6080
15618TIP3   OH268344   6.285   3.107   0.664 -0.0597 -0.2435  0.1421
15618TIP3    H168345   6.357   3.066   0.616  0.8954  0.3834  0.9793
15618TIP3    H268346   6.324   3.132   0.748 -0.7428  1.7603 -0.0707
15619TIP3   OH268347   2.171   6.568  15.885 -0.3427 -0.2085 -0.7191
15619TIP3    H168348   2.106   6.498  15.881 -0.5265  0.0288 -2.1646
15619TIP3    H268349   2.218   6.564  15.802  0.2565  0.7958 -0.4543
15620TIP3   OH268350   5.687   5.220  12.364 -0.5770  0.1250 -0.2129
15620TIP3    H168351   5.771   5.182  12.341 -0.1521  1.0580 -0.2233
15620TIP3    H268352   5.632   5.145  12.388  1.3580 -0.3186  3.5865
15621TIP3   OH268353   6.485   5.367  16.278  0.4152 -0.3847 -0.5052
15621TIP3    H168354   6.488   5.357  16.373  0.3202  3.0071 -0.0179
15621TIP3    H268355   6.400   5.408  16.261  0.6205 -0.5303 -2.0297
15622TIP3   OH268356   3.689   1.775   5.700 -0.4487  0.1386  0.1015
15622TIP3    H168357   3.716   1.827   5.624 -0.4409 -0.2000 -0.1296
15622TIP3    H268358   3.671   1.688   5.665  1.9673 -0.7408  0.8450
15623TIP3   OH268359   2.115   6.214  13.222  0.1890 -0.0252  0.6377
15623TIP3    H168360   2.069   6.155  13.162  1.1666  0.0669 -0.2244
15623TIP3    H268361   2.206   6.210  13.195  0.2650  2.0229  0.4210
15624TIP3   OH268362   5.775   2.482  16.922 -0.2061  0.1639  0.2658
15624TIP3    H168363   5.747   2.402  16.878  0.0718  1.1726 -1.8624
15624TIP3    H268364   5.849   2.514  16.871 -1.9058  3.1225 -0.5851
15625TIP3   OH268365   4.658   1.473  17.047  0.6151  0.3938  0.4197
15625TIP3    H168366   4.648   1.526  16.968 -0.0191  1.2000  1.0290
15625TIP3    H268367   4.669   1.536  17.118  1.4836 -0.3275  0.9469
15626TIP3   OH268368   5.926   3.512  16.296  0.1268  0.0227 -0.1395
15626TIP3    H168369   5.927   3.417  16.295  0.7781  0.0057 -2.0036
15626TIP3    H268370   6.002   3.537  16.348 -0.4080 -0.4416  0.8923
15627TIP3   OH268371   5.507   6.196  11.748  0.2628 -0.1472  0.4878
15627TIP3    H168372   5.537   6.156  11.666 -0.2377 -2.1506  1.2133
15627TIP3    H268373   5.434   6.141  11.776 -2.8188  3.2574 -0.1187
15628TIP3   OH268374   5.452   3.729   3.906  0.1591 -0.1944 -0.4341
15628TIP3    H168375   5.439   3.784   3.829 -0.4343  0.7064  0.2891
15628TIP3    H268376   5.539   3.754   3.938 -0.6790  1.4188  0.7146
15629TIP3   OH268377   2.513   3.488   3.916 -0.1888 -0.5549 -0.1135
15629TIP3    H168378   2.602   3.457   3.934 -0.1651 -0.4287 -0.0101
15629TIP3    H268379   2.519   3.583   3.922 -0.5595 -0.5917  0.9668
15630TIP3   OH268380   4.999   1.504  14.996  0.2869 -0.1264  0.1768
15630TIP3    H168381   5.084   1.459  14.993  0.0406 -0.5959  0.0519
15630TIP3    H268382   4.936   1.435  15.018  0.1102  0.4918  1.6996
15631TIP3   OH268383   0.578   0.704  12.679 -0.1398  0.0114 -0.1045
15631TIP3    H168384   0.666   0.742  12.680 -0.3873  0.6694 -1.6602
15631TIP3    H268385   0.551   0.706  12.771  1.0025  0.8999  0.2411
15632TIP3   OH268386   5.868   1.535   2.367 -0.3452  0.5308 -0.0305
15632TIP3    H168387   5.801   1.595   2.400 -0.3933  0.6203 -0.2859
15632TIP3    H268388   5.862   1.458   2.423 -0.9043  0.3944 -0.2730
15633TIP3   OH268389   4.890   5.461   2.145 -0.1129 -0.1670 -0.1639
15633TIP3    H168390   4.900   5.438   2.238  0.5680 -0.8852 -0.3963
15633TIP3    H268391   4.893   5.376   2.100 -0.2444  0.1942 -0.8559
15634TIP3   OH268392   6.207   1.341  11.503  0.1939  0.1147  0.4595
15634TIP3    H168393   6.202   1.292  11.421  2.7131  0.2449  0.1611
15634TIP3    H268394   6.115   1.356  11.528 -0.9263 -5.5684  1.1258
15635TIP3   OH268395   5.207   0.061   1.012 -0.3769 -0.3114  0.7524
15635TIP3    H168396   5.267   0.127   0.975  0.0858 -1.6784 -1.0757
15635TIP3    H268397   5.237   0.050   1.102 -0.1963  1.6363  0.9861
15636TIP3   OH268398   1.668   1.354   1.812 -0.7980 -0.4504  0.2759
15636TIP3    H168399   1.713   1.321   1.735 -1.2874 -1.0105  0.2190
15636TIP3    H268400   1.737   1.391   1.867 -0.4021 -0.4081 -0.2490
15637TIP3   OH268401   6.612   1.805   6.788  0.1420 -0.1693 -0.1093
15637TIP3    H168402   6.535   1.754   6.810  0.9928 -1.4179  0.0677
15637TIP3    H268403   6.678   1.778   6.852  1.0899 -0.0352 -1.0046
15638TIP3   OH268404   1.833   4.812   4.793 -0.8614 -0.5589 -0.0529
15638TIP3    H168405   1.818   4.796   4.699  2.7010  4.3769 -1.8885
15638TIP3    H268406   1.773   4.884   4.814 -0.1809 -0.2508  0.8657
15639TIP3   OH268407   6.654   0.676  17.065  0.1479  0.0054 -0.2330
15639TIP3    H168408   6.585   0.632  17.015 -0.4623 -2.4581  2.4708
15639TIP3    H268409   6.609   0.746  17.111 -0.5540 -1.3065  1.1672
15640TIP3   OH268410   2.288   6.413   1.998 -0.0947  0.1203 -0.1131
15640TIP3    H168411   2.303   6.487   2.056  0.9358  1.4005 -1.8901
15640TIP3    H268412   2.359   6.351   2.019  0.2093  0.5221  0.0566
15641TIP3   OH268413   0.405   2.653  15.410 -0.3022 -0.4063 -0.0164
15641TIP3    H168414   0.453   2.723  15.454  1.5862 -0.7056 -1.4991
15641TIP3    H268415   0.314   2.668  15.435  0.2134  1.7450  0.8127
15642TIP3   OH268416   4.177   5.571  15.382 -0.0963  0.1983 -0.7212
15642TIP3    H168417   4.132   5.554  15.299 -0.3158  0.3522 -0.6352
15642TIP3    H268418   4.122   5.529  15.448  1.3012 -2.0311 -0.8568
15643TIP3   OH268419   4.499   5.481   1.064 -0.9355 -0.1787 -0.0291
15643TIP3    H168420   4.577   5.528   1.037  0.0960 -0.0904  2.8061
15643TIP3    H268421   4.446   5.547   1.110 -0.3560 -1.2296  2.3024
15644TIP3   OH268422   4.280   3.202   2.397  0.3994  0.1659  0.6456
15644TIP3    H168423   4.221   3.133   2.365 -1.3150  1.1375  1.5524
15644TIP3    H268424   4.363   3.158   2.411 -0.2683 -1.4166 -0.0826
15645TIP3   OH268425   4.925   1.777  12.762  0.0253  0.0474  0.0407
15645TIP3    H168426   4.901   1.837  12.832  2.1209  0.0876  0.7984
15645TIP3    H268427   4.961   1.833  12.694 -0.4608 -0.1346 -0.3696
15646TIP3   OH268428   5.908   2.266  12.476  0.0015  0.1879 -0.0815
15646TIP3    H168429   5.936   2.295  12.389 -0.9705 -3.4852 -1.8105
15646TIP3    H268430   5.989   2.259  12.526  1.3386 -2.1423 -2.2980
15647TIP3   OH268431   0.803   1.391  13.146  0.3456 -0.0235 -0.0413
15647TIP3    H168432   0.727   1.433  13.107  0.0825  0.7488  1.2622
15647TIP3    H268433   0.770   1.350  13.225  1.2086 -0.0392  0.3235
15648TIP3   OH268434   3.884   5.070  11.220  0.6269  0.3629  0.7676
15648TIP3    H168435   3.821   5.000  11.234 -0.4075  0.7933 -1.2662
15648TIP3    H268436   3.885   5.118  11.303 -2.2926  0.7449  0.7051
15649TIP3   OH268437   3.906   3.552  11.300 -0.2077 -0.0942 -0.2558
15649TIP3    H168438   3.830   3.611  11.305 -1.3071 -1.4550 -0.1462
15649TIP3    H268439   3.937   3.561  11.210 -1.7511 -0.9457 -0.9269
15650TIP3   OH268440   6.053   4.910  17.165 -0.6916 -0.1769 -0.4780
15650TIP3    H168441   6.038   4.817  17.185 -0.4671  0.0056  0.5891
15650TIP3    H268442   6.036   4.955  17.247  0.0329  0.6412 -0.7598
15651TIP3   OH268443   3.597   5.571   6.001 -0.1378 -0.4055  0.0707
15651TIP3    H168444   3.682   5.612   6.019  0.0403 -0.7380 -0.0121
15651TIP3    H268445   3.566   5.544   6.088 -0.5917  0.5465  0.2205
15652TIP3   OH268446   6.327   3.057   4.371 -0.2032  0.4149 -0.3172
15652TIP3    H168447   6.251   3.001   4.386  0.7778 -0.9894 -0.4142
15652TIP3    H268448   6.384   3.006   4.314  0.4205  1.8100 -1.0122
15653TIP3   OH268449   3.027   0.877  14.317  0.8145  0.6758  0.1589
15653TIP3    H168450   3.006   0.867  14.410 -1.9932 -0.8143 -0.5263
15653TIP3    H268451   3.114   0.838  14.308  0.6961 -0.0992  1.9770
15654TIP3   OH268452   0.129   5.889   6.308  0.2234  0.3554  0.0685
15654TIP3    H168453   0.050   5.858   6.353  0.4358 -0.2764  0.0196
15654TIP3    H268454   0.199   5.872   6.371  0.4955 -0.3371 -0.4145
15655TIP3   OH268455   6.048   1.987   4.610  0.0592 -0.1536 -0.1287
15655TIP3    H168456   6.017   2.071   4.575  0.5082 -0.3207 -0.9620
15655TIP3    H268457   6.014   1.984   4.699 -0.5921  0.5779 -0.3394
15656TIP3   OH268458   1.656   3.755   1.902  0.1931 -0.4919  0.1838
15656TIP3    H168459   1.615   3.810   1.835  3.0143  0.5913 -0.8070
15656TIP3    H268460   1.597   3.761   1.977 -1.1563  1.3818 -0.9356
15657TIP3   OH268461   3.385   3.889  14.803  0.5451  0.3275 -0.2027
15657TIP3    H168462   3.328   3.965  14.816 -0.1622 -0.3189  0.5579
15657TIP3    H268463   3.468   3.915  14.843  0.6550  1.0998 -0.9097
15658TIP3   OH268464   2.284   5.974  11.669  0.3637  0.1418 -0.5448
15658TIP3    H168465   2.222   5.901  11.670 -0.0278  0.4360 -1.6671
15658TIP3    H268466   2.259   6.028  11.744 -0.7560  0.2570 -0.9876
15659TIP3   OH268467   5.588   1.322   4.715  0.1739  0.2471  0.7659
15659TIP3    H168468   5.615   1.370   4.638  1.3923  0.6161  1.4063
15659TIP3    H268469   5.513   1.371   4.749 -0.3672  0.0777 -0.1663
15660TIP3   OH268470   3.082   5.331  15.323 -0.4353  0.1626 -0.2511
15660TIP3    H168471   3.077   5.421  15.354  2.4134  0.0275  0.9607
15660TIP3    H268472   3.078   5.278  15.403 -0.6874 -0.6932 -0.8211
15661TIP3   OH268473   3.058   1.463  11.069  0.5726 -0.1862 -0.0744
15661TIP3    H168474   3.081   1.410  10.992 -2.8610 -0.2031 -1.2810
15661TIP3    H268475   3.139   1.472  11.118  2.5826 -1.4807 -2.9269
15662TIP3   OH268476   4.375   1.918   0.141 -0.7769 -0.4117  0.3323
15662TIP3    H168477   4.340   1.970   0.213 -0.5826  1.5866 -0.9102
15662TIP3    H268478   4.470   1.923   0.152 -0.7160  0.6363 -0.4922
15663TIP3   OH268479   3.449   2.567   4.487 -0.3008 -0.0908  0.5300
15663TIP3    H168480   3.404   2.485   4.470  1.6049 -1.0031 -0.5203
15663TIP3    H268481   3.476   2.562   4.579 -0.7213 -0.3708  0.6355
15664TIP3   OH268482   1.475   1.547   2.602 -0.4358 -0.0844  0.1340
15664TIP3    H168483   1.414   1.583   2.538 -0.6184 -0.8520 -0.1383
15664TIP3    H268484   1.562   1.565   2.565 -0.5426 -1.0179 -0.6384
15665TIP3   OH268485   3.480   0.817   6.208  0.1497  0.0111  0.3561
15665TIP3    H168486   3.557   0.874   6.208  0.1040  0.1445 -1.6495
15665TIP3    H268487   3.515   0.729   6.217  0.6664 -0.0100 -1.4417
15666TIP3   OH268488   0.524   5.293   3.526 -0.0981  0.1279  0.7074
15666TIP3    H168489   0.582   5.278   3.601  0.9347 -0.9447 -0.2814
15666TIP3    H268490   0.521   5.209   3.480  1.3547  1.3951 -1.8925
15667TIP3   OH268491   1.180   4.374   3.428  0.0218 -0.3721  0.2140
15667TIP3    H168492   1.261   4.346   3.385  0.4406  1.3167 -0.1547
15667TIP3    H268493   1.110   4.346   3.368  0.4801  0.1670 -0.5856
15668TIP3   OH268494   5.868   2.177  13.596  0.0577  0.1092  0.4957
15668TIP3    H168495   5.956   2.172  13.559  0.8221  0.9337  2.1039
15668TIP3    H268496   5.845   2.086  13.614  1.6391  0.0200  2.3523
15669TIP3   OH268497   2.913   4.216  17.279 -0.3740 -0.2756  1.1527
15669TIP3    H168498   2.927   4.176  17.193  0.3708 -2.1776  2.1037
15669TIP3    H268499   2.918   4.310  17.263  1.8370 -0.6070 -0.5724
15670TIP3   OH268500   5.376   4.979  14.966  0.1743 -0.1265  0.4016
15670TIP3    H168501   5.443   5.019  14.910  0.7654  0.9010  1.7860
15670TIP3    H268502   5.405   4.888  14.975  0.7094 -0.0045 -0.0296
15671TIP3   OH268503   5.917   6.081   2.346 -0.2443 -0.0894  0.2260
15671TIP3    H168504   5.849   6.041   2.291  2.6060 -2.8026 -1.6656
15671TIP3    H268505   5.957   6.148   2.291 -0.1754  0.2137  0.6362
15672TIP3   OH268506   1.406   1.998  16.624 -0.3131  0.1865 -0.0796
15672TIP3    H168507   1.440   2.045  16.548 -2.2578 -0.2758 -1.3127
15672TIP3    H268508   1.386   2.067  16.688 -0.4322  0.7635 -0.7371
15673TIP3   OH268509   2.969   4.920  14.740  0.2698 -0.4576  0.1196
15673TIP3    H168510   3.052   4.955  14.705  1.9156 -1.2759  2.8554
15673TIP3    H268511   2.955   4.970  14.821 -0.3948 -2.1665  1.1158
15674TIP3   OH268512   2.098   2.386  13.084 -0.0225 -0.5625 -0.8691
15674TIP3    H168513   2.050   2.463  13.053  2.2455  0.4737 -2.0958
15674TIP3    H268514   2.185   2.395  13.045  0.4068 -3.6828 -0.9152
15675TIP3   OH268515   0.554   3.545   3.278  0.3255  0.5945  0.4113
15675TIP3    H168516   0.468   3.563   3.316  0.8899  1.8539  1.1751
15675TIP3    H268517   0.590   3.632   3.259  0.1638  0.0666 -2.9089
15676TIP3   OH268518   6.494   6.283   1.403  0.0068  0.3699  0.2403
15676TIP3    H168519   6.458   6.327   1.480  0.8309  0.7658  0.3981
15676TIP3    H268520   6.459   6.332   1.329  0.4252  0.9124  0.3996
15677TIP3   OH268521   2.629   0.059  13.103  0.0463 -0.9401 -0.4629
15677TIP3    H168522   2.668   0.140  13.069 -1.2902 -0.5832 -1.2100
15677TIP3    H268523   2.694   0.026  13.166 -0.1084  1.6362  1.2148
15678TIP3   OH268524   2.617   6.554   2.358 -0.1410  0.0223  0.2134
15678TIP3    H168525   2.710   6.572   2.345  0.3912 -1.3151  1.7407
15678TIP3    H268526   2.613   6.459   2.372 -1.7341  0.0610  0.2296
15679TIP3   OH268527   5.177   1.894   2.906 -0.1960  0.0922 -1.0862
15679TIP3    H168528   5.093   1.937   2.891  0.6657  0.8932 -4.4347
15679TIP3    H268529   5.239   1.967   2.914  0.3846 -0.5129  0.2286
15680TIP3   OH268530   2.513   6.343   3.288 -0.3814 -0.1964 -0.6031
15680TIP3    H168531   2.455   6.338   3.363 -1.6482  1.0678 -1.4407
15680TIP3    H268532   2.495   6.429   3.249  0.6703 -0.5600 -2.0086
15681TIP3   OH268533   2.289   5.743  14.399 -0.3995  0.2401  1.0833
15681TIP3    H168534   2.330   5.811  14.452 -1.1609  0.8227  0.9397
15681TIP3    H268535   2.241   5.690  14.462 -1.5783  1.1295  0.9612
15682TIP3   OH268536   6.278   3.173  15.298 -0.4685  0.0111  0.0724
15682TIP3    H168537   6.295   3.092  15.345 -1.2793 -1.4849 -2.0825
15682TIP3    H268538   6.191   3.200  15.327 -0.7826 -0.6534 -0.2504
15683TIP3   OH268539   1.283   0.164  15.398  0.0853  0.1049 -0.3152
15683TIP3    H168540   1.374   0.161  15.368  0.3579 -1.0501  0.5488
15683TIP3    H268541   1.281   0.105  15.473 -0.9742  1.5780  0.8481
15684TIP3   OH268542   0.552   5.194   3.253  0.2943  0.8905  0.2578
15684TIP3    H168543   0.507   5.125   3.205  0.9425 -0.0406  0.9722
15684TIP3    H268544   0.507   5.275   3.226 -0.1475  0.2552 -0.9475
15685TIP3   OH268545   0.150   5.810  14.973 -0.1989  0.1053  0.4024
15685TIP3    H168546   0.176   5.803  15.065  1.1160 -1.1357 -0.0320
15685TIP3    H268547   0.163   5.723  14.938  0.3637  0.8126 -1.2235
15686TIP3   OH268548   1.888   6.440  15.067  0.5227  0.5311 -0.0111
15686TIP3    H168549   1.910   6.359  15.021 -0.2715  0.1978  0.1683
15686TIP3    H268550   1.883   6.507  14.999  2.7144  0.7930  0.0114
15687TIP3   OH268551   1.601   3.754  13.725 -0.1232  0.8133  0.3867
15687TIP3    H168552   1.556   3.748  13.809 -3.2299 -1.1163 -1.2144
15687TIP3    H268553   1.537   3.792  13.666  1.1187 -0.0158 -1.6017
15688TIP3   OH268554   1.127   4.442  15.107  0.0944  0.2554 -0.1796
15688TIP3    H168555   1.098   4.488  15.186  0.4653 -1.6066  1.1065
15688TIP3    H268556   1.141   4.511  15.042 -1.6590  1.7068  0.9047
15689TIP3   OH268557   1.008   3.381   6.075 -0.6950 -0.1240 -0.3475
15689TIP3    H168558   0.976   3.467   6.046 -1.2603 -0.2484 -0.0927
15689TIP3    H268559   0.948   3.319   6.035 -2.1689 -0.2664  1.9228
15690TIP3   OH268560   4.891   2.949   4.340 -0.2445  0.0742  0.1052
15690TIP3    H168561   4.828   2.942   4.267 -0.0687 -0.3948 -0.0079
15690TIP3    H268562   4.855   3.017   4.397  0.4318  1.6255 -1.2330
15691TIP3   OH268563   0.841   0.637  15.539  0.2333 -0.3235  1.0251
15691TIP3    H168564   0.936   0.637  15.545  0.3515  1.8000  0.0109
15691TIP3    H268565   0.811   0.659  15.627  0.7946  1.2322  0.8533
15692TIP3   OH268566   5.761   3.006  16.580 -0.1229  0.4872  0.6738
15692TIP3    H168567   5.696   2.937  16.572 -0.1216  0.6253 -0.9812
15692TIP3    H268568   5.736   3.070  16.512  1.8390  0.4243 -0.1713
15693TIP3   OH268569   2.102   5.301  14.198 -0.2800 -0.0031 -0.7057
15693TIP3    H168570   2.156   5.300  14.118  1.3763  0.7390  0.3565
15693TIP3    H268571   2.067   5.390  14.202 -1.3694 -0.3915 -1.2199
15694TIP3   OH268572   5.469   3.651  11.914  0.7322 -0.0381 -0.1571
15694TIP3    H168573   5.530   3.658  11.841 -0.5278 -1.3062 -1.3969
15694TIP3    H268574   5.518   3.604  11.982  1.1147 -1.1527 -1.1731
15695TIP3   OH268575   5.669   0.628   5.906  0.4639  0.7764  0.2054
15695TIP3    H168576   5.756   0.589   5.892  0.2360  0.0877  0.6482
15695TIP3    H268577   5.646   0.603   5.996 -1.4217 -1.5580 -0.8028
15696TIP3   OH268578   0.891   2.338  16.810  0.0850  0.1685  0.3850
15696TIP3    H168579   0.820   2.307  16.754  0.0386  1.9581 -0.6298
15696TIP3    H268580   0.897   2.273  16.880 -0.9188 -1.2917 -0.8262
15697TIP3   OH268581   4.257   5.512   6.318  0.7320  0.7219  0.4279
15697TIP3    H168582   4.253   5.419   6.297 -0.5142  0.7253  0.5490
15697TIP3    H268583   4.189   5.551   6.263  0.9767  1.4954  0.6695
15698TIP3   OH268584   5.510   4.984  16.436  0.5157  0.1166  0.4402
15698TIP3    H168585   5.517   5.012  16.345  1.8570 -1.3690  0.0460
15698TIP3    H268586   5.565   5.045  16.485  1.7054 -0.4945 -0.1038
15699TIP3   OH268587   1.862   1.358  10.481  0.1098 -0.1434 -0.0182
15699TIP3    H168588   1.776   1.319  10.496  0.6544 -1.1440  0.6242
15699TIP3    H268589   1.912   1.336  10.559  1.1666 -0.2010 -0.6948
15700TIP3   OH268590   2.556   1.381  15.492 -0.0163 -0.0954  0.4428
15700TIP3    H168591   2.508   1.461  15.512 -0.5055 -0.4768  0.8517
15700TIP3    H268592   2.640   1.410  15.456 -0.7722  0.5808 -0.8225
15701TIP3   OH268593   4.779   6.428  16.144 -0.3230 -0.1410  0.2771
15701TIP3    H168594   4.799   6.497  16.081  1.2855  0.6075  1.5473
15701TIP3    H268595   4.862   6.381  16.155 -0.5172 -0.1166  1.9883
15702TIP3   OH268596   1.941   0.561   4.424  0.8102 -0.3677 -0.5717
15702TIP3    H168597   1.865   0.618   4.432  1.2577  0.1945 -0.2694
15702TIP3    H268598   1.923   0.488   4.483 -0.4428 -1.3322 -2.0407
15703TIP3   OH268599   3.159   4.167   5.541 -0.2981 -0.4463  1.4669
15703TIP3    H168600   3.068   4.182   5.569 -0.9502 -0.8802 -0.3242
15703TIP3    H268601   3.188   4.253   5.511 -0.0249 -0.2614  2.2323
15704TIP3   OH268602   0.811   1.264  14.042  0.4903 -0.0034  0.2517
15704TIP3    H168603   0.896   1.305  14.022  0.6114  0.1073  0.9674
15704TIP3    H268604   0.804   1.270  14.137  1.2094 -2.9720  0.5868
15705TIP3   OH268605   4.736   1.329  16.779 -0.7426 -0.3708 -0.1673
15705TIP3    H168606   4.805   1.374  16.828  1.5214 -0.6123 -2.8825
15705TIP3    H268607   4.679   1.399  16.747 -1.8588 -0.1679  2.0905
15706TIP3   OH268608   3.403   1.108  15.733  0.4509  0.2554 -0.0418
15706TIP3    H168609   3.374   1.103  15.641 -1.8464 -0.9439  0.6551
15706TIP3    H268610   3.387   1.020  15.767 -2.2541  1.5463  2.4097
15707TIP3   OH268611   6.208   5.570  11.539  0.9362 -0.3776  0.0479
15707TIP3    H168612   6.137   5.613  11.587  1.9100  0.7782  0.5360
15707TIP3    H268613   6.200   5.477  11.561  0.2196 -0.1159  0.9482
15708TIP3   OH268614   2.952   0.463   3.779 -0.6568 -0.3744  0.1641
15708TIP3    H168615   3.017   0.533   3.772 -0.7879 -0.0130  2.1304
15708TIP3    H268616   2.869   0.507   3.762 -0.6374 -0.3071  0.2445
15709TIP3   OH268617   4.043   1.799  16.443 -0.1951  0.1883  0.2458
15709TIP3    H168618   4.069   1.710  16.464  1.9357  0.3188 -1.5156
15709TIP3    H268619   3.969   1.790  16.382  0.1963 -0.3826 -0.1475
15710TIP3   OH268620   0.463   0.456  12.612 -0.8314 -0.2202 -0.7557
15710TIP3    H168621   0.526   0.525  12.634 -0.7323 -0.8067  1.0391
15710TIP3    H268622   0.514   0.392  12.562 -1.0945  1.2648 -3.0670
15711TIP3   OH268623   0.263   4.013  12.555 -0.0132  0.7351  0.4508
15711TIP3    H168624   0.293   4.083  12.612 -3.1112  2.8249 -0.2577
15711TIP3    H268625   0.305   4.030  12.471  1.6245 -0.1645  1.0315
15712TIP3   OH268626   3.801   0.115   0.786 -0.1512  0.4953  0.2914
15712TIP3    H168627   3.807   0.022   0.810 -1.1616  0.8366  2.0338
15712TIP3    H268628   3.743   0.117   0.711  0.8107 -0.3711 -0.5054
15713TIP3   OH268629   4.451   6.758   0.808  0.3245 -0.5704 -0.4275
15713TIP3    H168630   4.543   6.763   0.834 -0.3027 -1.3442  2.1706
15713TIP3    H268631   4.414   6.842   0.832  0.7434  0.7166 -3.6903
15714TIP3   OH268632   2.083   5.672  10.583  0.1536 -0.1014  0.8256
15714TIP3    H168633   2.141   5.704  10.514  0.5561 -0.2221  1.1036
15714TIP3    H268634   1.995   5.675  10.544  0.5532 -1.7895 -0.2903
15715TIP3   OH268635   3.661   4.949   1.724  0.7296  0.3460 -0.0952
15715TIP3    H168636   3.595   5.018   1.720  0.8272  0.4543  0.1392
15715TIP3    H268637   3.695   4.943   1.635  1.5084  1.3766  0.1079
15716TIP3   OH268638   2.553   5.489   5.128  0.5360  0.0464  0.0609
15716TIP3    H168639   2.648   5.479   5.139  0.1952 -3.2850  1.3475
15716TIP3    H268640   2.538   5.478   5.034  1.4121  0.3790 -0.1214
15717TIP3   OH268641   2.247   5.184   3.236 -0.2970 -0.6764 -0.0940
15717TIP3    H168642   2.163   5.155   3.200  0.1988 -2.7912  0.2741
15717TIP3    H268643   2.301   5.203   3.159 -0.6046 -0.9016 -0.3672
15718TIP3   OH268644   4.279   2.724  14.353  0.3396 -0.5845 -0.2512
15718TIP3    H168645   4.351   2.752  14.409 -0.7048  0.0350  0.8046
15718TIP3    H268646   4.288   2.778  14.274  0.5090  0.0974  0.2341
15719TIP3   OH268647   6.038   6.664  16.480 -0.1122  0.5661  0.3136
15719TIP3    H168648   5.958   6.675  16.531  0.0550  1.2133  0.4458
15719TIP3    H268649   6.008   6.639  16.392 -0.3928 -0.9030  0.7952
15720TIP3   OH268650   1.031   1.203  13.104 -0.3701  0.5750 -0.5482
15720TIP3    H168651   1.096   1.260  13.146  1.1982 -0.8311 -0.9404
15720TIP3    H268652   0.957   1.261  13.085  1.4674  2.6794 -1.7278
15721TIP3   OH268653   2.985   3.878  14.244  0.4218 -0.8037  0.0687
15721TIP3    H168654   3.012   3.791  14.214 -0.5728 -1.3975  0.8081
15721TIP3    H268655   2.921   3.907  14.179 -0.9195 -1.6202  0.9711
15722TIP3   OH268656   5.694   5.502   4.719 -0.1444 -0.2238 -0.1874
15722TIP3    H168657   5.690   5.562   4.793 -1.2398  0.6551 -0.9374
15722TIP3    H268658   5.786   5.476   4.715 -0.3457 -1.6906  2.5427
15723TIP3   OH268659   1.778   4.950  13.273  0.6883  0.3778  0.1271
15723TIP3    H168660   1.753   5.006  13.199  1.4902  0.3161 -0.2049
15723TIP3    H268661   1.701   4.948  13.329 -0.0066  0.2718 -0.8093
15724TIP3   OH268662   0.383   3.326  13.117 -0.3597 -0.6698  0.0077
15724TIP3    H168663   0.369   3.245  13.165  0.0431 -0.1957  0.9446
15724TIP3    H268664   0.305   3.379  13.135  0.7511  0.3839  1.9788
15725TIP3   OH268665   3.067   2.140   4.361  0.0481  0.6293  0.0678
15725TIP3    H168666   3.125   2.095   4.300  0.2332  0.2261  0.5283
15725TIP3    H268667   2.981   2.101   4.345  0.2099  0.0897  0.4712
15726TIP3   OH268668   5.805   5.890  16.476  0.4354 -0.5573 -0.4139
15726TIP3    H168669   5.760   5.945  16.412 -1.5563 -1.8085 -0.1587
15726TIP3    H268670   5.851   5.824  16.423 -1.1261 -1.5288 -0.6264
15727TIP3   OH268671   1.833   1.773  11.590 -0.5138 -0.0224 -0.0225
15727TIP3    H168672   1.833   1.862  11.556 -2.9284 -0.4248 -1.3044
15727TIP3    H268673   1.781   1.723  11.527  1.2684 -2.5077  0.3290
15728TIP3   OH268674   1.178   6.741  15.213 -0.4728 -0.2456  0.3574
15728TIP3    H168675   1.116   6.676  15.182  0.2713 -0.8391  0.0891
15728TIP3    H268676   1.253   6.691  15.244  0.0428  0.4708  0.3071
15729TIP3   OH268677   3.409   5.040  17.150 -0.5828  0.1692  0.0259
15729TIP3    H168678   3.446   5.122  17.117  0.2960 -0.5614 -0.8325
15729TIP3    H268679   3.412   4.980  17.076 -2.2987 -0.3196  0.3072
15730TIP3   OH268680   2.366   0.440   0.197  0.1454 -0.5957 -0.3025
15730TIP3    H168681   2.301   0.370   0.190  0.1592 -0.5840 -0.5373
15730TIP3    H268682   2.361   0.467   0.289  1.0197 -1.7354  0.0935
15731TIP3   OH268683   2.663   4.333   5.860  0.2008 -0.4748 -0.2033
15731TIP3    H168684   2.665   4.405   5.798  0.0515  0.8678  1.2790
15731TIP3    H268685   2.669   4.375   5.946  0.0448 -2.2267  0.7180
15732TIP3   OH268686   0.354   2.200   5.264 -0.1157 -0.3879 -0.0192
15732TIP3    H168687   0.440   2.159   5.272 -0.7230 -2.0542 -1.3679
15732TIP3    H268688   0.363   2.284   5.308  1.8439 -1.0385  0.9120
15733TIP3   OH268689   4.775   6.214  13.081 -0.5195  0.5666  0.1510
15733TIP3    H168690   4.711   6.170  13.137  1.6431 -0.8002  1.6985
15733TIP3    H268691   4.786   6.301  13.121 -1.7367  0.9917 -0.4160
15734TIP3   OH268692   4.625   2.477   0.233 -0.1499  0.4405  0.1083
15734TIP3    H168693   4.542   2.448   0.271  0.8235 -2.0278  0.5775
15734TIP3    H268694   4.666   2.530   0.302  0.1931 -1.3400  1.3531
15735TIP3   OH268695   0.534   1.836  11.955  0.0610  0.0995 -0.3765
15735TIP3    H168696   0.584   1.775  11.901  0.9653  0.7867 -0.3483
15735TIP3    H268697   0.502   1.902  11.893 -3.1200 -1.7044 -0.8453
15736TIP3   OH268698   2.548   2.404  13.193  0.1784 -0.3008  0.2841
15736TIP3    H168699   2.638   2.370  13.189  0.6033  0.7708  0.4958
15736TIP3    H268700   2.558   2.498  13.203 -0.9846  0.0115 -1.1873
15737TIP3   OH268701   5.677   6.728  13.550 -0.1093  0.3488 -0.3063
15737TIP3    H168702   5.601   6.714  13.494 -2.9411  1.3075  2.9134
15737TIP3    H268703   5.725   6.799  13.509 -1.6534  0.5791 -1.8278
15738TIP3   OH268704   6.399   2.118  16.027  0.2917  0.5699  0.0164
15738TIP3    H168705   6.369   2.028  16.019 -0.5901  0.9013 -0.4716
15738TIP3    H268706   6.352   2.153  16.103  0.5055  0.6699  0.1042
15739TIP3   OH268707   5.125   4.809   4.130  0.1873 -0.7636  0.9994
15739TIP3    H168708   5.174   4.781   4.053  2.5916  0.8160  1.8207
15739TIP3    H268709   5.121   4.732   4.186 -0.1908 -1.4960 -0.0021
15740TIP3   OH268710   1.047   3.618  16.714  0.4227 -0.4316 -0.1145
15740TIP3    H168711   1.048   3.654  16.803 -0.6997 -1.4589  0.3393
15740TIP3    H268712   1.134   3.640  16.679  0.3885  1.1906  0.7209
15741TIP3   OH268713   6.271   3.941   1.934 -0.3069  0.5792  0.0207
15741TIP3    H168714   6.300   3.874   1.996 -0.2403 -0.3794 -1.0117
15741TIP3    H268715   6.205   3.991   1.982 -0.0930  0.0144  0.9350
15742TIP3   OH268716   4.545   1.792   4.963 -0.1576  0.4747  0.6792
15742TIP3    H168717   4.579   1.790   5.053  1.6865 -0.3727  0.0147
15742TIP3    H268718   4.475   1.727   4.963 -0.4841  0.7932  1.5796
15743TIP3   OH268719   2.821   4.888   5.027 -0.6546  0.1237 -0.2921
15743TIP3    H168720   2.769   4.925   5.098 -1.4340 -1.8650  0.2414
15743TIP3    H268721   2.845   4.963   4.973  0.6955  1.8165  2.4854
15744TIP3   OH268722   6.112   5.722  14.031  0.3682  0.4232 -0.0478
15744TIP3    H168723   6.078   5.634  14.043  1.8817 -0.3139 -0.9307
15744TIP3    H268724   6.195   5.710  13.984  0.4035  2.3330 -0.5561
15745TIP3   OH268725   3.900   0.458  14.742 -0.0747  0.1885  0.4671
15745TIP3    H168726   3.874   0.436  14.653  1.1884 -0.0056  0.1320
15745TIP3    H268727   3.995   0.448  14.743 -0.0746  0.0899  1.8660
15746TIP3   OH268728   1.803   2.597   5.538  0.7241 -0.0524 -0.7846
15746TIP3    H168729   1.788   2.538   5.612  1.4894 -0.0721 -0.6288
15746TIP3    H268730   1.769   2.682   5.567  1.2210 -0.0084 -0.3192
15747TIP3   OH268731   0.829   4.791   2.736  0.0236  0.0957 -0.3067
15747TIP3    H168732   0.883   4.735   2.791  0.0627 -0.2282 -0.6651
15747TIP3    H268733   0.821   4.742   2.654  0.3505  0.7828 -0.7529
15748TIP3   OH268734   2.643   3.673   0.421 -0.0032 -0.2459 -0.9330
15748TIP3    H168735   2.553   3.705   0.423 -0.4844 -1.5297  1.4264
15748TIP3    H268736   2.634   3.582   0.391  0.4324 -0.5757 -0.0623
15749TIP3   OH268737   4.473   6.332  13.815  0.2753 -0.5119 -0.1452
15749TIP3    H168738   4.460   6.299  13.904  0.1350 -0.5800 -0.1919
15749TIP3    H268739   4.420   6.411  13.811  2.0108  0.7523  0.5560
15750TIP3   OH268740   4.071   0.399  11.869  0.6327  0.3473 -0.3788
15750TIP3    H168741   4.133   0.456  11.914  0.3700  0.4775 -0.1799
15750TIP3    H268742   4.076   0.316  11.917  2.3810 -0.4293 -1.7755
15751TIP3   OH268743   2.482   1.368   3.264 -0.1315 -0.1377 -0.0254
15751TIP3    H168744   2.486   1.350   3.170 -2.7321  0.2819 -0.2906
15751TIP3    H268745   2.489   1.463   3.270 -0.0318 -0.1597  0.2112
15752TIP3   OH268746   0.584   0.795   2.765  0.5146  0.5070  0.3219
15752TIP3    H168747   0.661   0.841   2.731  2.1090 -1.0748  1.5982
15752TIP3    H268748   0.620   0.726   2.821 -1.7877 -1.4094 -0.3822
15753TIP3   OH268749   1.752   0.758   1.958 -0.6094  0.3367 -1.2530
15753TIP3    H168750   1.679   0.810   1.991 -0.1316 -0.4637  1.3035
15753TIP3    H268751   1.713   0.695   1.898 -1.5062  2.0567 -2.5565
15754TIP3   OH268752   5.590   2.707   5.573  0.0917  0.0345  0.4021
15754TIP3    H168753   5.631   2.778   5.524  0.9751  0.3386  1.5264
15754TIP3    H268754   5.655   2.683   5.640  0.4165 -2.8193 -0.8021
15755TIP3   OH268755   2.617   3.190  13.210  0.2656  0.7317 -0.4811
15755TIP3    H168756   2.602   3.100  13.179  3.0079 -0.0277  0.0837
15755TIP3    H268757   2.539   3.211  13.261 -0.5334 -1.2804 -0.7560
15756TIP3   OH268758   1.739   1.859  14.908  0.4148  0.8431 -0.1373
15756TIP3    H168759   1.716   1.767  14.895 -0.9597  1.0907  0.4162
15756TIP3    H268760   1.685   1.907  14.845  1.8074  1.2328 -1.0906
15757TIP3   OH268761   1.675   0.792  15.468 -0.2334  0.4593 -0.0228
15757TIP3    H168762   1.637   0.711  15.435 -0.7904  0.7613 -0.1253
15757TIP3    H268763   1.620   0.862  15.432 -0.2233  0.8455  0.6894
15758TIP3   OH268764   2.554   0.040   5.748 -0.2216  0.4999  0.6372
15758TIP3    H168765   2.583   0.055   5.658  0.8345 -3.1145  0.1821
15758TIP3    H268766   2.481   0.100   5.761 -1.4985  0.0438 -3.2604
15759TIP3   OH268767   1.220   1.461   2.191  0.0358  0.3450  0.0506
15759TIP3    H168768   1.304   1.505   2.203  0.5247 -0.5817  0.1017
15759TIP3    H268769   1.184   1.498   2.110  0.4396  0.8169  0.0864
15760TIP3   OH268770   4.140   5.839   4.956 -0.5774 -0.2321  0.5075
15760TIP3    H168771   4.155   5.877   4.869 -1.5783 -2.2661 -0.6271
15760TIP3    H268772   4.089   5.760   4.939  0.5316 -1.5401  2.8226
15761TIP3   OH268773   3.911   0.062   3.747  0.1875  0.1075 -0.3564
15761TIP3    H168774   3.840   0.107   3.701  0.2456 -0.8112 -1.4045
15761TIP3    H268775   3.989   0.080   3.694  0.1705 -1.3717 -0.9377
15762TIP3   OH268776   6.588   4.326   4.263 -0.0349  0.1826 -0.3127
15762TIP3    H168777   6.518   4.271   4.298 -1.7142  3.2842  1.6336
15762TIP3    H268778   6.559   4.350   4.175 -0.2895 -0.3544 -0.3793
15763TIP3   OH268779   0.694   5.409   1.603  0.3907 -0.1060 -0.4860
15763TIP3    H168780   0.741   5.340   1.648  1.5094  0.3709 -0.8746
15763TIP3    H268781   0.760   5.450   1.547 -0.6043  0.2776 -1.4229
15764TIP3   OH268782   0.108   0.107   4.638  0.1268  0.4209  0.5100
15764TIP3    H168783   0.203   0.095   4.633  0.0078 -0.3472 -0.1731
15764TIP3    H268784   0.096   0.179   4.700  1.1428  0.3779  0.7779
15765TIP3   OH268785   5.747   1.899  15.931  0.1063 -0.6711 -0.4940
15765TIP3    H168786   5.756   1.818  15.981 -0.5630  0.0886  0.9235
15765TIP3    H268787   5.674   1.882  15.872 -0.1858 -1.0203 -0.0390
15766TIP3   OH268788   4.621   5.529  13.955 -0.1612 -0.0279 -0.1468
15766TIP3    H168789   4.641   5.435  13.949 -1.2318 -0.2006 -1.4185
15766TIP3    H268790   4.588   5.552  13.868 -2.0104  1.0214  0.7746
15767TIP3   OH268791   2.435   3.177   5.027 -0.1660 -0.6368 -0.3123
15767TIP3    H168792   2.366   3.181   5.093 -0.8394  2.4159 -1.0582
15767TIP3    H268793   2.412   3.245   4.964  1.7485 -1.8071 -2.4188
15768TIP3   OH268794   5.528   0.460  16.107  0.0511  0.6303  0.6189
15768TIP3    H168795   5.437   0.472  16.082  0.7276 -0.2650 -2.8127
15768TIP3    H268796   5.572   0.540  16.077  0.7004  0.1725  0.3254
15769TIP3   OH268797   6.804   3.204  11.468  0.6037 -0.4684  0.2887
15769TIP3    H168798   6.763   3.278  11.424  2.2022 -0.0351 -0.5336
15769TIP3    H268799   6.733   3.164  11.519 -1.2611 -0.8289 -2.4021
15770TIP3   OH268800   2.848   5.326  10.884 -0.5798  0.0588 -1.0934
15770TIP3    H168801   2.941   5.348  10.872 -0.2373 -0.1695  0.9236
15770TIP3    H268802   2.843   5.232  10.865 -0.1921 -0.1477 -0.1945
15771TIP3   OH268803   0.749   5.771  15.424  0.3417 -0.0462  0.4993
15771TIP3    H168804   0.730   5.845  15.481 -1.9693 -0.8836  0.9263
15771TIP3    H268805   0.735   5.694  15.479  0.6610 -0.8369 -0.4924
15772TIP3   OH268806   5.433   3.718  14.739  0.2234 -0.2250 -0.1188
15772TIP3    H168807   5.421   3.674  14.822 -1.2376  0.7918  0.2399
15772TIP3    H268808   5.364   3.684  14.683 -0.0776  0.5959 -0.2599
15773TIP3   OH268809   4.729   0.673   0.175 -0.2914  0.5065  0.4453
15773TIP3    H168810   4.662   0.674   0.243  0.6860  0.2429  1.4539
15773TIP3    H268811   4.692   0.723   0.103 -1.5438  0.3955  0.9941
15774TIP3   OH268812   0.109   0.478  11.443 -0.0513 -0.1752  0.3170
15774TIP3    H168813   0.066   0.426  11.375 -1.0500 -0.1144  0.8790
15774TIP3    H268814   0.134   0.414  11.510  0.4705 -0.1715  0.1276
15775TIP3   OH268815   5.709   4.584  17.213 -0.4564  0.9737  0.1713
15775TIP3    H168816   5.618   4.591  17.242 -1.0468 -1.7700 -0.7171
15775TIP3    H268817   5.705   4.600  17.118 -0.2019 -0.1286 -0.0391
15776TIP3   OH268818   5.327   6.596   4.075  0.1445  0.0566  0.5117
15776TIP3    H168819   5.416   6.565   4.087  0.0435 -1.3359 -1.7791
15776TIP3    H268820   5.336   6.681   4.032  0.4029 -0.5040 -0.5802
15777TIP3   OH268821   5.219   1.047  14.604 -0.0190 -0.6614 -0.3165
15777TIP3    H168822   5.159   0.972  14.604  0.2916 -0.9920  2.5036
15777TIP3    H268823   5.268   1.039  14.686 -0.3189  2.8907  0.3512
15778TIP3   OH268824   5.207   5.501  15.448 -0.3243  0.3305 -0.3397
15778TIP3    H168825   5.209   5.565  15.519 -0.5405  1.8277 -1.6378
15778TIP3    H268826   5.114   5.482  15.435 -0.3569  0.8220 -0.8653
15779TIP3   OH268827   0.660   5.068   1.049 -0.7270 -0.5972  0.1661
15779TIP3    H168828   0.691   5.016   0.974 -1.7454 -2.2893  0.8531
15779TIP3    H268829   0.663   5.007   1.123 -2.7567  0.0571  0.8486
15780TIP3   OH268830   3.431   5.832   6.775  0.1464  0.0084 -0.4500
15780TIP3    H168831   3.371   5.775   6.824  1.4784 -0.2121  1.0206
15780TIP3    H268832   3.411   5.814   6.683 -1.1889 -0.9545 -0.0141
15781TIP3   OH268833   0.504   4.697   6.459 -0.0675 -0.2390  0.2085
15781TIP3    H168834   0.485   4.760   6.528 -0.3585  0.2093 -0.2751
15781TIP3    H268835   0.557   4.630   6.502  0.9158  0.7255  0.5511
15782TIP3   OH268836   3.330   6.566   0.428  0.1423  0.5073  0.0512
15782TIP3    H168837   3.316   6.540   0.519  1.6508  0.6381  0.3468
15782TIP3    H268838   3.299   6.656   0.424  0.3981  0.6221  0.5372
15783TIP3   OH268839   2.187   0.491   1.884  0.3870  0.0914 -0.2419
15783TIP3    H168840   2.176   0.558   1.951  1.4260  1.8892 -1.7393
15783TIP3    H268841   2.100   0.479   1.847  0.2706  1.0894 -0.3277
15784TIP3   OH268842   4.485   0.435  16.409 -0.3144  0.3696  0.3888
15784TIP3    H168843   4.573   0.467  16.431  0.3320 -1.2805  0.3171
15784TIP3    H268844   4.466   0.475  16.324 -0.4041  2.1590  1.2075
15785TIP3   OH268845   1.776   0.773  11.760  0.0295  0.8115 -0.0032
15785TIP3    H168846   1.811   0.851  11.803  1.2555  1.0565 -1.3584
15785TIP3    H268847   1.750   0.716  11.832  0.4908  1.8583  1.0334
15786TIP3   OH268848   4.881   5.732   4.882 -0.5370 -0.3892 -0.2342
15786TIP3    H168849   4.946   5.797   4.909  0.0985  0.0509 -2.6282
15786TIP3    H268850   4.901   5.655   4.934 -1.4513  1.2828  2.8701
15787TIP3   OH268851   3.572   1.167   0.113  0.1527 -0.0166 -0.4133
15787TIP3    H168852   3.590   1.075   0.091  2.6514  0.3255 -0.0334
15787TIP3    H268853   3.584   1.171   0.208 -0.1398  0.6829 -0.4049
15788TIP3   OH268854   3.370   6.455   3.588  0.7112  0.2811  0.3408
15788TIP3    H168855   3.280   6.455   3.555  0.7538  0.3286  0.2258
15788TIP3    H268856   3.369   6.390   3.659  0.4273  0.7369  0.7693
15789TIP3   OH268857   2.627   1.106   2.809  0.0366 -0.3111  0.0674
15789TIP3    H168858   2.583   1.064   2.883 -2.1082  0.2798 -0.7789
15789TIP3    H268859   2.555   1.140   2.755  1.5805  2.6615 -0.3363
15790TIP3   OH268860   4.785   3.356  10.637  0.3944 -0.1701 -0.1257
15790TIP3    H168861   4.697   3.360  10.599  0.7735 -1.0736 -1.1635
15790TIP3    H268862   4.796   3.264  10.662  0.7410  0.1061  0.7719
15791TIP3   OH268863   2.200   1.743   3.264  0.0151  0.5021  0.2043
15791TIP3    H168864   2.161   1.656   3.269 -0.7812  0.8799  0.8844
15791TIP3    H268865   2.267   1.743   3.332 -1.0706  0.9214  1.3172
15792TIP3   OH268866   2.407   3.107  14.742 -0.3189 -0.5977  0.5193
15792TIP3    H168867   2.376   3.155  14.819 -0.5773  0.1806 -0.0551
15792TIP3    H268868   2.408   3.015  14.769 -1.7904 -0.4923  1.0014
15793TIP3   OH268869   3.435   0.675  13.244  0.1993  0.0680 -0.4259
15793TIP3    H168870   3.471   0.763  13.251  0.0732  0.2269 -1.5406
15793TIP3    H268871   3.355   0.686  13.193 -0.4766 -0.5353  0.4712
15794TIP3   OH268872   2.745   2.543   1.980  0.8437 -0.0896 -0.5072
15794TIP3    H168873   2.823   2.598   1.972  0.4937  0.3833 -0.7515
15794TIP3    H268874   2.756   2.497   2.063  1.8319 -0.7524 -0.9878
15795TIP3   OH268875   2.807   6.426  14.756  0.4048 -0.3650 -0.0713
15795TIP3    H168876   2.778   6.483  14.685  2.8229  1.5348  0.3027
15795TIP3    H268877   2.829   6.343  14.714  0.3179  0.2000 -1.2660
15796TIP3   OH268878   4.708   0.137  15.841  0.2377  0.0443 -0.1491
15796TIP3    H168879   4.803   0.122  15.840  0.2742 -0.0026  1.4776
15796TIP3    H268880   4.681   0.109  15.928 -1.2672  0.1631 -0.5630
15797TIP3   OH268881   4.252   0.615   5.235  0.1455 -0.2084  0.2247
15797TIP3    H168882   4.166   0.578   5.257 -0.2046  1.1043  1.2476
15797TIP3    H268883   4.274   0.579   5.150 -1.9903  0.3541 -0.6110
15798TIP3   OH268884   4.948   2.679  14.652 -0.0110  0.4159  0.1769
15798TIP3    H168885   4.978   2.731  14.577 -1.3913  0.4232 -0.3950
15798TIP3    H268886   5.024   2.675  14.710  0.8730  0.9941 -0.9018
15799TIP3   OH268887   2.013   4.448   3.026 -0.3781  0.0061  0.0538
15799TIP3    H168888   2.046   4.363   2.998  0.9721  0.7707 -0.7519
15799TIP3    H268889   2.021   4.447   3.121  0.6056 -0.3827 -0.0245
15800TIP3   OH268890   1.033   3.593   5.195  0.3383  0.2753  0.1362
15800TIP3    H168891   0.990   3.674   5.166 -0.3733 -0.6952 -1.6407
15800TIP3    H268892   0.979   3.560   5.266 -1.4397 -0.4729 -1.4966
15801TIP3   OH268893   3.528   4.386   4.329  0.7897 -0.5597 -0.0457
15801TIP3    H168894   3.498   4.388   4.238 -0.7572  0.4662  0.4621
15801TIP3    H268895   3.577   4.467   4.340  0.7005 -0.5297  0.1318
15802TIP3   OH268896   6.419   5.449   5.944  0.0825  0.1508 -0.1107
15802TIP3    H168897   6.486   5.382   5.935  1.1347  0.6624  2.7601
15802TIP3    H268898   6.389   5.441   6.035 -2.2269  1.3510 -0.6960
15803TIP3   OH268899   0.697   0.587   4.211 -0.1682 -0.3852 -0.4129
15803TIP3    H168900   0.610   0.585   4.252  0.0209  0.2487  0.0288
15803TIP3    H268901   0.683   0.552   4.123 -0.7614 -0.8402 -0.1416
15804TIP3   OH268902   5.602   6.602   5.797 -0.0961  0.1117 -0.0822
15804TIP3    H168903   5.547   6.657   5.740  0.9618  1.0178 -0.2638
15804TIP3    H268904   5.655   6.665   5.846  2.0026 -0.7394 -1.1474
15805TIP3   OH268905   5.587   4.004  11.898 -0.2022 -0.9292  0.4907
15805TIP3    H168906   5.543   3.998  11.813 -1.0315  3.2616  0.3861
15805TIP3    H268907   5.667   3.953  11.887 -1.3997 -2.4978 -1.9313
15806TIP3   OH268908   1.804   6.468   4.182 -0.5090  0.0524  0.1589
15806TIP3    H168909   1.886   6.498   4.220 -1.5228 -1.0385  3.5395
15806TIP3    H268910   1.736   6.518   4.228 -1.8505 -0.9919 -0.5912
15807TIP3   OH268911   3.569   5.248  13.151 -0.1296 -0.7159 -0.1029
15807TIP3    H168912   3.511   5.175  13.130  0.0720 -0.6408 -0.9541
15807TIP3    H268913   3.649   5.207  13.184 -0.8145 -0.8091  1.4976
15808TIP3   OH268914   2.932   4.453   2.892 -0.2376  0.3646 -0.6226
15808TIP3    H168915   2.956   4.490   2.976 -1.6787  0.4816 -0.2428
15808TIP3    H268916   2.869   4.384   2.913 -0.3028  0.1126 -1.5758
15809TIP3   OH268917   1.671   2.623   6.487  0.1600 -0.4400 -0.0630
15809TIP3    H168918   1.643   2.670   6.409  1.9256  1.1758  0.1872
15809TIP3    H268919   1.615   2.658   6.557  0.5910  0.3876 -0.1105
15810TIP3   OH268920   1.371   0.593   2.323  0.3610  0.6237 -0.1028
15810TIP3    H168921   1.302   0.655   2.297 -1.5883 -0.3393  2.3615
15810TIP3    H268922   1.334   0.507   2.304  1.2998  0.1121  0.3469
15811TIP3   OH268923   1.365   0.345  15.716 -0.0935 -0.4738 -0.1010
15811TIP3    H168924   1.375   0.295  15.797 -0.0697 -0.3461 -0.0263
15811TIP3    H268925   1.314   0.286  15.658 -0.2040 -0.5204  0.0431
15812TIP3   OH268926   6.210   0.068   0.075  0.4989  0.7871  0.7070
15812TIP3    H168927   6.162   0.080   0.157 -0.0540  1.7742  0.2613
15812TIP3    H268928   6.157   0.005   0.025 -0.5243  2.0516  0.1189
15813TIP3   OH268929   0.992   3.795  12.261  0.3439  0.6481  0.1396
15813TIP3    H168930   0.913   3.786  12.314 -1.0768 -0.3341 -1.9699
15813TIP3    H268931   1.021   3.705  12.245  1.3979  0.9654  0.1956
15814TIP3   OH268932   1.257   2.517  17.200 -0.2193 -0.5792 -0.8377
15814TIP3    H168933   1.327   2.460  17.167 -0.3104  0.2192 -2.4906
15814TIP3    H268934   1.260   2.505  17.295  0.5122 -2.4621 -1.0383
15815TIP3   OH268935   4.591   2.356   5.267  0.0901  0.0659 -0.3035
15815TIP3    H168936   4.653   2.398   5.327  0.2460 -0.7692  0.1319
15815TIP3    H268937   4.647   2.319   5.199  0.0201 -0.1785 -0.2263
15816TIP3   OH268938   6.391   0.870  12.251 -0.8408 -0.1293  0.0229
15816TIP3    H168939   6.457   0.801  12.254 -0.7056  0.0218  1.4231
15816TIP3    H268940   6.399   0.913  12.336 -1.0371  1.5112 -0.7523
15817TIP3   OH268941   0.230   0.684   2.227 -0.5345 -0.9096 -0.2072
15817TIP3    H168942   0.305   0.674   2.285  0.5732  1.6224 -1.0711
15817TIP3    H268943   0.232   0.606   2.171  1.2179 -1.0684  0.0343
15818TIP3   OH268944   4.328   1.872   3.550  0.0856  0.1439 -0.3611
15818TIP3    H168945   4.356   1.794   3.501 -0.8732 -0.2452 -0.2961
15818TIP3    H268946   4.324   1.941   3.484  0.8097  0.1247 -0.4424
15819TIP3   OH268947   0.790   5.501   3.351 -0.1780  0.4541 -0.6415
15819TIP3    H168948   0.822   5.471   3.436  0.5155  0.4383 -0.8967
15819TIP3    H268949   0.733   5.575   3.372  1.5422  1.7532 -0.2355
15820TIP3   OH268950   3.918   6.529  15.711  0.7475 -0.5338  0.4580
15820TIP3    H168951   3.827   6.558  15.701  0.6284 -1.3162 -1.1007
15820TIP3    H268952   3.962   6.602  15.756 -0.3972  0.3357  0.2093
15821TIP3   OH268953   1.804   0.345  14.702  0.0255  0.3340  0.0393
15821TIP3    H168954   1.827   0.430  14.665 -0.4390  0.7948  0.7882
15821TIP3    H268955   1.813   0.284  14.628 -2.0737  1.4211 -1.2176
15822TIP3   OH268956   6.798   1.085  11.069  0.0440  0.0542  0.7549
15822TIP3    H168957   6.753   1.091  10.985 -1.8482  2.4826  1.8386
15822TIP3    H268958   6.815   0.991  11.079 -2.1427 -0.6597 -1.1084
15823TIP3   OH268959   1.376   5.938   5.130 -0.0708  0.0215 -0.0974
15823TIP3    H168960   1.343   5.884   5.202  0.8322 -1.2745 -0.6139
15823TIP3    H268961   1.409   6.017   5.173 -0.5466 -0.2440  0.7865
15824TIP3   OH268962   4.530   6.754  11.865 -0.1393  0.3883 -0.0132
15824TIP3    H168963   4.462   6.695  11.896  0.6728  0.3439  1.8030
15824TIP3    H268964   4.607   6.731  11.917  0.4252  2.4875  0.1626
15825TIP3   OH268965   0.597   1.082  13.983 -0.0788 -0.5842 -0.1576
15825TIP3    H168966   0.586   1.093  14.077 -0.2398 -2.1056  0.0305
15825TIP3    H268967   0.691   1.073  13.970 -0.0468 -0.2482 -0.1593
15826TIP3   OH268968   5.409   5.671  12.308  0.0390  0.3103 -0.3437
15826TIP3    H168969   5.440   5.599  12.253  1.8269 -0.7420  1.8478
15826TIP3    H268970   5.475   5.739  12.297  0.2769  0.1874  0.2849
15827TIP3   OH268971   2.040   5.925   1.978 -0.3160 -0.2759 -0.0778
15827TIP3    H168972   2.126   5.934   1.937 -0.1378  0.8157  0.5050
15827TIP3    H268973   1.982   5.898   1.906  0.5428 -1.2283 -0.4268
15828TIP3   OH268974   5.638   1.866   2.910  0.1633  0.5083  0.0909
15828TIP3    H168975   5.631   1.777   2.945 -2.6898  0.1075 -1.2361
15828TIP3    H268976   5.693   1.856   2.833  1.0822  0.1991  0.7649
15829TIP3   OH268977   3.775   4.090  11.723  0.0445 -0.2396 -0.3503
15829TIP3    H168978   3.760   4.077  11.817  2.8014 -2.7151 -0.0973
15829TIP3    H268979   3.775   4.002  11.686 -2.2757  0.7352 -3.0105
15830TIP3   OH268980   5.341   5.250  15.478  0.3077  0.2009  0.2544
15830TIP3    H168981   5.315   5.321  15.419  1.5820 -0.0439 -0.6349
15830TIP3    H268982   5.358   5.176  15.420 -0.2181 -0.6066  1.1066
15831TIP3   OH268983   1.988   4.875   3.580 -0.8961  0.5096  0.6690
15831TIP3    H168984   2.052   4.936   3.540 -1.9370  1.3539  0.2457
15831TIP3    H268985   1.911   4.929   3.595 -2.0576 -0.8404 -0.2478
15832TIP3   OH268986   6.716   3.715  16.641  0.7247 -0.4924 -0.3557
15832TIP3    H168987   6.675   3.723  16.727 -0.0135  0.4859 -0.7763
15832TIP3    H268988   6.804   3.750  16.654  0.6691 -0.4922  0.0385
15833TIP3   OH268989   4.003   1.427  14.606  0.2383 -0.5595 -0.1503
15833TIP3    H168990   4.057   1.387  14.674 -0.2351 -0.7843  0.1074
15833TIP3    H268991   3.938   1.359  14.585 -0.0940 -0.2107 -0.2694
15834TIP3   OH268992   4.990   3.189   2.786 -0.1089 -0.3275 -0.1258
15834TIP3    H168993   4.943   3.136   2.849  1.1366 -0.0581  1.0831
15834TIP3    H268994   5.064   3.225   2.835 -0.0273  1.2371 -1.3115
15835TIP3   OH268995   6.303   5.823   3.491 -0.1608  0.1978  0.5618
15835TIP3    H168996   6.239   5.765   3.451  1.5951 -0.3308 -1.7182
15835TIP3    H268997   6.351   5.767   3.552  1.1497 -0.7500 -1.2098
15836TIP3   OH268998   0.058   0.254   2.645 -0.0648 -0.4299 -0.0525
15836TIP3    H168999  -0.004   0.269   2.717 -1.1308 -0.9531 -0.8284
15836TIP3    H269000   0.140   0.294   2.675 -0.9023  0.7348  0.8055
15837TIP3   OH269001   2.723   2.524   3.446 -0.8842  0.4484  0.3927
15837TIP3    H169002   2.776   2.605   3.447  0.7517 -0.5064 -1.4808
15837TIP3    H269003   2.633   2.554   3.460 -0.5013  2.7995 -1.5170
15838TIP3   OH269004   6.172   4.601   5.263  0.5458 -0.3674  0.3297
15838TIP3    H169005   6.231   4.560   5.200  0.7167  0.4396 -0.0464
15838TIP3    H269006   6.138   4.678   5.217  1.5555  0.8959  1.6033
15839TIP3   OH269007   5.236   0.576  12.604 -0.1082 -0.3355 -0.3064
15839TIP3    H169008   5.221   0.507  12.669  0.6256  1.0862  1.4719
15839TIP3    H269009   5.327   0.564  12.578  0.7952  1.2642  1.7792
15840TIP3   OH269010   4.446   5.655  14.253  0.4904 -0.1174  0.1002
15840TIP3    H169011   4.390   5.719  14.210  0.5818  0.9918  1.5693
15840TIP3    H269012   4.518   5.706  14.289  0.5915 -1.0338  1.2635
15841TIP3   OH269013   4.214   2.778   4.821 -0.5802  0.2117  0.5837
15841TIP3    H169014   4.149   2.768   4.890 -1.9634  2.3691 -0.3175
15841TIP3    H269015   4.164   2.803   4.744  1.1108 -0.2721 -0.7453
15842TIP3   OH269016   4.753   3.090   4.516 -0.4456  0.2367 -0.1734
15842TIP3    H169017   4.780   3.090   4.608  0.1229 -1.0833 -0.3186
15842TIP3    H269018   4.658   3.079   4.519 -0.5047  0.7803  0.2554
15843TIP3   OH269019   2.167   6.000   3.420  0.0274  0.3099  0.0204
15843TIP3    H169020   2.134   6.086   3.448  0.3115  0.7120 -0.8593
15843TIP3    H269021   2.174   6.006   3.325 -2.0199 -1.4278 -0.3153
15844TIP3   OH269022   5.340   6.768  12.476 -0.4446  0.8989 -0.4583
15844TIP3    H169023   5.381   6.835  12.421  0.0966  1.1243  0.1979
15844TIP3    H269024   5.389   6.771  12.558 -1.3157  0.6678  0.0916
15845TIP3   OH269025   0.847   2.618   5.811 -0.4851 -0.2693 -0.4682
15845TIP3    H169026   0.790   2.691   5.789 -1.0556 -0.7205 -0.5163
15845TIP3    H269027   0.805   2.575   5.885 -1.1191 -1.5808 -1.5298
15846TIP3   OH269028   1.542   2.591   0.159  0.0951 -0.1583 -0.4359
15846TIP3    H169029   1.461   2.635   0.134 -0.2013 -0.4818 -0.0599
15846TIP3    H269030   1.583   2.649   0.222 -0.4369 -0.5329  0.2812
15847TIP3   OH269031   4.497   5.897   0.478  0.2832  0.2288  0.2134
15847TIP3    H169032   4.440   5.922   0.551 -0.0750 -0.5677  0.2250
15847TIP3    H269033   4.451   5.929   0.400 -0.1715 -0.3632  0.2268
15848TIP3   OH269034   3.185   1.071   3.589  0.6177 -1.1480  0.3200
15848TIP3    H169035   3.257   1.018   3.556  0.6993 -0.1607 -1.1573
15848TIP3    H269036   3.198   1.072   3.684  4.1086  1.1159 -0.0106
15849TIP3   OH269037   0.002   6.725   5.544 -0.0496  0.4814  0.2572
15849TIP3    H169038   0.018   6.747   5.636  2.2526  1.0920 -0.2108
15849TIP3    H269039   0.033   6.634   5.536 -0.7102  0.2596  0.1811
15850TIP3   OH269040   0.436   5.899   5.418 -0.0452 -0.1036 -0.0997
15850TIP3    H169041   0.472   5.927   5.334 -0.3793  0.6202 -0.0101
15850TIP3    H269042   0.508   5.851   5.459 -0.0030 -0.7954 -0.9503
15851TIP3   OH269043   6.695   2.562   5.204 -0.0354  0.0699 -0.3177
15851TIP3    H169044   6.779   2.607   5.214 -1.3104  2.1224  2.6349
15851TIP3    H269045   6.718   2.469   5.208  2.1605  0.5276 -0.5974
15852TIP3   OH269046   3.505   5.946   6.120 -0.4345  0.9699 -0.0276
15852TIP3    H169047   3.459   5.945   6.036 -0.8525 -1.8916  0.1607
15852TIP3    H269048   3.453   5.891   6.177  1.3753  0.4820  1.2492
15853TIP3   OH269049   0.256   6.074  15.929 -0.0347  0.0413 -0.2025
15853TIP3    H169050   0.231   6.156  15.886 -0.1551 -0.7579 -1.7572
15853TIP3    H269051   0.310   6.100  16.003  0.6286  1.5096 -1.1566
15854TIP3   OH269052   0.168   0.568  13.342  0.0318 -0.0195  0.6457
15854TIP3    H169053   0.086   0.613  13.325 -0.9029 -1.7888  0.1793
15854TIP3    H269054   0.155   0.480  13.306  2.5132 -0.0454 -0.3678
15855TIP3   OH269055   2.878   4.840  14.433 -0.0769  0.3274  0.1863
15855TIP3    H169056   2.811   4.854  14.500  0.4870 -0.8063  1.0173
15855TIP3    H269057   2.923   4.924  14.426  0.2783  0.2742  1.7050
15856TIP3   OH269058   6.619   5.714   3.448  0.6554 -0.0817 -0.0586
15856TIP3    H169059   6.703   5.678   3.421  0.7798 -0.1982  0.4689
15856TIP3    H269060   6.566   5.638   3.472 -0.5175 -0.2503 -2.7776
15857TIP3   OH269061   4.188   5.615  14.408  0.3086 -0.3880  0.3815
15857TIP3    H169062   4.272   5.611  14.363  0.0161 -2.3021 -0.0875
15857TIP3    H269063   4.182   5.532  14.456 -0.7139  0.3065  1.5215
15858TIP3   OH269064   0.901   0.430   0.956  0.7086 -0.1254 -0.4855
15858TIP3    H169065   0.909   0.416   1.050  1.1330  1.6218 -0.2341
15858TIP3    H269066   0.956   0.506   0.938 -1.8212  1.5398 -1.6275
15859TIP3   OH269067   5.329   3.248   2.014 -0.0357  0.3920 -0.0042
15859TIP3    H169068   5.297   3.337   1.999 -1.3497 -0.2129 -1.0078
15859TIP3    H269069   5.263   3.207   2.069 -0.3257 -0.4552 -0.9379
15860TIP3   OH269070   5.685   0.266   0.293 -0.8164  0.1205 -0.1325
15860TIP3    H169071   5.672   0.318   0.213 -1.0009  1.7241  0.8898
15860TIP3    H269072   5.750   0.315   0.343  0.0962 -1.4326  0.2386
15861TIP3   OH269073   3.987   0.981   2.613  0.5443  0.3697 -0.2337
15861TIP3    H169074   3.929   1.050   2.645  0.1214  0.5700 -1.3947
15861TIP3    H269075   3.957   0.963   2.524  0.9860 -0.9427 -0.1497
15862TIP3   OH269076   5.862   5.312  13.036  0.0685 -0.2901 -0.9724
15862TIP3    H169077   5.869   5.253  13.111 -0.1999 -1.4799 -1.8708
15862TIP3    H269078   5.843   5.398  13.076  3.3352 -0.1276  0.5247
15863TIP3   OH269079   3.037   2.930  11.168  0.2716  0.4399  0.2372
15863TIP3    H169080   3.109   2.931  11.106 -0.0890 -1.5870 -0.2948
15863TIP3    H269081   3.067   2.876  11.240  0.0946  1.4604  1.1045
15864TIP3   OH269082   6.438   1.935  14.739  0.1566  0.9345 -0.2116
15864TIP3    H169083   6.509   1.881  14.705 -0.6983  0.1628 -0.8370
15864TIP3    H269084   6.429   2.005  14.675 -0.4551  0.3269 -0.8101
15865TIP3   OH269085   1.845   1.313  15.527 -0.6487 -0.5644  0.2587
15865TIP3    H169086   1.873   1.360  15.606 -1.4840 -0.7785  0.6913
15865TIP3    H269087   1.917   1.326  15.465 -0.1404 -0.0910  0.9286
15866TIP3   OH269088   0.574   2.513  14.561  0.2058  0.4670 -0.4803
15866TIP3    H169089   0.561   2.423  14.534 -2.3391  0.1874  1.3099
15866TIP3    H269090   0.486   2.545  14.581  1.3342  2.1835  2.3356
15867TIP3   OH269091   4.066   6.713  15.880  0.2610  0.1430 -0.8530
15867TIP3    H169092   4.024   6.790  15.919 -0.6014 -1.3056  1.2036
15867TIP3    H269093   4.158   6.738  15.872  0.4249  0.6889  1.8186
15868TIP3   OH269094   1.690   1.838  10.296 -0.5789 -0.4618 -0.0099
15868TIP3    H169095   1.680   1.751  10.258  1.0254 -0.7990  0.2632
15868TIP3    H269096   1.763   1.829  10.358 -0.5515  1.0067  0.2093
15869TIP3   OH269097   2.597   4.274   2.587  0.0219 -0.7293 -0.0655
15869TIP3    H169098   2.517   4.223   2.575 -2.1003  1.6718  2.2881
15869TIP3    H269099   2.609   4.320   2.504 -0.6944 -1.6147 -0.6687
15870TIP3   OH269100   2.086   3.371   2.875 -0.3966 -0.0566  0.1677
15870TIP3    H169101   2.045   3.347   2.958 -0.6482 -0.5793 -0.1045
15870TIP3    H269102   2.014   3.397   2.818 -0.1338  1.3653  0.4457
15871TIP3   OH269103   3.943   2.351  12.868 -0.3024  0.4009  0.4660
15871TIP3    H169104   4.008   2.342  12.938 -0.6726  0.8662  0.8746
15871TIP3    H269105   3.908   2.262  12.856  1.0283 -0.0496 -0.3832
15872TIP3   OH269106   6.769   4.769   4.139  0.3812 -0.1500  0.3787
15872TIP3    H169107   6.830   4.823   4.088  0.5089  1.1668  1.8692
15872TIP3    H269108   6.819   4.742   4.216 -0.0457 -1.4738  0.2174
15873TIP3   OH269109   5.439   3.786   0.739 -0.2123 -0.2130  0.2798
15873TIP3    H169110   5.391   3.815   0.817  1.1394 -0.4812  1.2527
15873TIP3    H269111   5.449   3.691   0.752 -1.0070 -0.4750 -0.8369
15874TIP3   OH269112   0.665   6.352   2.554  0.4951  0.0498  0.2417
15874TIP3    H169113   0.735   6.292   2.580  0.6203  0.1672  0.1757
15874TIP3    H269114   0.626   6.311   2.477  0.0997 -0.3179  0.6306
15875TIP3   OH269115   1.725   4.300   3.002 -0.1377 -0.0294  0.0151
15875TIP3    H169116   1.793   4.238   3.025 -1.5948 -2.1151 -0.9902
15875TIP3    H269117   1.769   4.385   3.000  2.3954 -1.2680 -0.5350
15876TIP3   OH269118   1.913   0.676   5.559  0.1829 -0.2847 -0.0469
15876TIP3    H169119   1.892   0.611   5.626 -0.6924  1.3477  1.3424
15876TIP3    H269120   1.999   0.709   5.584 -0.3554  0.6736  0.5900
15877TIP3   OH269121   0.337   3.884   1.535 -0.3650 -0.3954 -0.0035
15877TIP3    H169122   0.394   3.941   1.588 -1.3577  0.3242  0.3183
15877TIP3    H269123   0.332   3.803   1.584 -1.8916  0.5217  1.4612
15878TIP3   OH269124   4.445   2.005  16.216  0.0282 -0.0663  0.9113
15878TIP3    H169125   4.376   1.954  16.172 -0.1678 -0.3808  1.5638
15878TIP3    H269126   4.397   2.071  16.266  0.2288  0.0010  1.0122
15879TIP3   OH269127   1.437   1.444   1.935  0.0788 -0.5776 -0.0052
15879TIP3    H169128   1.527   1.434   1.904  0.2221 -2.6929  0.8943
15879TIP3    H269129   1.435   1.393   2.017 -1.4729  0.9518  0.9520
15880TIP3   OH269130   6.033   0.564  12.683 -0.1466  0.4253  0.3821
15880TIP3    H169131   5.974   0.637  12.666 -0.2584  0.1936 -0.2611
15880TIP3    H269132   6.098   0.599  12.743  1.6696  2.0743 -2.3032
15881TIP3   OH269133   2.843   4.785  16.768 -0.0627  0.1559  0.6673
15881TIP3    H169134   2.807   4.795  16.856 -2.9846  1.2558 -0.5462
15881TIP3    H269135   2.800   4.707  16.733  0.2695  0.3374 -0.1727
15882TIP3   OH269136   4.384   5.020  12.664 -0.6266  0.2088  0.4747
15882TIP3    H169137   4.467   5.065  12.649 -1.6751  1.5589 -1.8078
15882TIP3    H269138   4.317   5.083  12.636 -2.5158 -0.5652  2.8428
15883TIP3   OH269139   1.415   0.747   1.734  0.0268 -0.2656  0.8070
15883TIP3    H169140   1.350   0.807   1.771  0.6498  0.5918  0.5516
15883TIP3    H269141   1.453   0.704   1.811  1.1078  1.2928  1.1923
15884TIP3   OH269142   0.279   4.764  16.074 -0.1808 -0.3439  0.0599
15884TIP3    H169143   0.282   4.816  16.155  1.3738 -0.3049  0.0129
15884TIP3    H269144   0.364   4.720  16.072 -0.3461 -0.6178 -1.3905
15885TIP3   OH269145   0.801   3.536  11.200  0.2450  0.0321 -0.0363
15885TIP3    H169146   0.861   3.461  11.191 -0.5844 -0.6607  0.1278
15885TIP3    H269147   0.805   3.558  11.293  0.3337  0.0671 -0.0484
15886TIP3   OH269148   6.200   5.254   0.226 -0.6009  0.9668 -0.1822
15886TIP3    H169149   6.221   5.161   0.219  1.7623  1.5278 -1.8461
15886TIP3    H269150   6.221   5.276   0.317 -0.8087 -0.0236  0.1186
15887TIP3   OH269151   1.431   2.000   1.564  0.0345  0.1518 -0.2383
15887TIP3    H169152   1.522   2.031   1.567 -0.5626  1.9420  1.5497
15887TIP3    H269153   1.411   1.977   1.655 -1.3740  0.0180 -0.5703
15888TIP3   OH269154   5.041   6.460  10.312  0.0115  0.0053 -0.6431
15888TIP3    H169155   5.130   6.492  10.326  0.3431 -0.8095 -0.8177
15888TIP3    H269156   4.989   6.504  10.379  0.3869  1.1036 -1.0424
15889TIP3   OH269157   4.575   4.313   1.140  0.5324  0.1801  0.0099
15889TIP3    H169158   4.545   4.397   1.106 -0.6992  0.4317  1.6248
15889TIP3    H269159   4.514   4.249   1.104  0.0636  0.2756  0.6263
15890TIP3   OH269160   5.674   1.455   4.489  0.1720  0.1273 -0.2115
15890TIP3    H169161   5.732   1.529   4.473 -0.5928  0.7105 -0.3687
15890TIP3    H269162   5.611   1.457   4.417  0.6390 -1.1954 -0.6880
15891TIP3   OH269163   0.836   1.933   2.473 -0.2489  0.4378  0.2288
15891TIP3    H169164   0.817   1.869   2.542 -2.4446  0.6914 -0.0848
15891TIP3    H269165   0.850   2.015   2.520 -2.1430  0.7002  0.4188
15892TIP3   OH269166   6.310   2.567   0.438  0.0924 -0.2207 -0.4308
15892TIP3    H169167   6.239   2.519   0.482  1.5716 -0.6571  1.6805
15892TIP3    H269168   6.369   2.498   0.408  0.5619  0.1874 -0.4472
15893TIP3   OH269169   3.121   3.489   2.812  0.0244  0.1026  0.5788
15893TIP3    H169170   3.127   3.452   2.900 -0.4414 -0.4506  0.3868
15893TIP3    H269171   3.108   3.583   2.826 -0.5761 -0.0530  1.1177
15894TIP3   OH269172   2.645   3.003   5.919 -0.2328 -0.0495  0.7929
15894TIP3    H169173   2.599   3.048   5.848 -0.1598  1.5629  1.7082
15894TIP3    H269174   2.710   2.949   5.875 -0.1472  0.9548 -0.3863
15895TIP3   OH269175   3.137   3.191  15.896  0.3981 -0.9080 -0.3775
15895TIP3    H169176   3.069   3.233  15.844 -0.6199 -1.6877  0.2912
15895TIP3    H269177   3.170   3.120  15.842  1.9197  0.4891 -1.3944
15896TIP3   OH269178   4.394   4.891   2.989 -0.4416 -0.1509  0.1995
15896TIP3    H169179   4.383   4.883   2.894 -1.9040  2.6643  0.0215
15896TIP3    H269180   4.484   4.919   3.001 -0.4084  0.0207 -0.4131
15897TIP3   OH269181   4.008   5.832  17.165  0.4624 -0.3219  0.1991
15897TIP3    H169182   4.068   5.847  17.092  0.0679 -0.6491 -0.2024
15897TIP3    H269183   3.973   5.919  17.185 -0.0723 -0.3398 -0.5818
15898TIP3   OH269184   3.446   3.492  15.357  0.1365  0.3046 -0.3179
15898TIP3    H169185   3.487   3.564  15.405  0.8432 -0.4596  0.2568
15898TIP3    H269186   3.448   3.418  15.418 -0.5586 -0.2105 -0.9006
15899TIP3   OH269187   4.162   1.195  15.172  0.1735 -0.1329 -0.1616
15899TIP3    H169188   4.199   1.124  15.224 -0.2502 -0.4455 -0.2827
15899TIP3    H269189   4.067   1.186  15.181  0.0994  1.4863  1.2569
15900TIP3   OH269190   5.363   3.684   1.214  0.1979  0.2899  0.4033
15900TIP3    H169191   5.379   3.757   1.274  3.0888  0.1195  0.0264
15900TIP3    H269192   5.438   3.626   1.229 -0.6121 -1.2438 -1.2474
15901TIP3   OH269193   3.607   2.339  15.367 -0.5805  0.3137 -0.0092
15901TIP3    H169194   3.633   2.430  15.351  1.1419 -0.0732  0.4164
15901TIP3    H269195   3.515   2.345  15.390 -0.5523  1.9427 -0.1554
15902TIP3   OH269196   1.574   2.810   6.732  0.4570  0.5192 -0.8377
15902TIP3    H169197   1.643   2.874   6.713 -1.3287  2.3329 -1.6328
15902TIP3    H269198   1.521   2.852   6.800 -1.1340  0.2369 -1.8368
15903TIP3   OH269199   3.306   0.862  12.338 -0.5181  0.0993 -0.7402
15903TIP3    H169200   3.397   0.885  12.356 -0.7037 -0.3923  0.9760
15903TIP3    H269201   3.312   0.798  12.266  0.5240 -0.2974 -0.3232
15904TIP3   OH269202   2.683   2.683   3.820 -0.6845  0.0485 -0.3408
15904TIP3    H169203   2.605   2.637   3.787 -1.1206  0.6468 -0.1701
15904TIP3    H269204   2.652   2.772   3.837  0.2150  0.4815 -0.9148
15905TIP3   OH269205   4.427   3.643  17.047  0.1308 -0.5282 -0.6127
15905TIP3    H169206   4.404   3.726  17.004 -1.6734  0.0190  1.2074
15905TIP3    H269207   4.450   3.668  17.137  1.9664 -1.7944 -0.6841
15906TIP3   OH269208   3.966   1.531  16.143  0.3382  0.1526  0.2933
15906TIP3    H169209   4.053   1.493  16.159  0.1115  0.1424  1.6187
15906TIP3    H269210   3.910   1.456  16.123  0.0692 -0.1677  2.0969
15907TIP3   OH269211   2.173   1.356  16.271  0.4956  0.1779  0.0245
15907TIP3    H169212   2.245   1.338  16.211 -0.3012 -2.7116 -0.2591
15907TIP3    H269213   2.100   1.381  16.214  0.3425 -0.3636 -0.0210
15908TIP3   OH269214   5.279   6.207   3.316  0.3988 -0.4125 -0.0223
15908TIP3    H169215   5.302   6.279   3.375  2.2502 -0.0577 -1.0922
15908TIP3    H269216   5.235   6.248   3.243 -1.0145 -0.7365  0.6142
15909TIP3   OH269217   1.358   3.061   2.508  0.3952  0.4840 -0.3391
15909TIP3    H169218   1.314   2.978   2.525 -0.1738  0.6320 -1.0788
15909TIP3    H269219   1.349   3.109   2.591 -0.1712  0.2143 -0.2357
15910TIP3   OH269220   5.239   1.988  14.680 -0.4541  0.3750  0.4678
15910TIP3    H169221   5.256   1.898  14.654 -0.2646 -0.3833  2.9922
15910TIP3    H269222   5.324   2.032  14.672  0.4863 -0.7578  3.0182
15911TIP3   OH269223   3.632   2.099   5.539 -0.2090  0.1834  0.3098
15911TIP3    H169224   3.601   2.015   5.507 -1.3858  0.3099  1.0577
15911TIP3    H269225   3.722   2.105   5.507  0.0293 -1.5149  0.5525
15912TIP3   OH269226   1.271   2.688  12.230 -0.3059 -0.4636  0.2376
15912TIP3    H169227   1.342   2.752  12.237 -0.7799  0.1204 -0.1027
15912TIP3    H269228   1.298   2.615  12.285 -0.3049  0.5623  1.6673
15913TIP3   OH269229   6.317   1.867  11.415 -0.2645  0.1643 -0.0167
15913TIP3    H169230   6.411   1.874  11.436 -0.4127  0.9620  0.4271
15913TIP3    H269231   6.274   1.874  11.500 -0.7210 -0.3144 -0.2113
15914TIP3   OH269232   1.754   2.733   0.373  0.1966  0.7433 -0.0719
15914TIP3    H169233   1.775   2.664   0.310 -0.9944 -0.0221  0.3277
15914TIP3    H269234   1.719   2.804   0.320  0.5292  0.6668 -0.4000
15915TIP3   OH269235   0.623   2.528   1.295 -0.0594  0.4572 -0.4022
15915TIP3    H169236   0.621   2.623   1.304  0.8138  0.4497 -0.0324
15915TIP3    H269237   0.630   2.512   1.201  0.7944  0.7864 -0.3980
15916TIP3   OH269238   0.962   6.681  11.492  0.3390 -0.2913 -0.1708
15916TIP3    H169239   0.947   6.776  11.496 -4.1462 -0.8095  0.5440
15916TIP3    H269240   0.948   6.651  11.582  2.9043 -1.6427 -0.1281
15917TIP3   OH269241   5.050   0.795  12.071  0.3682  0.1373 -0.4428
15917TIP3    H169242   5.129   0.837  12.036  0.6329 -1.1925 -1.5467
15917TIP3    H269243   4.989   0.793  11.997 -0.8001  1.3127  0.4506
15918TIP3   OH269244   4.142   1.054   4.016 -0.4952  0.2160 -0.8462
15918TIP3    H169245   4.174   1.000   3.943  0.9983  1.6164 -1.2996
15918TIP3    H269246   4.146   0.995   4.092  0.8962 -0.4054 -1.3525
15919TIP3   OH269247   0.141   3.370  15.765 -0.4251  0.4423 -0.4559
15919TIP3    H169248   0.209   3.407  15.709 -0.9564  0.4369 -1.1075
15919TIP3    H269249   0.062   3.421  15.744 -0.9890 -0.5698 -0.8304
15920TIP3   OH269250   3.211   4.896   3.076  0.4143 -0.2816  0.1937
15920TIP3    H169251   3.144   4.953   3.038 -0.1486 -0.0975  1.4045
15920TIP3    H269252   3.274   4.881   3.005  0.2899  1.4076 -0.3090
15921TIP3   OH269253   5.105   0.468  13.916 -0.6251  0.5231  0.1546
15921TIP3    H169254   5.120   0.404  13.986  0.3882 -0.0754 -0.5931
15921TIP3    H269255   5.168   0.538  13.934 -1.8963  1.4808  1.1148
15922TIP3   OH269256   1.600   1.990   5.307  0.0818  0.0697 -0.9273
15922TIP3    H169257   1.510   2.017   5.327 -0.4322 -0.4156 -2.4230
15922TIP3    H269258   1.653   2.026   5.378 -1.0031  2.2093 -1.1500
15923TIP3   OH269259   1.101   0.936  12.429 -0.1375  0.5754 -0.2431
15923TIP3    H169260   1.085   0.884  12.350 -0.9131 -1.0524  0.9225
15923TIP3    H269261   1.015   0.946  12.469  0.5417 -1.3262  1.9488
15924TIP3   OH269262   2.267   1.602  10.881 -0.5351 -0.2503  0.2295
15924TIP3    H169263   2.307   1.635  10.961  0.5036 -0.1864 -0.2913
15924TIP3    H269264   2.340   1.563  10.832 -0.9509  0.5636 -1.1052
15925TIP3   OH269265   6.517   0.069   0.832  0.1310  0.3214  0.1765
15925TIP3    H169266   6.579   0.002   0.803 -1.6726 -2.0144  1.3896
15925TIP3    H269267   6.456   0.078   0.759 -0.9836 -1.1557  0.8960
15926TIP3   OH269268   1.660   5.628  16.448  0.1143  0.0552 -0.8011
15926TIP3    H169269   1.644   5.534  16.443  0.1963 -0.0048 -0.1126
15926TIP3    H269270   1.612   5.655  16.527 -0.7092  0.7597 -1.5272
15927TIP3   OH269271   3.332   5.197   4.614  0.0921 -0.3739  0.6195
15927TIP3    H169272   3.419   5.177   4.650  0.5635  1.2470  0.4707
15927TIP3    H269273   3.350   5.258   4.542 -1.1641 -0.0718  0.5397
15928TIP3   OH269274   3.881   3.577   1.059 -0.0070  0.0400 -0.1450
15928TIP3    H169275   3.917   3.654   1.103  0.0962  0.3450 -0.7465
15928TIP3    H269276   3.955   3.516   1.054 -0.0091  0.0198  0.0630
15929TIP3   OH269277   5.118   2.346   4.827 -0.3407  0.6150 -0.2826
15929TIP3    H169278   5.064   2.424   4.822 -0.8159  0.4604  1.5783
15929TIP3    H269279   5.095   2.295   4.750 -2.0430  1.0650 -0.1076
15930TIP3   OH269280   0.922   0.591  14.270 -0.4671  0.3910  0.1634
15930TIP3    H169281   0.982   0.536  14.220  0.2176  1.3615 -0.1093
15930TIP3    H269282   0.943   0.573  14.362 -1.3107 -0.9359  0.1256
15931TIP3   OH269283   2.800   1.744  16.082 -0.0469 -0.2693 -0.4351
15931TIP3    H169284   2.815   1.829  16.124 -1.0492 -0.0161 -0.5508
15931TIP3    H269285   2.861   1.684  16.125 -0.1175  0.2749  0.4531
15932TIP3   OH269286   5.118   0.794  15.513  0.5760 -0.3071 -0.4087
15932TIP3    H169287   5.212   0.775  15.519  0.3541 -1.3881  0.0155
15932TIP3    H269288   5.077   0.725  15.565 -0.5306 -0.5761 -1.5727
15933TIP3   OH269289   0.232   4.743   1.467  0.2752  0.6592 -0.2879
15933TIP3    H169290   0.283   4.747   1.386  0.1291  1.7476 -0.3479
15933TIP3    H269291   0.293   4.708   1.532  0.2969 -0.5228 -0.9277
15934TIP3   OH269292   2.953   0.918  15.479 -0.3052 -0.1727  0.2215
15934TIP3    H169293   2.910   0.846  15.434 -2.7999 -0.1032  2.3192
15934TIP3    H269294   2.917   0.997  15.438  2.4513  0.0783 -2.1032
15935TIP3   OH269295   0.278   2.913   0.912 -0.1696 -0.5061 -1.7412
15935TIP3    H169296   0.222   2.846   0.950  1.1248 -0.8541 -0.3297
15935TIP3    H269297   0.356   2.866   0.884  1.3056  0.4987  0.4158
15936TIP3   OH269298   2.569   3.604  14.156 -0.3290 -0.0876 -0.5899
15936TIP3    H169299   2.547   3.659  14.082 -1.1003  1.0788  0.4639
15936TIP3    H269300   2.604   3.664  14.222 -1.8333 -0.6839  0.8522
15937TIP3   OH269301   3.303   5.338   6.074 -0.5370 -0.2567  0.0144
15937TIP3    H169302   3.372   5.351   6.139  0.3012  0.5861 -1.0151
15937TIP3    H269303   3.304   5.244   6.056 -0.4454 -0.4254  0.8360
15938TIP3   OH269304   5.626   0.071   2.605  0.4909  0.3586 -0.1266
15938TIP3    H169305   5.537   0.044   2.583 -0.1672  1.3281  1.2703
15938TIP3    H269306   5.616   0.149   2.658  2.2013  0.6585 -0.1711
15939TIP3   OH269307   1.154   4.380   0.254  0.0612 -0.4163  0.5243
15939TIP3    H169308   1.138   4.292   0.288  0.4414  0.0114  1.8886
15939TIP3    H269309   1.235   4.372   0.203  0.0324 -0.8795  0.5495
15940TIP3   OH269310   5.625   6.376   5.625  0.4241 -0.1531  0.2915
15940TIP3    H169311   5.718   6.373   5.603  0.7045 -0.8069  1.5103
15940TIP3    H269312   5.615   6.457   5.675  0.4544 -0.3669  0.6467
15941TIP3   OH269313   0.632   2.907   4.974  0.8421  0.4015 -0.4085
15941TIP3    H169314   0.651   2.983   5.029  2.1721 -0.1244 -0.1225
15941TIP3    H269315   0.539   2.916   4.953  0.0975  0.2673  2.4392
15942TIP3   OH269316   4.365   1.180  12.677  0.0517 -0.1845 -0.1306
15942TIP3    H169317   4.309   1.133  12.616  0.1633  0.7120 -0.9457
15942TIP3    H269318   4.312   1.254  12.707  0.3215 -0.1008  0.1493
15943TIP3   OH269319   6.113   0.494   1.394 -0.7624 -0.8795 -0.0141
15943TIP3    H169320   6.120   0.405   1.428 -1.2921 -0.8403  0.2194
15943TIP3    H269321   6.188   0.505   1.336 -1.4145 -1.9299 -1.0912
15944TIP3   OH269322   2.754   1.109   0.797 -0.8400  0.0803  0.4835
15944TIP3    H169323   2.829   1.078   0.746 -1.6143  0.5429 -1.0281
15944TIP3    H269324   2.790   1.176   0.855  0.2401 -1.1459  1.2655
15945TIP3   OH269325   4.171   3.107   0.176 -0.1527  0.0067  0.7675
15945TIP3    H169326   4.208   3.066   0.254  1.4618 -0.8727 -0.3820
15945TIP3    H269327   4.147   3.033   0.120  0.6525  0.5851 -0.3872
15946TIP3   OH269328   4.863   3.067  13.111  0.4150 -0.1293  0.5125
15946TIP3    H169329   4.877   3.161  13.124  2.4157 -0.2247 -0.5467
15946TIP3    H269330   4.772   3.053  13.136 -0.3355  2.3279 -0.5606
15947TIP3   OH269331   2.112   5.262  13.887 -0.6416 -0.0860 -0.0240
15947TIP3    H169332   2.180   5.200  13.912 -2.3081 -0.5481  4.0075
15947TIP3    H269333   2.060   5.215  13.821 -0.4921 -2.1168  1.2229
15948TIP3   OH269334   0.394   5.818  16.777  0.1559  0.6197  0.1593
15948TIP3    H169335   0.388   5.795  16.870 -0.4886 -1.4330 -0.3264
15948TIP3    H269336   0.484   5.796  16.753  0.0217  0.1470  0.0763
15949TIP3   OH269337   2.496   4.090  13.207  0.2096 -0.2007  0.6442
15949TIP3    H169338   2.443   4.058  13.135 -0.4546  1.2923  0.4277
15949TIP3    H269339   2.489   4.023  13.275  0.7541 -1.5776 -0.6034
15950TIP3   OH269340   5.192   1.534  10.754 -0.1292 -0.2306 -1.1898
15950TIP3    H169341   5.132   1.501  10.687 -0.2019  0.6509 -1.5713
15950TIP3    H269342   5.163   1.624  10.770 -0.6233 -0.6777  0.6181
15951TIP3   OH269343   3.078   3.376  12.024  0.8845 -0.4181  0.7666
15951TIP3    H169344   3.153   3.419  12.065  0.5190  2.3065 -1.1188
15951TIP3    H269345   3.111   3.348  11.938  0.3429 -1.2914  0.8382
15952TIP3   OH269346   4.965   0.297   5.051 -0.3397  0.0198  0.3171
15952TIP3    H169347   4.989   0.290   5.143 -1.8371 -0.0246  0.7352
15952TIP3    H269348   5.045   0.323   5.006  0.7041 -1.1478  1.4542
15953TIP3   OH269349   3.267   1.502   2.477  0.0732  0.1876  0.1034
15953TIP3    H169350   3.330   1.555   2.526  0.1460 -0.2056  0.4524
15953TIP3    H269351   3.205   1.472   2.544  0.5811 -0.9461  0.0898
15954TIP3   OH269352   2.079   5.755  16.737 -0.0059 -0.6356  0.0010
15954TIP3    H169353   2.112   5.839  16.766 -0.8024 -0.2767 -0.1165
15954TIP3    H269354   2.005   5.776  16.680 -0.2063 -1.4096 -0.0430
15955TIP3   OH269355   5.872   0.625  10.857 -0.0686 -0.2218 -0.1627
15955TIP3    H169356   5.907   0.639  10.768  0.9493 -0.3329  0.2050
15955TIP3    H269357   5.940   0.660  10.915 -1.4098  1.3101  0.5641
15956TIP3   OH269358   3.270   4.135  13.396  0.4815  0.5850  0.2466
15956TIP3    H169359   3.182   4.124  13.361  0.3461 -0.9752  0.9926
15956TIP3    H269360   3.277   4.229  13.414 -0.8881  0.7858 -0.1655
15957TIP3   OH269361   0.012   5.029  12.205  0.1761  0.1369 -0.7883
15957TIP3    H169362  -0.083   5.032  12.210  0.1311  0.5047 -1.6355
15957TIP3    H269363   0.039   5.121  12.209  0.5780 -0.0277  0.6573
15958TIP3   OH269364   2.317   2.706  16.812 -0.2429 -0.1212 -0.0890
15958TIP3    H169365   2.408   2.677  16.809  0.0213  0.7215 -0.7358
15958TIP3    H269366   2.305   2.755  16.730 -0.3959  2.2930  1.2846
15959TIP3   OH269367   4.094   5.897  13.663  0.3085 -0.6544  0.7239
15959TIP3    H169368   4.167   5.953  13.688  0.5056 -0.0982 -1.0225
15959TIP3    H269369   4.135   5.816  13.633  0.1398 -0.7502  0.7478
15960TIP3   OH269370   1.959   2.718  15.102 -0.0031 -0.4668 -0.7964
15960TIP3    H169371   1.901   2.672  15.041 -2.6243 -0.8400  1.7339
15960TIP3    H269372   1.934   2.811  15.093 -0.1071 -0.4742 -0.5891
15961TIP3   OH269373   6.594   4.803  14.761  0.1398 -0.5613  0.0882
15961TIP3    H169374   6.581   4.895  14.739 -1.4680 -0.7382  0.1808
15961TIP3    H269375   6.588   4.757  14.677  0.8976 -0.5970  0.0482
15962TIP3   OH269376   0.011   4.394  14.383 -0.8064  0.8629 -0.1438
15962TIP3    H169377   0.021   4.334  14.309 -1.2574  0.2102  0.3163
15962TIP3    H269378  -0.082   4.389  14.406 -0.6393  0.9175  0.5795
15963TIP3   OH269379   3.126   2.058  11.735  0.4603 -0.1766 -0.4499
15963TIP3    H169380   3.099   2.003  11.661 -0.8862  0.2139 -0.2760
15963TIP3    H269381   3.065   2.034  11.805  1.6827 -0.4989  0.5322
15964TIP3   OH269382   4.621   4.413  13.776 -0.9153  0.2309 -0.6003
15964TIP3    H169383   4.617   4.508  13.776 -3.1047  0.2037 -0.2858
15964TIP3    H269384   4.593   4.388  13.688  2.6637 -0.1666 -1.7753
15965TIP3   OH269385   0.464   1.580   5.458  0.5874 -0.1785 -0.2446
15965TIP3    H169386   0.383   1.625   5.480  1.3735  0.8404  0.6786
15965TIP3    H269387   0.477   1.597   5.365 -1.6924 -2.7585 -1.1549
15966TIP3   OH269388   4.279   2.093  13.640 -0.1173 -0.5524 -0.1870
15966TIP3    H169389   4.317   2.167  13.687  0.8381  0.3491 -2.2690
15966TIP3    H269390   4.316   2.099  13.552 -0.9670 -2.8188 -0.7533
15967TIP3   OH269391   6.607   4.046  16.332 -0.5644 -0.8609  0.4131
15967TIP3    H169392   6.566   3.977  16.383  1.3195 -1.9956  0.4839
15967TIP3    H269393   6.699   4.019  16.324  0.1104  1.3424 -0.0485
15968TIP3   OH269394   2.841   5.267   2.231 -0.2322 -0.4831  0.0857
15968TIP3    H169395   2.903   5.293   2.163 -1.4123  1.0027 -0.4721
15968TIP3    H269396   2.812   5.180   2.206  0.2090 -0.4181 -0.6689
15969TIP3   OH269397   3.717   1.663   2.237  0.2846  0.0646  0.5085
15969TIP3    H169398   3.679   1.614   2.164  0.2506 -0.1280  0.6530
15969TIP3    H269399   3.641   1.696   2.286  0.2655 -1.2001  1.3903
15970TIP3   OH269400   1.218   6.428  10.981 -0.5823  0.3730  0.0456
15970TIP3    H169401   1.238   6.360  11.046  0.6633  0.0436 -0.6570
15970TIP3    H269402   1.126   6.448  10.996 -0.4780 -0.1241  1.5163
15971TIP3   OH269403   1.355   4.808   3.938 -0.0832  0.5348 -1.3071
15971TIP3    H169404   1.436   4.763   3.915  0.1196  0.3196 -0.2274
15971TIP3    H269405   1.370   4.840   4.027 -1.0123  0.9004 -1.2692
15972TIP3   OH269406   2.156   4.059   0.107 -0.0101 -0.0210 -0.1552
15972TIP3    H169407   2.130   4.094   0.022  0.2330 -0.3126 -0.3546
15972TIP3    H269408   2.133   3.966   0.104  2.4041 -0.6712 -0.9497
15973TIP3   OH269409   2.256   4.451  16.074 -0.1400 -0.1465 -0.3781
15973TIP3    H169410   2.344   4.422  16.098 -0.1282  0.9887  1.0342
15973TIP3    H269411   2.270   4.534  16.028 -0.5224  0.6810  0.9569
15974TIP3   OH269412   6.060   2.520   1.466  0.3741  0.9573  0.2112
15974TIP3    H169413   6.128   2.477   1.519 -0.3035  1.2530  1.3673
15974TIP3    H269414   6.104   2.595   1.427  0.9870  0.5199  0.0365
15975TIP3   OH269415   4.795   0.105   2.587  0.0094  0.2244 -0.3088
15975TIP3    H169416   4.861   0.170   2.561 -0.3030  1.5222  1.9166
15975TIP3    H269417   4.846   0.028   2.613  0.5121  0.3836 -0.7980
15976TIP3   OH269418   6.175   1.965  12.598  0.0072  0.0187 -0.1103
15976TIP3    H169419   6.241   2.034  12.604  1.3006 -1.0536 -1.4012
15976TIP3    H269420   6.199   1.904  12.668  0.2018 -0.2172 -0.3820
15977TIP3   OH269421   5.396   2.936   2.540  0.6564 -0.0646  0.3009
15977TIP3    H169422   5.332   2.895   2.598 -0.5666  1.1784 -0.1062
15977TIP3    H269423   5.378   3.030   2.547  1.0088  0.1733 -1.4716
15978TIP3   OH269424   2.904   3.806  16.957  0.2896  0.0794  0.5145
15978TIP3    H169425   2.811   3.792  16.972 -0.2107  1.8881 -0.5241
15978TIP3    H269426   2.916   3.900  16.968  1.7778  0.0278 -0.3971
15979TIP3   OH269427   3.059   2.262  10.537 -0.3704 -0.0956  0.1268
15979TIP3    H169428   3.087   2.172  10.522 -1.7458 -1.2923  3.7755
15979TIP3    H269429   3.120   2.296  10.601 -0.4860  1.2591 -0.4462
15980TIP3   OH269430   6.366   1.058   5.817  0.6265 -0.5057  0.5468
15980TIP3    H169431   6.335   1.142   5.852  2.2355  0.4495 -0.2327
15980TIP3    H269432   6.311   0.993   5.860 -0.3914  0.9145  1.4851
15981TIP3   OH269433   2.518   6.022   1.404  0.2984 -0.1043 -0.1199
15981TIP3    H169434   2.609   6.051   1.395  0.7633 -0.9071  1.6677
15981TIP3    H269435   2.481   6.079   1.471 -1.1505  1.4883 -2.1335
15982TIP3   OH269436   1.152   0.112   5.431 -0.2731 -0.7832 -0.2216
15982TIP3    H169437   1.158   0.207   5.439  0.2593 -0.7389 -1.0471
15982TIP3    H269438   1.234   0.079   5.468  0.5849 -0.7705 -2.0024
15983TIP3   OH269439   0.619   4.877   1.512 -0.6200 -0.4059 -0.2993
15983TIP3    H169440   0.540   4.907   1.556  0.7462  0.8580  1.4299
15983TIP3    H269441   0.664   4.824   1.577  0.6732  0.1461 -0.7209
15984TIP3   OH269442   6.261   5.081   2.709  0.1036 -0.4500  0.1232
15984TIP3    H169443   6.300   5.063   2.624  0.0154 -1.2502  0.2469
15984TIP3    H269444   6.329   5.058   2.772 -0.1104 -0.6225  0.2941
15985TIP3   OH269445   0.585   5.762  17.002  0.2748 -0.7637 -0.0057
15985TIP3    H169446   0.571   5.855  17.017 -1.4952 -1.0689  0.3989
15985TIP3    H269447   0.680   5.753  16.998  0.5181  0.8771  1.0514
15986TIP3   OH269448   2.327   0.919   3.376  0.1761  1.0759  0.6322
15986TIP3    H169449   2.371   0.840   3.345  0.2436  0.7377  1.5751
15986TIP3    H269450   2.390   0.989   3.359  0.6708  0.7352  1.0276
15987TIP3   OH269451   0.554   5.790  17.283  0.9556  0.5027 -0.8606
15987TIP3    H169452   0.565   5.814  17.375 -0.8541 -2.2788  0.2032
15987TIP3    H269453   0.545   5.874  17.237 -1.5232  1.9785  2.0129
15988TIP3   OH269454   0.757   0.889  13.572  0.2584  0.2340 -0.2951
15988TIP3    H169455   0.813   0.967  13.583 -0.8507  1.2342 -1.4336
15988TIP3    H269456   0.687   0.918  13.513  0.0312 -1.7526 -1.0685
15989TIP3   OH269457   0.752   2.950   3.827 -0.0526  0.1950  0.2118
15989TIP3    H169458   0.738   2.974   3.735 -0.5041  0.6414  0.3915
15989TIP3    H269459   0.681   2.889   3.847 -1.0257  1.4547  0.7533
15990TIP3   OH269460   5.159   0.782  13.656 -0.4266  0.1485  0.2790
15990TIP3    H169461   5.162   0.687  13.647  3.1054  0.3169 -2.5688
15990TIP3    H269462   5.185   0.799  13.746  0.3364 -1.5864  0.4202
15991TIP3   OH269463   4.302   2.843  11.926 -0.4033 -0.1366  0.5314
15991TIP3    H169464   4.287   2.753  11.898 -1.8622  0.7993 -2.0453
15991TIP3    H269465   4.378   2.871  11.875  0.3192 -0.0145  1.6508
15992TIP3   OH269466   5.506   6.096  16.756  0.2439  1.0042 -0.3291
15992TIP3    H169467   5.520   6.126  16.666 -2.1828  0.4403 -0.9859
15992TIP3    H269468   5.417   6.125  16.777  0.3105  0.0826  1.4710
15993TIP3   OH269469   1.241   4.331   0.794 -0.1115  0.5174 -0.1760
15993TIP3    H169470   1.307   4.361   0.857  1.9290  0.3144 -2.1189
15993TIP3    H269471   1.174   4.400   0.795  1.5031  2.1538 -0.1386
15994TIP3   OH269472   6.023   1.677   0.357  0.1483 -0.9039 -0.0156
15994TIP3    H169473   5.934   1.714   0.353  0.5925  0.1909  0.0127
15994TIP3    H269474   6.010   1.587   0.388 -0.9858 -0.8908 -0.4025
15995TIP3   OH269475   5.327   3.793  12.743 -0.1047 -0.1046 -0.2953
15995TIP3    H169476   5.271   3.870  12.734  0.4983  0.2413 -1.1642
15995TIP3    H269477   5.389   3.800  12.671  1.8154  0.1399  1.3215
15996TIP3   OH269478   4.315   3.149  14.445  0.3075  0.1167 -0.2725
15996TIP3    H169479   4.316   3.164  14.351 -0.1798  0.8357 -0.1649
15996TIP3    H269480   4.395   3.099  14.462  0.1820 -0.3830 -1.1208
15997TIP3   OH269481   3.206   2.783  13.878  0.1172  0.0826 -0.2264
15997TIP3    H169482   3.119   2.765  13.915  0.3975 -0.2231  0.3025
15997TIP3    H269483   3.192   2.857  13.819 -0.6557 -0.4674 -0.7642
15998TIP3   OH269484   3.871   5.763   1.605  0.2920 -0.1074 -0.2162
15998TIP3    H169485   3.801   5.701   1.628  1.4174 -0.8543  1.3236
15998TIP3    H269486   3.824   5.844   1.585 -1.1473 -1.1411 -1.2821
15999TIP3   OH269487   6.340   6.430  15.476  0.0885  0.8224 -0.3088
15999TIP3    H169488   6.434   6.437  15.456  0.2790 -1.9000 -0.7628
15999TIP3    H269489   6.337   6.407  15.569 -0.1583  1.1958 -0.2215
16000TIP3   OH269490   1.098   3.350   4.239  0.2414 -0.2509 -0.0373
16000TIP3    H169491   1.060   3.363   4.326  1.4354  0.2370  0.4283
16000TIP3    H269492   1.091   3.435   4.196 -1.7521 -0.8545 -1.0337
16001TIP3   OH269493   6.115   4.530   3.883  0.1117  0.0110  0.1266
16001TIP3    H169494   6.180   4.565   3.822 -0.2277 -1.3548 -1.0648
16001TIP3    H269495   6.053   4.482   3.828 -1.0811  0.0116  1.3937
16002TIP3   OH269496   2.537   5.638   3.569 -0.3403 -0.5816 -0.1899
16002TIP3    H169497   2.624   5.678   3.561 -0.5689 -0.3162 -1.5847
16002TIP3    H269498   2.487   5.698   3.624  0.1152 -0.3217 -0.0574
16003TIP3   OH269499   1.917   1.599  16.995  0.1530  0.2959 -0.1995
16003TIP3    H169500   1.956   1.609  17.082 -0.0155 -1.7065  0.1636
16003TIP3    H269501   1.990   1.611  16.935  0.5495  0.3634  0.2840
16004TIP3   OH269502   3.472   4.280  15.064 -0.0647  0.5655 -0.4926
16004TIP3    H169503   3.532   4.343  15.025  1.4174 -0.9059 -0.7204
16004TIP3    H269504   3.477   4.203  15.007  1.8642 -1.5020  2.2065
16005TIP3   OH269505   6.525   4.753  15.033 -0.3841 -0.5330  0.0294
16005TIP3    H169506   6.544   4.831  15.086  1.6476 -1.1389  0.2909
16005TIP3    H269507   6.529   4.784  14.943 -1.9916  0.1193  0.1445
16006TIP3   OH269508   4.884   2.665   0.598 -0.3886  0.5315 -0.4425
16006TIP3    H169509   4.973   2.639   0.573 -0.7622 -0.8454 -0.4263
16006TIP3    H269510   4.890   2.759   0.615  1.1812  0.3673  0.0406
16007TIP3   OH269511   6.014   2.914  12.495  0.6094  1.1036 -0.8306
16007TIP3    H169512   6.048   2.937  12.581  1.8803  2.4307 -1.6399
16007TIP3    H269513   5.947   2.980  12.477 -1.2634 -0.4681  0.0148
16008TIP3   OH269514   6.300   1.589  10.537  0.0563 -0.0087  0.1901
16008TIP3    H169515   6.323   1.498  10.556  0.4929 -0.0591 -0.5394
16008TIP3    H269516   6.230   1.583  10.472  1.5312  0.1579 -1.4912
16009TIP3   OH269517   3.725   5.234   4.932  0.3439  0.0924 -0.2884
16009TIP3    H169518   3.693   5.227   5.022 -0.9065 -1.2321 -0.7813
16009TIP3    H269519   3.816   5.206   4.936  0.0006 -1.0143  0.4312
16010TIP3   OH269520   1.521   4.035   4.083 -0.5212  0.5027 -0.2851
16010TIP3    H169521   1.442   3.988   4.110 -1.4948  1.6585 -1.0141
16010TIP3    H269522   1.509   4.048   3.989  0.0690  1.5412 -0.2298
16011TIP3   OH269523   0.736   2.314  15.877  0.3594 -0.4820  0.0556
16011TIP3    H169524   0.807   2.364  15.835 -0.4858  0.5963 -0.1186
16011TIP3    H269525   0.684   2.282  15.803  0.6971 -1.3447  0.1821
16012TIP3   OH269526   5.413   1.601   1.595 -0.3549 -0.2137  0.5389
16012TIP3    H169527   5.363   1.657   1.536  0.4509 -0.2346 -0.1799
16012TIP3    H269528   5.364   1.520   1.600  0.0820 -0.5804 -0.9055
16013TIP3   OH269529   1.281   0.071   2.001  0.1721 -0.4400 -0.1706
16013TIP3    H169530   1.254   0.118   2.079 -1.3378 -0.2189 -0.8000
16013TIP3    H269531   1.354   0.123   1.966 -0.6365  0.7541 -0.1564
16014TIP3   OH269532   6.119   5.912  11.598 -0.5746 -0.7648 -0.0921
16014TIP3    H169533   6.202   5.911  11.549 -0.9508 -0.4879 -0.7545
16014TIP3    H269534   6.058   5.863  11.543 -0.6438 -1.7175  0.8018
16015TIP3   OH269535   4.714   2.235   1.068  0.0061  0.4281 -0.2787
16015TIP3    H169536   4.628   2.273   1.088 -0.1168  0.6814 -1.2584
16015TIP3    H269537   4.727   2.253   0.975  2.4635  3.0933  0.4384
16016TIP3   OH269538   4.943   4.425   0.946  0.4307 -0.2760  0.6968
16016TIP3    H169539   4.961   4.430   0.852  2.2083  0.2423  1.0124
16016TIP3    H269540   4.883   4.497   0.963  0.6771  0.0907  0.0557
16017TIP3   OH269541   2.626   2.044  12.058  0.1865  0.4957 -0.0477
16017TIP3    H169542   2.586   1.966  12.020 -0.0690  0.5769  0.0545
16017TIP3    H269543   2.618   2.032  12.152 -0.0330  0.7417 -0.0358
16018TIP3   OH269544   6.792   1.568   0.597 -0.1475  0.4600  0.6053
16018TIP3    H169545   6.826   1.657   0.595  1.2125 -0.0364 -0.7900
16018TIP3    H269546   6.804   1.539   0.687  2.5757  0.5741  0.3644
16019TIP3   OH269547   2.000   5.006   4.685  0.5227  0.2450 -0.5591
16019TIP3    H169548   1.938   5.008   4.613 -1.0919 -0.0869  0.7621
16019TIP3    H269549   1.958   4.951   4.752  1.7151  0.9661  0.8471
16020TIP3   OH269550   3.534   2.946   6.157 -0.3337 -0.9341  0.2111
16020TIP3    H169551   3.529   2.908   6.069  2.1723  0.3398 -0.5646
16020TIP3    H269552   3.455   2.999   6.165 -1.0141 -1.7413 -0.9168
16021TIP3   OH269553   0.579   6.514  13.441  0.1422  0.0953 -0.0316
16021TIP3    H169554   0.590   6.466  13.359  0.9849  1.4771 -0.7644
16021TIP3    H269555   0.668   6.536  13.469 -0.0506 -1.3553  1.9038
16022TIP3   OH269556   6.770   3.282   1.626  0.3753  0.2386  0.4057
16022TIP3    H169557   6.769   3.359   1.683  1.3952  1.4236 -1.1073
16022TIP3    H269558   6.759   3.317   1.538  1.9379 -1.2374 -0.4361
16023TIP3   OH269559   5.834   0.688  13.716 -0.3551 -0.4620 -0.1301
16023TIP3    H169560   5.798   0.776  13.705 -0.6304 -0.6666 -0.9822
16023TIP3    H269561   5.911   0.687  13.659 -2.0439 -1.6947 -2.5666
16024TIP3   OH269562   5.337   3.262  14.859 -0.3354 -0.1917 -0.3860
16024TIP3    H169563   5.378   3.176  14.866 -1.4075 -0.8203 -1.5539
16024TIP3    H269564   5.251   3.251  14.900 -0.2550  0.5020 -0.0082
16025TIP3   OH269565   0.930   5.740   5.184  0.2713 -0.0189 -0.4450
16025TIP3    H169566   0.931   5.834   5.206  0.2532 -0.1068 -0.0589
16025TIP3    H269567   0.981   5.699   5.254 -1.5382 -0.5674  0.6112
16026TIP3   OH269568   1.850   0.250   0.111  0.1280  0.1916  0.0706
16026TIP3    H169569   1.904   0.227   0.035  0.1900  0.5323  0.0085
16026TIP3    H269570   1.892   0.205   0.184 -0.6865 -1.2220 -0.2847
16027TIP3   OH269571   6.062   4.132   5.979 -0.1990  0.4818 -0.2184
16027TIP3    H169572   6.120   4.109   6.051 -0.0929 -0.5136 -0.6098
16027TIP3    H269573   6.027   4.218   6.003 -0.9301 -0.2469  1.4893
16028TIP3   OH269574   5.969   0.154  14.882 -0.4262 -0.2136  0.4215
16028TIP3    H169575   5.995   0.201  14.960  0.9866 -1.9137  1.0424
16028TIP3    H269576   5.878   0.180  14.867 -0.2509  1.2741  1.7463
16029TIP3   OH269577   4.685   3.760  13.648 -0.3350  0.0778 -0.5016
16029TIP3    H169578   4.750   3.690  13.642 -0.3588  0.0164 -0.0826
16029TIP3    H269579   4.731   3.838  13.619  0.7244  0.5450  2.1586
16030TIP3   OH269580   6.432   5.862  11.118  0.6324 -0.3327  0.0054
16030TIP3    H169581   6.473   5.785  11.159 -0.2216  0.2510  2.1014
16030TIP3    H269582   6.506   5.914  11.087  1.2379 -1.7896 -1.1467
16031TIP3   OH269583   5.751   2.688  13.349 -0.2868  0.6699  0.2105
16031TIP3    H169584   5.718   2.723  13.432  0.8561  0.0671  0.9412
16031TIP3    H269585   5.727   2.595  13.351 -1.1145  0.8457 -0.6011
16032TIP3   OH269586   0.050   6.238  16.690  0.6280  0.7384 -0.1095
16032TIP3    H169587   0.088   6.314  16.735  1.6676  0.5418 -0.6130
16032TIP3    H269588   0.089   6.162  16.735  0.7520  0.5288 -0.5659
16033TIP3   OH269589   4.804   5.332  11.413  0.0045  0.5647  0.0079
16033TIP3    H169590   4.805   5.246  11.370  1.6095  1.0752 -1.0824
16033TIP3    H269591   4.871   5.325  11.481 -1.2736  0.3442  1.2985
16034TIP3   OH269592   2.279   6.496   0.443  0.3359  0.3874  0.0627
16034TIP3    H169593   2.300   6.421   0.387 -0.4433 -0.4922  0.8989
16034TIP3    H269594   2.364   6.530   0.472  0.6908 -0.7607  0.4103
16035TIP3   OH269595   5.359   1.204  11.741  0.0059  0.4086 -0.4076
16035TIP3    H169596   5.286   1.234  11.687  0.2188  0.7552 -0.5105
16035TIP3    H269597   5.422   1.168  11.678  0.5131  1.3500 -0.4619
16036TIP3   OH269598   5.649   1.872  11.609  0.0468  0.3836 -0.1539
16036TIP3    H169599   5.578   1.934  11.627  1.8891  2.6737 -0.2061
16036TIP3    H269600   5.636   1.801  11.672 -2.3469  0.6536 -0.2826
16037TIP3   OH269601   0.968   2.880  11.485 -0.4740 -0.6463  0.1028
16037TIP3    H169602   0.968   2.906  11.577 -0.6058  0.8295 -0.2768
16037TIP3    H269603   1.055   2.904  11.453 -0.9516  0.3604 -0.5136
16038TIP3   OH269604   2.865   6.419   4.278 -0.1891 -0.7402  0.0847
16038TIP3    H169605   2.822   6.343   4.316 -1.4569  0.2619  0.7597
16038TIP3    H269606   2.931   6.444   4.343  1.9787 -2.6577 -1.2372
16039TIP3   OH269607   1.708   1.103   2.857 -0.5121 -0.6385 -0.3962
16039TIP3    H169608   1.786   1.095   2.802 -0.4360 -0.7887 -0.2654
16039TIP3    H269609   1.659   1.175   2.818 -0.3747 -0.6335 -0.5605
16040TIP3   OH269610   5.301   1.559  15.347  0.4483  0.2162 -0.0278
16040TIP3    H169611   5.300   1.655  15.347 -0.2715  0.2109 -0.5223
16040TIP3    H269612   5.219   1.534  15.390  0.6040 -0.1819  0.0394
16041TIP3   OH269613   4.395   3.663   3.700  0.2849 -0.5293  0.0047
16041TIP3    H169614   4.463   3.595   3.693  0.0832 -0.6304 -1.2217
16041TIP3    H269615   4.314   3.617   3.682 -0.0395 -0.2527  0.7217
16042TIP3   OH269616   0.075   1.080   3.127 -0.2298  0.1204  0.2541
16042TIP3    H169617   0.124   1.007   3.090  0.0276  0.7645 -0.7056
16042TIP3    H269618  -0.010   1.042   3.149 -1.1673  0.0848 -2.8779
16043TIP3   OH269619   1.644   3.553  12.551 -0.5990 -0.4987 -0.1284
16043TIP3    H169620   1.550   3.543  12.535 -0.7323 -2.5542  1.5930
16043TIP3    H269621   1.685   3.505  12.478 -0.7197  2.3200 -2.2046
16044TIP3   OH269622   4.423   1.656   0.017  0.1374  0.2409  0.1582
16044TIP3    H169623   4.405   1.747   0.041  0.1202  0.2329  0.1766
16044TIP3    H269624   4.471   1.621   0.092 -0.3006  0.0920  0.3702
16045TIP3   OH269625   0.201   6.555  14.577  0.0907 -0.2292  0.0484
16045TIP3    H169626   0.128   6.598  14.534  0.4452  0.0242 -0.3078
16045TIP3    H269627   0.185   6.462  14.566 -0.2651 -0.1763  0.1226
16046TIP3   OH269628   5.767   4.363  13.845 -0.4977 -0.1183  0.1424
16046TIP3    H169629   5.742   4.373  13.753 -0.2145  0.1374  0.0952
16046TIP3    H269630   5.762   4.268  13.861  2.1636 -0.4988 -0.8932
16047TIP3   OH269631   5.676   0.428  15.660  0.0713  0.0813  0.1811
16047TIP3    H169632   5.660   0.499  15.723 -0.1681 -0.6242  0.9265
16047TIP3    H269633   5.596   0.376  15.661  1.2524 -1.8897  1.8832
16048TIP3   OH269634   3.382   3.640  13.161 -0.4007  0.8082  0.5871
16048TIP3    H169635   3.448   3.651  13.093 -0.1298 -0.4859  0.6109
16048TIP3    H269636   3.357   3.729  13.185 -1.2137  1.3207 -1.8595
16049TIP3   OH269637   4.112   0.807  12.421 -0.1202  0.5061 -0.7190
16049TIP3    H169638   4.198   0.797  12.380  1.0200  0.8684  1.4460
16049TIP3    H269639   4.051   0.815  12.347  1.0865 -3.6998 -2.4366
16050TIP3   OH269640   6.803   6.660  14.948  0.5797  0.4352 -0.2949
16050TIP3    H169641   6.817   6.654  15.042  1.6231 -0.0231 -0.4657
16050TIP3    H269642   6.828   6.749  14.925 -1.1701  1.0619  0.0769
16051TIP3   OH269643   2.827   0.742   4.907  0.1247  0.2877  0.7948
16051TIP3    H169644   2.909   0.770   4.948  0.6707  0.3636 -0.2948
16051TIP3    H269645   2.794   0.673   4.964  2.3322 -1.6347 -0.0687
16052TIP3   OH269646   4.558   5.517  11.592 -0.0985 -0.5517 -0.8149
16052TIP3    H169647   4.602   5.432  11.591 -0.9437 -1.0227  0.0909
16052TIP3    H269648   4.479   5.503  11.540 -0.8358 -0.6771  0.3116
16053TIP3   OH269649   6.141   5.800   0.048  0.0827  0.3448  0.1088
16053TIP3    H169650   6.138   5.706   0.063  0.7514  0.2104 -0.5502
16053TIP3    H269651   6.085   5.837   0.116 -1.4007 -0.6256 -0.5226
16054TIP3   OH269652   5.732   3.018   4.370 -0.3013  0.2610 -0.3861
16054TIP3    H169653   5.761   3.078   4.439  0.5232  1.8430 -2.0443
16054TIP3    H269654   5.730   2.932   4.413 -0.3544  1.2519  1.7455
16055TIP3   OH269655   6.695   6.080  14.864 -0.9441  0.3567  0.6368
16055TIP3    H169656   6.784   6.063  14.896 -1.1755 -1.2561  0.4915
16055TIP3    H269657   6.649   6.114  14.941 -0.9415 -1.5253  1.5279
16056TIP3   OH269658   2.584   1.745  11.488  0.2829 -0.3668 -0.5248
16056TIP3    H169659   2.590   1.726  11.394 -0.0606 -1.1093 -0.4047
16056TIP3    H269660   2.648   1.687  11.528  0.7201  0.2444 -0.3303
16057TIP3   OH269661   0.247   1.024   3.385 -0.4465  0.0711  0.2754
16057TIP3    H169662   0.259   0.941   3.431  0.1802  0.3339  0.5991
16057TIP3    H269663   0.158   1.019   3.351 -0.7640 -0.3357  1.1225
16058TIP3   OH269664   0.833   4.693   3.097 -0.1694 -0.1360  0.0465
16058TIP3    H169665   0.899   4.667   3.161 -0.2555  1.3259  0.7615
16058TIP3    H269666   0.815   4.784   3.116 -2.8725 -0.6445  0.2771
16059TIP3   OH269667   2.410   5.769   3.358 -0.3365  0.7046 -0.2158
16059TIP3    H169668   2.456   5.702   3.410 -1.4573 -0.9289 -1.2158
16059TIP3    H269669   2.457   5.850   3.375 -0.0186  0.0416  2.5262
16060TIP3   OH269670   0.454   4.829  12.092 -0.5142  0.2092  0.4959
16060TIP3    H169671   0.441   4.922  12.075  0.3023  0.6827  2.2582
16060TIP3    H269672   0.526   4.803  12.034  0.1120  0.9873  0.9216
16061TIP3   OH269673   3.305   0.526   2.089 -0.1619 -0.0963  0.4938
16061TIP3    H169674   3.348   0.442   2.101  1.5012  0.4650 -1.0212
16061TIP3    H269675   3.212   0.504   2.080  0.2094 -1.7496  0.3511
16062TIP3   OH269676   0.541   3.706  16.811  0.0100  0.3061  0.6216
16062TIP3    H169677   0.577   3.752  16.886  0.8549 -0.7728  0.9025
16062TIP3    H269678   0.448   3.693  16.833 -0.0759  1.2483  0.8351
16063TIP3   OH269679   4.192   2.734   3.281 -0.2159  0.0363  0.0238
16063TIP3    H169680   4.126   2.705   3.217 -0.1876 -0.2218  0.1089
16063TIP3    H269681   4.173   2.682   3.359  0.5081 -0.5309 -0.1671
16064TIP3   OH269682   2.810   4.427   1.075 -0.3684  0.0611  0.2330
16064TIP3    H169683   2.804   4.331   1.080 -0.5851  0.1113  0.9618
16064TIP3    H269684   2.883   4.443   1.015 -1.0910 -0.5529 -0.8373
16065TIP3   OH269685   1.081   0.861  10.735  0.3637  0.2104  0.1138
16065TIP3    H169686   1.081   0.844  10.641 -0.9618  1.1782 -0.0785
16065TIP3    H269687   1.012   0.805  10.770  0.4010  0.3457  0.4104
16066TIP3   OH269688   4.572   3.204   0.242  0.0755  0.1507  0.3805
16066TIP3    H169689   4.562   3.206   0.337 -1.9314 -1.5326  0.2767
16066TIP3    H269690   4.608   3.117   0.224  0.4361  0.4544 -0.4271
16067TIP3   OH269691   6.533   4.441  16.829 -0.1193  0.8713  0.0727
16067TIP3    H169692   6.605   4.395  16.872  1.4172  2.5434 -0.5672
16067TIP3    H269693   6.511   4.512  16.889 -2.1633 -0.3289  0.8498
16068TIP3   OH269694   0.432   3.418   4.815  0.1217 -0.1299 -0.1663
16068TIP3    H169695   0.400   3.424   4.905  2.7207  0.8519  0.7788
16068TIP3    H269696   0.359   3.450   4.762 -1.8415 -1.6851  1.4459
16069TIP3   OH269697   4.460   2.633  13.995 -1.0700 -0.6531 -0.0590
16069TIP3    H169698   4.486   2.627  13.903  0.2158  0.3096  0.2110
16069TIP3    H269699   4.456   2.727  14.013  1.0709 -0.7519  1.4499
16070TIP3   OH269700   0.459   6.429   5.834  0.0500  0.4988  0.2762
16070TIP3    H169701   0.537   6.401   5.881 -0.7290 -1.0783  0.7154
16070TIP3    H269702   0.490   6.455   5.748  0.9648 -1.0287  0.1071
16071TIP3   OH269703   6.779   5.968  12.122  0.8638  0.5299  0.6573
16071TIP3    H169704   6.725   5.932  12.052  0.9977 -1.7282  1.6343
16071TIP3    H269705   6.726   6.039  12.159  0.0058  0.5218 -0.4885
16072TIP3   OH269706   0.732   1.549  10.795 -0.0938  0.2707  0.2508
16072TIP3    H169707   0.684   1.605  10.734  0.5373  1.1258  0.5104
16072TIP3    H269708   0.668   1.525  10.862 -0.3044  0.9437  0.2931
16073TIP3   OH269709   2.924   4.158  13.681 -0.4518  0.0203  0.6166
16073TIP3    H169710   2.933   4.241  13.634  2.5750 -0.5236  0.0433
16073TIP3    H269711   2.990   4.162  13.750  0.6427 -2.3211 -0.1735
16074TIP3   OH269712   5.445   2.037   2.525  0.3670 -0.3377 -0.8807
16074TIP3    H169713   5.380   1.989   2.473  0.0277 -0.5508 -0.2666
16074TIP3    H269714   5.529   2.010   2.489  0.1214 -0.0774 -1.6699
16075TIP3   OH269715   1.068   5.128   0.930 -0.2619  0.5281  0.9400
16075TIP3    H169716   1.019   5.077   0.995 -0.3992  0.8316  1.0720
16075TIP3    H269717   1.019   5.116   0.848 -0.7794  1.1556  1.1561
16076TIP3   OH269718   4.015   0.036  15.134 -0.2980  0.1876 -0.1542
16076TIP3    H169719   4.110   0.042  15.138 -0.3393  0.4316  0.7442
16076TIP3    H269720   3.989   0.108  15.077  0.1810 -1.3172 -2.3814
16077TIP3   OH269721   6.738   4.351   0.285  0.1082  0.3925 -0.4443
16077TIP3    H169722   6.659   4.393   0.318 -0.3733  0.7637 -2.0182
16077TIP3    H269723   6.802   4.421   0.277  0.8920 -0.0245  1.5420
16078TIP3   OH269724   2.735   4.539  16.974 -0.3334  0.3582 -0.6301
16078TIP3    H169725   2.739   4.443  16.976 -0.5454  0.3657  1.3241
16078TIP3    H269726   2.701   4.559  16.887  0.2178 -1.3107 -1.2748
16079TIP3   OH269727   6.616   5.965   4.717  0.1736 -0.0050  0.2609
16079TIP3    H169728   6.681   5.905   4.751 -0.0254 -2.0668 -2.6058
16079TIP3    H269729   6.666   6.040   4.685  1.0809 -1.1218 -1.0097
16080TIP3   OH269730   0.160   5.853   3.654  0.6632  0.9683 -0.8102
16080TIP3    H169731   0.065   5.842   3.657  0.7347  0.4764 -0.3040
16080TIP3    H269732   0.181   5.902   3.733  0.9176  0.3757 -0.5041
16081TIP3   OH269733   1.335   0.418   1.796  0.2509 -0.5151 -0.3508
16081TIP3    H169734   1.243   0.396   1.807  0.2922  0.2591  1.8946
16081TIP3    H269735   1.339   0.459   1.709 -1.0815 -2.5022 -1.4399
16082TIP3   OH269736   2.429   4.289   0.113 -0.1478 -0.0670  0.2213
16082TIP3    H169737   2.412   4.227   0.042  1.3828 -0.3072  0.0301
16082TIP3    H269738   2.501   4.249   0.162  0.8839  1.5434  0.0995
16083TIP3   OH269739   0.944   3.787   0.046  0.2331  0.2846  0.7574
16083TIP3    H169740   0.851   3.801   0.030 -0.1610 -2.2581  0.2467
16083TIP3    H269741   0.962   3.702   0.005  2.3689 -0.1483  2.4257
16084TIP3   OH269742   1.611   0.963   0.343  0.2807  0.0377 -0.3131
16084TIP3    H169743   1.614   1.033   0.278  2.5158  1.0796  0.8198
16084TIP3    H269744   1.664   0.893   0.304  3.6056  1.5184  1.1607
16085TIP3   OH269745   5.918   5.506  15.819 -0.8743  0.7854  0.3786
16085TIP3    H169746   5.880   5.466  15.741  1.0687  0.8492 -0.6620
16085TIP3    H269747   5.928   5.434  15.881  0.3870  0.0755 -0.5949
16086TIP3   OH269748   1.545   3.070   0.991  0.5176  0.1089  0.0903
16086TIP3    H169749   1.466   3.106   1.031 -0.2990 -0.5808 -0.8582
16086TIP3    H269750   1.552   2.982   1.027  0.4108 -0.1073 -0.4022
16087TIP3   OH269751   2.784   3.997  14.053 -0.1261 -0.1114  0.5967
16087TIP3    H169752   2.805   3.940  13.980 -0.2413 -0.5237  0.8844
16087TIP3    H269753   2.820   4.083  14.028 -0.3320 -0.2040 -0.0187
16088TIP3   OH269754   4.007   5.594  14.924  0.1523  0.0853 -0.0231
16088TIP3    H169755   3.937   5.602  14.860 -0.6779  0.2192  0.8827
16088TIP3    H269756   4.023   5.684  14.953 -1.5789 -0.2174  2.1359
16089TIP3   OH269757   1.406   3.929  16.168  0.0894  0.3018  0.1472
16089TIP3    H169758   1.365   3.953  16.085 -0.5953 -0.4940  0.2458
16089TIP3    H269759   1.407   4.011  16.218 -2.0692  0.2089  0.4154
16090TIP3   OH269760   1.188   1.243  12.226  0.3088  0.5000 -0.0066
16090TIP3    H169761   1.208   1.279  12.140 -0.3881  0.7784 -0.0660
16090TIP3    H269762   1.141   1.314  12.271  2.5084  1.1480  1.3963
16091TIP3   OH269763   0.159   2.575  10.832  0.2698  0.4539 -0.6274
16091TIP3    H169764   0.079   2.524  10.817  0.9245 -2.2217  3.4518
16091TIP3    H269765   0.229   2.521  10.794  0.5217  0.9049 -0.8115
16092TIP3   OH269766   1.936   5.884  14.247  0.2937 -0.0873  0.0563
16092TIP3    H169767   1.869   5.951  14.236  0.4836 -0.1889 -2.1699
16092TIP3    H269768   1.902   5.808  14.199  1.8700 -0.2283 -0.8958
16093TIP3   OH269769   1.950   4.144   0.970 -0.2116 -0.1629  0.2822
16093TIP3    H169770   1.969   4.230   1.007  0.8470 -0.1965 -0.1403
16093TIP3    H269771   1.865   4.154   0.928  0.6637  1.2153 -1.3143
16094TIP3   OH269772   1.323   3.619   4.348 -0.1587 -0.3266 -0.0485
16094TIP3    H169773   1.362   3.538   4.381  2.1451 -0.1460 -2.1010
16094TIP3    H269774   1.376   3.689   4.385  1.4167 -0.0594 -2.5957
16095TIP3   OH269775   1.058   0.771   4.865  0.2230  0.2292 -0.0222
16095TIP3    H169776   0.994   0.700   4.868 -0.4277  0.8153  0.8948
16095TIP3    H269777   1.005   0.850   4.879  1.0026  0.8381 -0.4376
16096TIP3   OH269778   0.400   4.721  10.884  0.1499 -0.0838 -0.1664
16096TIP3    H169779   0.388   4.816  10.892 -1.3791 -0.3737  1.5209
16096TIP3    H269780   0.494   4.710  10.876  1.0568  1.3597  4.9678
16097TIP3   OH269781   3.720   5.969  10.790  0.1741 -0.0430 -0.7369
16097TIP3    H169782   3.639   5.935  10.827  0.7346 -1.7329 -0.9627
16097TIP3    H269783   3.777   5.892  10.782  1.8446  1.1126 -0.4806
16098TIP3   OH269784   6.057   6.199   2.889  0.4068  0.2120  0.7607
16098TIP3    H169785   6.018   6.215   2.975  0.3072 -0.3468  0.8274
16098TIP3    H269786   6.133   6.144   2.907 -0.5041 -1.2437  0.3697
16099TIP3   OH269787   2.711   4.307   1.629  0.5640 -0.4710  0.0336
16099TIP3    H169788   2.770   4.257   1.573  1.5297  0.1102  0.4991
16099TIP3    H269789   2.725   4.398   1.603  0.9830 -0.1968  1.1739
16100TIP3   OH269790   3.995   6.181  11.233 -0.4969  0.5500  0.0196
16100TIP3    H169791   4.010   6.096  11.191 -0.5062  0.0860  0.9202
16100TIP3    H269792   3.972   6.240  11.161  0.3320 -0.0057 -0.7189
16101TIP3   OH269793   5.120   3.727   4.512  0.2283  0.5715  0.2348
16101TIP3    H169794   5.102   3.637   4.541 -0.1920  0.4108 -0.4930
16101TIP3    H269795   5.047   3.778   4.545 -0.1599  0.4194 -0.3616
16102TIP3   OH269796   5.567   2.058   5.843  0.2040  0.3318  0.4356
16102TIP3    H169797   5.633   1.989   5.849 -0.3175 -0.3292 -0.9808
16102TIP3    H269798   5.614   2.139   5.862  1.4202 -0.1271 -0.5146
16103TIP3   OH269799   0.224   3.567  14.209  0.2224  0.1440 -0.1197
16103TIP3    H169800   0.298   3.567  14.149 -0.3382 -0.9109 -0.8405
16103TIP3    H269801   0.233   3.648  14.259  3.0265 -0.9264  1.2905
16104TIP3   OH269802   0.035   3.284   3.458  0.6289 -0.2779 -0.4222
16104TIP3    H169803   0.091   3.261   3.532  3.7887 -1.1467 -2.8880
16104TIP3    H269804  -0.001   3.200   3.428  0.2176 -0.0631 -0.5414
16105TIP3   OH269805   6.408   6.566   0.377  0.2735  0.2385 -0.5432
16105TIP3    H169806   6.340   6.503   0.400 -0.5766  1.6994  1.2493
16105TIP3    H269807   6.382   6.600   0.291  0.1814 -1.0464 -1.0417
16106TIP3   OH269808   3.990   0.965   6.126  0.1481 -0.2258  0.3870
16106TIP3    H169809   4.077   0.942   6.157 -0.0392  0.6111  1.6137
16106TIP3    H269810   3.944   0.882   6.118  0.5687 -0.5626  1.3000
16107TIP3   OH269811   3.700   4.866  16.876 -0.0300  0.3356  0.7179
16107TIP3    H169812   3.752   4.834  16.802 -0.8189 -0.4557  0.4877
16107TIP3    H269813   3.737   4.820  16.952  1.0805  1.4883  0.9200
16108TIP3   OH269814   3.287   3.874   3.680  0.0821  0.2372 -0.0754
16108TIP3    H169815   3.345   3.842   3.611  1.3283  0.3784  0.8647
16108TIP3    H269816   3.338   3.863   3.761 -0.5171  2.0160  0.5800
16109TIP3   OH269817   0.643   2.112   5.312 -0.9332  0.2259  0.0039
16109TIP3    H169818   0.722   2.105   5.366 -0.0071  0.0258 -1.3327
16109TIP3    H269819   0.642   2.203   5.282 -0.4370 -0.1152 -1.0899
16110TIP3   OH269820   2.848   1.255   6.497  0.5518 -0.3270  0.5861
16110TIP3    H169821   2.843   1.171   6.543  1.5555 -0.6078  0.2044
16110TIP3    H269822   2.923   1.246   6.438  0.6979  0.8512  0.5619
16111TIP3   OH269823   3.650   3.313  14.975  0.0765  0.3268 -0.1006
16111TIP3    H169824   3.585   3.276  14.916  0.6588 -0.6429 -0.1520
16111TIP3    H269825   3.652   3.406  14.953 -1.9813  0.5811  0.5758
16112TIP3   OH269826   6.744   5.191   2.234  0.2955  0.0325  0.0724
16112TIP3    H169827   6.710   5.103   2.249  0.1614  0.1323  0.3642
16112TIP3    H269828   6.679   5.232   2.176  1.3985 -0.7371 -1.7871
16113TIP3   OH269829   6.686   6.476   4.605 -0.4360  0.4465 -0.0962
16113TIP3    H169830   6.748   6.546   4.629  0.8675 -0.0865 -1.7019
16113TIP3    H269831   6.735   6.421   4.544 -1.6979 -1.4586  0.5403
16114TIP3   OH269832   1.392   5.904   2.012  0.0606 -0.7525 -0.0076
16114TIP3    H169833   1.404   5.810   2.020 -2.8765 -1.2592 -0.4849
16114TIP3    H269834   1.357   5.917   1.924 -1.1618  0.5698  0.6395
16115TIP3   OH269835   3.733   6.127  11.337 -0.4621 -0.1366 -0.1099
16115TIP3    H169836   3.714   6.178  11.416 -0.8919  1.6517 -1.3040
16115TIP3    H269837   3.816   6.163  11.305  0.8819 -2.3491  0.6495
16116TIP3   OH269838   2.166   2.011  13.303 -0.6954  0.1211 -0.3035
16116TIP3    H169839   2.222   1.936  13.283  1.2522  1.5385 -0.5309
16116TIP3    H269840   2.223   2.071  13.351 -2.9243  0.4016  2.1726
16117TIP3   OH269841   0.156   3.803  14.353  0.0968  0.2057 -0.6519
16117TIP3    H169842   0.094   3.876  14.355 -1.8074 -1.2711 -2.3125
16117TIP3    H269843   0.144   3.759  14.437  0.6839  1.2989  0.0298
16118TIP3   OH269844   0.147   4.715   2.085 -0.1583 -0.3094 -0.2789
16118TIP3    H169845   0.148   4.694   2.178 -1.2284 -0.3960 -0.2702
16118TIP3    H269846   0.057   4.740   2.067  0.1585  0.2293 -1.1842
16119TIP3   OH269847   1.908   2.573  12.968 -0.5386 -0.3217 -0.1433
16119TIP3    H169848   1.833   2.540  12.919 -0.2911 -0.8498 -0.1676
16119TIP3    H269849   1.870   2.626  13.038 -0.9553 -1.0641  0.1978
16120TIP3   OH269850   5.350   1.790  13.220  0.3536 -0.0373  0.2008
16120TIP3    H169851   5.302   1.871  13.234 -0.3652 -0.4543  0.2163
16120TIP3    H269852   5.396   1.804  13.137  0.9276  0.7012  0.6381
16121TIP3   OH269853   4.249   6.646   1.954  0.4401  0.2754  0.7081
16121TIP3    H169854   4.324   6.669   1.900  0.5094 -1.1903  0.1413
16121TIP3    H269855   4.194   6.593   1.898 -0.1813 -0.1060  1.6468
16122TIP3   OH269856   2.187   1.744   2.720 -0.1894 -0.7034  0.1048
16122TIP3    H169857   2.129   1.814   2.750  0.3566 -0.7025  1.2053
16122TIP3    H269858   2.172   1.740   2.626 -2.0354 -0.7607  0.3546
16123TIP3   OH269859   3.884   5.665   2.773 -0.1139 -0.2865  0.4750
16123TIP3    H169860   3.850   5.619   2.849  0.5512  0.1360  1.0389
16123TIP3    H269861   3.865   5.758   2.789 -0.5107 -0.2506 -0.1580
16124TIP3   OH269862   2.601   4.510   4.092 -0.0979  0.0820 -0.1524
16124TIP3    H169863   2.673   4.541   4.147  1.5336 -0.6883 -1.7721
16124TIP3    H269864   2.632   4.427   4.057 -1.6925 -0.1431 -1.0954
16125TIP3   OH269865   6.566   3.315   0.788  0.1413  0.2172 -0.0622
16125TIP3    H169866   6.548   3.407   0.770  2.3495  1.0004  1.2981
16125TIP3    H269867   6.489   3.284   0.836 -0.5946  1.3725 -0.4649
16126TIP3   OH269868   0.316   2.315  14.953  0.2859  0.1511  0.0578
16126TIP3    H169869   0.272   2.233  14.975  0.9492  0.0786  1.2124
16126TIP3    H269870   0.321   2.315  14.858 -0.7844 -0.5824 -0.0162
16127TIP3   OH269871   0.256   0.576   0.818  0.4716  0.1458  0.1136
16127TIP3    H169872   0.209   0.632   0.756  2.1403  0.4310 -0.9602
16127TIP3    H269873   0.336   0.550   0.772  2.1763  0.9855  2.3929
16128TIP3   OH269874   0.248   4.078   1.076  0.0298 -0.1651 -0.2228
16128TIP3    H169875   0.331   4.088   1.029  0.0906  0.5431  0.0267
16128TIP3    H269876   0.261   4.000   1.129  1.0460  0.6849  0.8330
16129TIP3   OH269877   3.151   4.546   2.166  0.5479  0.2576  0.0836
16129TIP3    H169878   3.141   4.518   2.257 -1.2761  1.4755  0.3101
16129TIP3    H269879   3.243   4.530   2.146  0.2379 -3.4270  0.9433
16130TIP3   OH269880   0.946   3.634  13.772  0.3573 -0.6514  0.5203
16130TIP3    H169881   0.862   3.658  13.734  1.9437  1.5086 -1.9255
16130TIP3    H269882   0.950   3.683  13.854 -0.9599 -1.2528  0.9731
16131TIP3   OH269883   2.413   2.852   6.257 -0.8287 -0.5039 -0.2818
16131TIP3    H169884   2.392   2.919   6.322  0.4731 -0.6068  0.2676
16131TIP3    H269885   2.346   2.784   6.269 -2.5055  0.8971 -1.2152
16132TIP3   OH269886   6.053   6.749  17.160 -0.4236  0.5397 -0.3252
16132TIP3    H169887   6.029   6.795  17.080  3.6322  1.5578 -1.1719
16132TIP3    H269888   6.105   6.674  17.129 -2.4776 -1.7210  1.2857
16133TIP3   OH269889   6.561   0.653  12.267 -0.2446  0.5843 -0.3936
16133TIP3    H169890   6.601   0.603  12.195  0.5671 -0.2414  0.5968
16133TIP3    H269891   6.537   0.586  12.331 -0.3965  1.3596  0.3720
16134TIP3   OH269892   5.578   2.277   1.091  0.7807 -0.1343  0.2924
16134TIP3    H169893   5.523   2.242   1.162 -1.0614  1.3331 -0.3162
16134TIP3    H269894   5.667   2.276   1.126  0.1893 -1.2995  1.8694
16135TIP3   OH269895   6.002   4.595  11.322  1.0082 -0.1185 -0.4803
16135TIP3    H169896   5.974   4.685  11.302 -0.1541 -0.3441  0.0641
16135TIP3    H269897   6.013   4.554  11.236  2.9687  0.9327 -0.7879
16136TIP3   OH269898   2.302   1.138  13.676  0.6326 -0.6675 -0.0817
16136TIP3    H169899   2.331   1.103  13.761 -1.5681  1.1382  1.5494
16136TIP3    H269900   2.382   1.143  13.624  2.0264 -2.2073  1.7182
16137TIP3   OH269901   3.862   4.222   6.239  0.1956  0.1054 -0.2468
16137TIP3    H169902   3.933   4.248   6.180  0.9597 -1.5146 -0.1264
16137TIP3    H269903   3.897   4.144   6.284 -1.7211 -0.8557 -0.3270
16138TIP3   OH269904   1.820   0.904  11.189  0.1715 -0.2983  0.2132
16138TIP3    H169905   1.827   0.992  11.224 -1.3471  0.8721 -2.1373
16138TIP3    H269906   1.870   0.907  11.107  0.8791 -1.9364  0.5347
16139TIP3   OH269907   6.340   2.983  14.619  0.2559  0.4789 -0.2858
16139TIP3    H169908   6.295   3.057  14.578 -0.8312 -0.4401 -0.8029
16139TIP3    H269909   6.278   2.951  14.685 -0.5852 -1.7596 -2.0376
16140TIP3   OH269910   3.845   2.569   0.704 -0.4599 -0.8081  0.4300
16140TIP3    H169911   3.872   2.652   0.664  1.4868 -1.2032  0.7882
16140TIP3    H269912   3.917   2.509   0.685 -1.4479 -2.1865  0.9044
16141TIP3   OH269913   6.171   6.563  16.994 -0.5545  0.0114 -0.4569
16141TIP3    H169914   6.185   6.507  16.918  0.3941  1.1077 -1.1327
16141TIP3    H269915   6.246   6.546  17.051 -2.3524 -2.4452  1.3623
16142TIP3   OH269916   5.006   5.970   4.756  0.2068  0.3040 -0.1944
16142TIP3    H169917   4.959   6.008   4.830  0.2944 -0.1944  0.1193
16142TIP3    H269918   5.011   6.041   4.692 -1.9650  0.0719 -0.6925
16143TIP3   OH269919   2.609   0.177  16.109 -0.1239  0.7624 -0.0771
16143TIP3    H169920   2.619   0.269  16.135 -1.5370  0.5849  1.2535
16143TIP3    H269921   2.534   0.177  16.049 -1.4941  0.2491  1.5688
16144TIP3   OH269922   5.572   4.651  12.642 -0.5051 -0.3909  0.0347
16144TIP3    H169923   5.529   4.566  12.629 -1.3855  0.0377  0.1052
16144TIP3    H269924   5.657   4.628  12.681 -0.8340 -1.2297  0.2944
16145TIP3   OH269925   3.385   3.968   6.427 -0.7863  0.3631  0.6346
16145TIP3    H169926   3.392   3.978   6.522 -2.9905 -0.3416  0.9448
16145TIP3    H269927   3.448   4.030   6.391  2.5898 -1.6851  2.5227
16146TIP3   OH269928   6.550   2.087  13.726 -0.3271  0.2000  0.5711
16146TIP3    H169929   6.497   2.065  13.802 -1.4620 -0.6081 -0.4120
16146TIP3    H269930   6.629   2.033  13.735 -0.4230  0.1553  1.1833
16147TIP3   OH269931   0.433   0.529   1.855  0.0560  0.8123 -0.5626
16147TIP3    H169932   0.511   0.520   1.909  0.2461  0.5594 -0.8788
16147TIP3    H269933   0.360   0.521   1.917  0.2801  1.3602 -0.2227
16148TIP3   OH269934   4.183   0.219  14.051 -0.1135  0.2137  0.2866
16148TIP3    H169935   4.156   0.261  13.969  0.8534  0.8984  0.2995
16148TIP3    H269936   4.219   0.290  14.104 -1.2389 -0.1174  1.5513
16149TIP3   OH269937   2.466   5.544   1.038  0.1747 -0.4692 -0.1064
16149TIP3    H169938   2.432   5.478   0.978  0.7996 -0.3946 -0.5547
16149TIP3    H269939   2.561   5.541   1.025  0.2486  0.1361  0.2665
16150TIP3   OH269940   3.993   3.072   0.732  0.0543 -0.1703 -0.2010
16150TIP3    H169941   3.985   3.031   0.646 -0.5468 -2.7524  0.9650
16150TIP3    H269942   3.908   3.114   0.746 -0.0696 -0.2771 -0.6055
16151TIP3   OH269943   3.513   5.979   2.010  0.2131  0.3289  0.2137
16151TIP3    H169944   3.494   5.994   2.103  0.2683  0.1783  0.2501
16151TIP3    H269945   3.497   6.064   1.968 -1.0079  0.0975  0.1693
16152TIP3   OH269946   1.575   2.094  13.827  0.0037  0.4631  0.2666
16152TIP3    H169947   1.670   2.089  13.820 -0.0179  1.1176 -0.6170
16152TIP3    H269948   1.551   2.176  13.783 -1.0525 -0.1977 -0.4489
16153TIP3   OH269949   4.154   3.281   3.228  0.0675  0.0708 -1.3054
16153TIP3    H169950   4.147   3.202   3.282  0.6274  0.2362 -0.9805
16153TIP3    H269951   4.245   3.280   3.198  0.9948  2.1041  1.0822
16154TIP3   OH269952   1.732   0.010   0.580 -0.0812 -0.2051  0.0016
16154TIP3    H169953   1.679  -0.009   0.657  1.9367 -1.0900  1.2649
16154TIP3    H269954   1.822   0.000   0.610  0.7964 -0.1587 -2.3783
16155TIP3   OH269955   3.358   1.813   1.294  0.4394  0.1373  0.0829
16155TIP3    H169956   3.345   1.745   1.228 -0.8379  1.1464 -0.7411
16155TIP3    H269957   3.451   1.832   1.290  0.5430 -0.4733 -0.7638
16156TIP3   OH269958   3.598   6.157  14.210 -0.0285 -0.1044 -0.2523
16156TIP3    H169959   3.550   6.163  14.128  0.4526  0.8305 -0.4842
16156TIP3    H269960   3.636   6.244  14.222  2.1214 -0.9574 -0.3876
16157TIP3   OH269961   4.056   1.370  14.295  0.3404 -0.6170 -0.3556
16157TIP3    H169962   4.062   1.347  14.202 -0.3051  1.7822 -1.0722
16157TIP3    H269963   3.992   1.308  14.330  0.2694 -1.3006 -1.6136
16158TIP3   OH269964   0.982   5.847  12.312  0.4615  0.5463  0.4901
16158TIP3    H169965   1.010   5.818  12.399  0.0899  1.4555  0.9235
16158TIP3    H269966   0.948   5.768  12.270 -0.6380  0.3460  1.6934
16159TIP3   OH269967   0.596   6.262  16.444 -0.3381  0.0749  0.1670
16159TIP3    H169968   0.641   6.198  16.390 -3.1340 -1.1550 -0.8620
16159TIP3    H269969   0.628   6.347  16.412  1.6378 -0.7112 -0.0699
16160TIP3   OH269970   0.447   3.014  11.925  0.3086  0.0385 -0.1035
16160TIP3    H169971   0.512   3.033  11.992  0.0709  0.7524 -0.0695
16160TIP3    H269972   0.397   2.941  11.961 -0.7429  1.3218  1.1684
16161TIP3   OH269973   1.627   1.255  10.833  0.0735  0.2943  0.2608
16161TIP3    H169974   1.549   1.310  10.839 -1.1865 -1.3200 -0.5632
16161TIP3    H269975   1.651   1.256  10.741 -0.7135 -1.4191 -0.0194
16162TIP3   OH269976   2.873   1.208   1.704  0.0484  0.2832 -0.0664
16162TIP3    H169977   2.803   1.175   1.647 -0.3188  0.7727  0.0925
16162TIP3    H269978   2.893   1.135   1.762 -0.3905  0.1610 -0.0627
16163TIP3   OH269979   5.021   4.869   2.472 -0.1835  0.4188 -0.2169
16163TIP3    H169980   5.110   4.841   2.450 -0.4688  0.7228 -1.9688
16163TIP3    H269981   4.968   4.790   2.458 -0.5330  0.9151 -1.9015
16164TIP3   OH269982   6.799   6.196  14.611 -1.0599  1.1516  0.8742
16164TIP3    H169983   6.793   6.183  14.706  0.7527  0.4098  0.9265
16164TIP3    H269984   6.793   6.108  14.574  0.8534  1.1392  0.5086
16165TIP3   OH269985   2.812   3.760   0.190  0.0690  0.3716 -0.1562
16165TIP3    H169986   2.758   3.751   0.268  0.3555  0.5494  0.0672
16165TIP3    H269987   2.895   3.717   0.213  0.6008  1.4794  0.0819
16166TIP3   OH269988   5.004   5.845   5.918 -0.0682 -0.2150 -0.1942
16166TIP3    H169989   5.022   5.865   5.827 -0.1278 -0.1609 -0.1945
16166TIP3    H269990   5.087   5.862   5.964 -0.2034  0.3496 -0.1433
16167TIP3   OH269991   1.314   1.514   4.046 -0.7995 -0.5029 -0.0650
16167TIP3    H169992   1.311   1.516   4.142 -3.0231  0.3876 -0.0914
16167TIP3    H269993   1.298   1.423   4.024  0.3490 -0.8406  0.3725
16168TIP3   OH269994   5.400   3.869   1.615 -0.3846 -0.9445  0.7046
16168TIP3    H169995   5.392   3.773   1.619  1.3852 -1.3437 -2.2869
16168TIP3    H269996   5.467   3.889   1.681  1.7818 -2.2830 -0.9684
16169TIP3   OH269997   4.381   1.088  14.504  0.5488  0.0384  0.2362
16169TIP3    H169998   4.330   1.081  14.585 -0.7225  1.6321 -0.3636
16169TIP3    H269999   4.439   1.162  14.519 -1.3311  1.8929 -1.0619
16170TIP3   OH270000   3.464   3.166   5.100 -0.1522 -0.4699 -0.5743
16170TIP3    H170001   3.469   3.085   5.049  0.2345  0.0314 -1.3681
16170TIP3    H270002   3.409   3.224   5.048 -0.5669 -0.2694  0.0719
16171TIP3   OH270003   3.765   2.890   5.356 -0.0230 -0.4313 -0.1030
16171TIP3    H170004   3.786   2.844   5.275  0.8444  1.1175 -0.8011
16171TIP3    H270005   3.671   2.905   5.351 -0.0815 -0.9042 -0.5233
16172TIP3   OH270006   3.821   6.607  10.793 -0.0908 -0.1615  0.5374
16172TIP3    H170007   3.751   6.547  10.767  1.3447 -1.1434 -1.3067
16172TIP3    H270008   3.782   6.694  10.784 -0.7720 -0.6238 -1.6140
16173TIP3   OH270009   5.245   5.629   4.453 -0.1959  0.1656  0.3206
16173TIP3    H170010   5.257   5.723   4.440  1.3894  0.4328  3.0106
16173TIP3    H270011   5.198   5.622   4.536 -1.2001 -1.4382 -0.3311
16174TIP3   OH270012   1.805   4.266   6.677  0.1622 -0.0395  0.1075
16174TIP3    H170013   1.716   4.251   6.645  0.3678 -2.8623  0.6170
16174TIP3    H270014   1.799   4.259   6.772  0.8129  0.4640  0.1937
16175TIP3   OH270015   0.092   5.547  16.945 -0.3811  0.2947  0.3521
16175TIP3    H170016   0.180   5.563  16.979 -0.1482  1.1439 -0.5990
16175TIP3    H270017   0.105   5.534  16.851 -1.1396 -0.8531  0.3850
16176TIP3   OH270018   2.930   1.475  14.381 -0.2628  0.8245 -0.2160
16176TIP3    H170019   2.860   1.500  14.442 -0.1614  0.5756  0.0040
16176TIP3    H270020   2.884   1.432  14.309 -0.4780  1.9518 -0.7810
16177TIP3   OH270021   2.518   2.134   2.250  0.6903 -0.5133 -0.6339
16177TIP3    H170022   2.608   2.110   2.274  0.7750  0.2344 -0.1958
16177TIP3    H270023   2.500   2.082   2.172  2.0635  0.5118 -1.6651
16178TIP3   OH270024   6.791   1.225   1.113 -0.4506 -0.3454 -0.9487
16178TIP3    H170025   6.869   1.279   1.104 -2.2474  2.2578 -2.0437
16178TIP3    H270026   6.787   1.203   1.206 -1.1323  4.0280  0.2546
16179TIP3   OH270027   1.965   1.339   1.182  0.2590  0.7188  0.3402
16179TIP3    H170028   1.979   1.388   1.263 -1.5902  0.8852  0.6215
16179TIP3    H270029   2.043   1.285   1.172  1.8085  2.8002  0.6820
16180TIP3   OH270030   6.569   2.000  16.756 -0.1551  0.2429  0.3560
16180TIP3    H170031   6.548   1.906  16.760 -1.0079  0.2234 -2.4638
16180TIP3    H270032   6.624   2.009  16.678  0.0421  2.0689  0.6677
16181TIP3   OH270033   2.377   3.955  16.689 -0.0618 -0.6681 -0.0003
16181TIP3    H170034   2.302   3.932  16.635  0.5863 -3.2768  0.0409
16181TIP3    H270035   2.437   4.001  16.630  0.1356 -2.4264 -1.2550
16182TIP3   OH270036   1.086   4.121   0.927  0.4092  0.1978 -0.0478
16182TIP3    H170037   1.058   4.089   0.842  2.4909 -2.9356  0.2477
16182TIP3    H270038   1.164   4.174   0.909  0.8867 -0.5185 -0.1479
16183TIP3   OH270039   3.684   6.054   4.766 -0.0950 -0.1664 -0.0116
16183TIP3    H170040   3.780   6.051   4.774  0.0129 -2.3736 -1.4631
16183TIP3    H270041   3.652   6.037   4.854  0.7751  2.4058  0.8947
16184TIP3   OH270042   6.184   6.685  12.584  0.0935 -0.0909 -0.1088
16184TIP3    H170043   6.216   6.595  12.588  1.3571  0.3212 -0.4328
16184TIP3    H270044   6.242   6.733  12.643 -0.5657  0.5103  0.0533
16185TIP3   OH270045   3.220   3.167   5.841  0.0401 -0.0067  0.1830
16185TIP3    H170046   3.226   3.142   5.933  1.6042 -1.4926 -0.2771
16185TIP3    H270047   3.292   3.120   5.798  0.3509  1.8794 -1.5424
16186TIP3   OH270048   4.389   4.526  17.169 -0.2580  0.5197 -0.0130
16186TIP3    H170049   4.483   4.540  17.177 -0.4207  1.2804  0.7155
16186TIP3    H270050   4.379   4.431  17.162  0.5701  0.4420 -0.1879
16187TIP3   OH270051   3.829   0.778  15.199  0.3500 -0.3051  0.0069
16187TIP3    H170052   3.905   0.741  15.152  2.1082 -0.5844  2.8331
16187TIP3    H270053   3.866   0.814  15.279 -2.1642  2.3642  0.1241
16188TIP3   OH270054   0.505   4.421  17.172  0.3560  0.0694 -0.7155
16188TIP3    H170055   0.431   4.413  17.111 -1.3165 -0.5094  1.2807
16188TIP3    H270056   0.481   4.495  17.228  0.9719 -0.5339  0.3643
16189TIP3   OH270057   1.123   3.664   5.521  0.1810  0.5980 -0.0362
16189TIP3    H170058   1.145   3.755   5.505  0.9253  0.2185 -1.2937
16189TIP3    H270059   1.045   3.648   5.467  1.6241 -0.1953 -2.0021
16190TIP3   OH270060   6.457   3.817   1.735 -0.1058 -0.5082  0.2613
16190TIP3    H170061   6.412   3.889   1.780  1.0924  0.2419  0.3059
16190TIP3    H270062   6.454   3.744   1.798  0.3933  0.1211  1.0398
16191TIP3   OH270063   6.702   5.310  16.103  0.2582 -0.0085  0.1845
16191TIP3    H170064   6.634   5.340  16.164  0.7047 -0.5002  0.9369
16191TIP3    H270065   6.655   5.294  16.022 -0.0279  2.6244 -0.2530
16192TIP3   OH270066   2.739   1.794   0.509  0.4061 -0.3079  0.2272
16192TIP3    H170067   2.708   1.868   0.563 -0.1750 -0.6924  0.4271
16192TIP3    H270068   2.738   1.828   0.420  0.6389  0.0901  0.3716
16193TIP3   OH270069   4.809   5.454   3.077 -0.4843 -0.5604  0.3143
16193TIP3    H170070   4.738   5.517   3.068  1.6084  2.0219  0.8058
16193TIP3    H270071   4.877   5.487   3.018  1.2625 -1.5046  1.7385
16194TIP3   OH270072   1.449   2.831   1.731 -0.3443 -0.1337  0.2298
16194TIP3    H170073   1.387   2.763   1.759  1.0282 -1.9354 -0.8538
16194TIP3    H270074   1.394   2.900   1.695 -1.7731 -1.2248  0.2083
16195TIP3   OH270075   5.547   0.765  11.080  0.0694  0.4271 -0.1998
16195TIP3    H170076   5.613   0.802  11.021  0.4515 -0.4074 -0.3040
16195TIP3    H270077   5.485   0.721  11.022  0.0369  0.2431 -0.0234
16196TIP3   OH270078   2.136   5.201   4.856  0.0839  0.3913 -0.2411
16196TIP3    H170079   2.174   5.140   4.919 -0.1469  0.9578  0.4596
16196TIP3    H270080   2.094   5.145   4.791  0.5828 -0.2069 -0.0624
16197TIP3   OH270081   4.515   0.486   4.954 -0.4340  0.2858  0.4102
16197TIP3    H170082   4.598   0.495   5.001 -0.4137  0.4786  0.3375
16197TIP3    H270083   4.472   0.571   4.966  0.0605  0.7333 -0.8649
16198TIP3   OH270084   6.529   2.168   1.961 -0.5791  0.3165  0.3185
16198TIP3    H170085   6.528   2.194   2.053  1.7609 -0.4417  0.6108
16198TIP3    H270086   6.596   2.222   1.921 -2.3071  1.4251 -1.2620
16199TIP3   OH270087   6.769   0.559   2.874  0.0442  0.5742 -0.3505
16199TIP3    H170088   6.766   0.608   2.957 -0.8732 -0.3743  0.1923
16199TIP3    H270089   6.856   0.520   2.873  0.5862  1.7207 -0.5254
16200TIP3   OH270090   3.534   2.783   5.921 -0.1262  0.6024  0.0050
16200TIP3    H170091   3.598   2.714   5.940  0.9784  1.5871 -0.0144
16200TIP3    H270092   3.478   2.746   5.853 -0.1919 -0.6410  0.7083
16201TIP3   OH270093   3.840   1.497   5.678  0.4166  0.3612 -0.6900
16201TIP3    H170094   3.855   1.514   5.585 -0.5086  0.4565 -0.8305
16201TIP3    H270095   3.861   1.580   5.721 -0.8113  0.8494 -1.0092
16202TIP3   OH270096   2.453   1.495  13.686  0.5690 -0.9726  0.2801
16202TIP3    H170097   2.411   1.501  13.601 -0.3346  1.6344  0.8082
16202TIP3    H270098   2.530   1.552  13.679  0.4982 -0.7431  1.1637
16203TIP3   OH270099   0.738   5.111  13.819  0.6808 -0.5798  0.2349
16203TIP3    H170100   0.647   5.117  13.790  0.8729 -4.4083 -1.7739
16203TIP3    H270101   0.747   5.022  13.852  3.7894 -0.4335  0.0742
16204TIP3   OH270102   4.613   1.558   0.226 -0.0284  0.6015  0.3314
16204TIP3    H170103   4.615   1.526   0.316 -2.8186 -0.0549  0.2461
16204TIP3    H270104   4.653   1.644   0.230 -0.0260  0.5475  2.1901
16205TIP3   OH270105   3.924   2.668  10.584  0.0534  0.4051 -0.1398
16205TIP3    H170106   3.885   2.707  10.663  0.0550  1.0467 -0.4462
16205TIP3    H270107   3.971   2.740  10.543  2.0054 -0.4539  0.4782
16206TIP3   OH270108   5.460   5.064  15.276 -0.2462 -0.0885  0.4091
16206TIP3    H170109   5.531   5.001  15.281 -0.4998 -0.4088  0.0626
16206TIP3    H270110   5.431   5.060  15.185 -0.5809  0.1799  0.5002
16207TIP3   OH270111   5.169   5.498  11.976  0.9675 -0.0753  0.2417
16207TIP3    H170112   5.130   5.493  12.063 -0.7609 -0.2310 -0.5191
16207TIP3    H270113   5.159   5.410  11.939  0.8385  0.2273 -0.4707
16208TIP3   OH270114   4.242   4.717  14.545 -0.2386  0.0120  0.3649
16208TIP3    H170115   4.165   4.661  14.538 -0.4147  0.0118  1.9949
16208TIP3    H270116   4.310   4.660  14.581  0.8140 -0.2062 -1.7811
16209TIP3   OH270117   6.776   4.020   5.247 -0.2803  0.3209 -0.3276
16209TIP3    H170118   6.813   4.064   5.171 -0.6584  2.3746  0.6017
16209TIP3    H270119   6.838   4.037   5.318  0.4646 -2.2265 -0.2829
16210TIP3   OH270120   2.388   6.624  11.787 -0.0056 -0.1749  0.0039
16210TIP3    H170121   2.427   6.639  11.874  1.0485 -2.2952 -0.0499
16210TIP3    H270122   2.463   6.605  11.730 -0.9105 -2.8987 -0.4306
16211TIP3   OH270123   2.023   0.482  15.056 -0.3585 -0.0823 -0.3357
16211TIP3    H170124   2.094   0.466  15.118  2.2557  1.0340 -2.8049
16211TIP3    H270125   2.028   0.409  14.994 -1.8476 -0.3322 -0.1990
16212TIP3   OH270126   1.837   3.200  16.661 -0.3900  0.2439 -0.1929
16212TIP3    H170127   1.899   3.194  16.589  0.1060  0.5066  0.2046
16212TIP3    H270128   1.764   3.145  16.634  0.0604 -0.1580 -0.6226
16213TIP3   OH270129   4.640   1.269   1.581 -0.2877 -0.6542 -0.2919
16213TIP3    H170130   4.594   1.352   1.589 -0.4413 -0.8719  1.3576
16213TIP3    H270131   4.675   1.251   1.668  1.9062 -1.1024 -1.1738
16214TIP3   OH270132   0.411   0.049   6.061  0.2902  0.0988 -0.1901
16214TIP3    H170133   0.411   0.140   6.092 -1.1496 -0.1225  0.5639
16214TIP3    H270134   0.339   0.008   6.109  1.5960 -1.7375  0.3268
16215TIP3   OH270135   0.010   1.278  11.408 -0.2190 -0.1353  0.1316
16215TIP3    H170136   0.031   1.259  11.499  2.1862 -1.1778 -0.5775
16215TIP3    H270137   0.010   1.193  11.364 -2.4729  0.2149 -0.6903
16216TIP3   OH270138   3.862   3.202   6.563 -0.5629 -0.1750 -0.4076
16216TIP3    H170139   3.816   3.262   6.505  0.8065  0.9365 -0.4107
16216TIP3    H270140   3.793   3.151   6.605 -1.6725  0.1865 -1.7173
16217TIP3   OH270141   3.030   2.497   2.940  0.1502 -0.5292 -0.4827
16217TIP3    H170142   3.080   2.485   3.021  0.5317  0.9419 -0.4639
16217TIP3    H270143   2.988   2.412   2.924  0.2942 -0.9262  1.0975
16218TIP3   OH270144   0.149   0.253   0.636  0.6777 -0.3919 -0.2389
16218TIP3    H170145   0.119   0.328   0.585 -0.3621 -0.4602  0.2489
16218TIP3    H270146   0.179   0.290   0.719 -1.1036 -0.6015  0.5471
16219TIP3   OH270147   2.519   0.725   6.085  0.6123  0.1316  0.3306
16219TIP3    H170148   2.574   0.799   6.111  1.6174 -0.8358  1.0190
16219TIP3    H270149   2.581   0.656   6.061 -0.2721 -1.1074  1.4567
16220TIP3   OH270150   4.443   0.840  13.952  0.2491  0.5122  0.3350
16220TIP3    H170151   4.399   0.854  13.868  0.8639  1.2868  0.1317
16220TIP3    H270152   4.429   0.921  14.001  0.1983  0.2008  0.8450
16221TIP3   OH270153   5.641   5.864   4.810  0.2390 -0.1147  0.1874
16221TIP3    H170154   5.698   5.881   4.736  0.9207  1.2980  0.9945
16221TIP3    H270155   5.555   5.846   4.771  0.0796  2.6252 -0.9375
16222TIP3   OH270156   6.200   1.874   3.410 -0.1735  0.3327 -0.0897
16222TIP3    H170157   6.178   1.876   3.317 -0.9382 -0.0672  0.0733
16222TIP3    H270158   6.237   1.786   3.424 -0.0863  0.3823 -0.0074
16223TIP3   OH270159   4.612   6.036  13.242  0.0642  0.0753  0.2113
16223TIP3    H170160   4.678   5.971  13.268  0.1087  0.3932  0.9257
16223TIP3    H270161   4.562   6.053  13.322 -1.6644 -1.0215 -0.5665
16224TIP3   OH270162   4.623   1.083   3.423 -0.5031  0.1045  0.0157
16224TIP3    H170163   4.716   1.068   3.404 -0.7171  0.9960 -2.0623
16224TIP3    H270164   4.623   1.138   3.501  0.8357  1.4490 -0.8630
16225TIP3   OH270165   2.388   0.041  12.077 -0.0739 -0.5083  0.5037
16225TIP3    H170166   2.427  -0.046  12.093  0.2897 -0.2444  1.0976
16225TIP3    H270167   2.457   0.090  12.032 -1.0190 -1.1762 -1.7685
16226TIP3   OH270168   4.044   2.542   2.245 -0.8930  0.0569 -0.6813
16226TIP3    H170169   4.103   2.554   2.320  0.5423 -0.3893 -1.6888
16226TIP3    H270170   4.076   2.604   2.179 -0.3638 -1.4404 -1.9051
16227TIP3   OH270171   1.168   4.205  15.686 -0.0536  0.2093 -0.0489
16227TIP3    H170172   1.217   4.136  15.640 -1.5207  0.0677 -1.4942
16227TIP3    H270173   1.128   4.160  15.760  0.8020  0.0149  0.3081
16228TIP3   OH270174   0.029   5.608   3.354 -0.2406  0.1783  0.3432
16228TIP3    H170175   0.078   5.533   3.320 -1.0524 -0.2578  0.0916
16228TIP3    H270176  -0.004   5.652   3.276  0.0502  0.6757  0.4993
16229TIP3   OH270177   1.055   0.735  16.452  0.1397 -0.5969 -0.1877
16229TIP3    H170178   0.966   0.745  16.487  0.4155 -0.7560  0.5885
16229TIP3    H270179   1.099   0.677  16.515  0.9376 -0.1263 -0.2936
16230TIP3   OH270180   2.918   0.687   3.042 -0.2210 -0.1231  0.1379
16230TIP3    H170181   2.981   0.615   3.038  0.7297  0.6921  0.0515
16230TIP3    H270182   2.855   0.667   2.973  0.0462 -0.8696  0.1040
16231TIP3   OH270183   2.602   6.011  16.962 -0.2387  0.1276 -0.0193
16231TIP3    H170184   2.548   6.044  17.033  1.7789  1.4234  1.0139
16231TIP3    H270185   2.628   5.923  16.989  1.7878  1.1594  1.7379
16232TIP3   OH270186   4.511   2.406  15.242  0.2851 -0.5754 -0.2475
16232TIP3    H170187   4.418   2.391  15.259  0.1543  0.8618  0.4951
16232TIP3    H270188   4.524   2.374  15.153 -1.3424  0.7266 -1.0285
16233TIP3   OH270189   3.672   2.536   1.146 -0.1519 -0.3066 -0.3899
16233TIP3    H170190   3.735   2.591   1.100 -0.0771 -0.2890 -0.2687
16233TIP3    H270191   3.611   2.599   1.186  0.7191 -0.2196  0.9036
16234TIP3   OH270192   2.128   2.106  14.851  0.2959  0.2995  0.9586
16234TIP3    H170193   2.038   2.122  14.824 -0.2185  0.1169  2.4609
16234TIP3    H270194   2.136   2.011  14.854  0.4279  0.3162  1.1529
16235TIP3   OH270195   1.782   2.811   2.020  0.0819 -0.5696  0.0792
16235TIP3    H170196   1.820   2.863   1.949  0.3765 -0.5704  0.2373
16235TIP3    H270197   1.823   2.845   2.099 -0.9720  0.1204  0.3601
16236TIP3   OH270198   1.774   0.595   0.433  0.2124 -0.1112 -0.0102
16236TIP3    H170199   1.771   0.631   0.345 -2.4584 -1.4511 -0.5609
16236TIP3    H270200   1.814   0.509   0.422  2.8998  0.9542  0.6839
16237TIP3   OH270201   0.325   1.499  12.737 -0.3206 -0.0198  0.2660
16237TIP3    H170202   0.288   1.448  12.665 -0.4339 -1.4717  1.3231
16237TIP3    H270203   0.337   1.436  12.808  0.7616  1.1659  1.1838
16238TIP3   OH270204   0.713   5.441   2.922 -0.1907  0.1586  0.0325
16238TIP3    H170205   0.728   5.535   2.934  0.7788  0.0309 -0.0913
16238TIP3    H270206   0.728   5.403   3.008 -0.6935  0.1199  0.1088
16239TIP3   OH270207   0.539   1.456  15.416  0.1109  0.0045 -0.0361
16239TIP3    H170208   0.514   1.372  15.455  0.2379 -0.6835 -1.3722
16239TIP3    H270209   0.456   1.501  15.399 -0.0540 -0.5838 -0.8480
16240TIP3   OH270210   0.914   5.255  14.783 -0.2681  0.4604  0.0486
16240TIP3    H170211   0.876   5.199  14.850  0.4926  0.8552  0.8402
16240TIP3    H270212   0.982   5.201  14.743 -0.3183  0.4236  0.0140
16241TIP3   OH270213   2.443   1.164   1.486  0.1091  0.2225 -0.1521
16241TIP3    H170214   2.485   1.199   1.564  1.6343  0.0626 -0.8825
16241TIP3    H270215   2.365   1.219   1.473  0.4550  0.9541  0.8232
16242TIP3   OH270216   1.763   6.134   0.755 -0.1209  0.0037 -0.0318
16242TIP3    H170217   1.752   6.209   0.697 -2.1884  0.1719  0.4824
16242TIP3    H270218   1.688   6.078   0.736 -0.0491 -0.6383  1.4251
16243TIP3   OH270219   2.149   1.393  13.090 -0.1329  0.6254  0.4895
16243TIP3    H170220   2.087   1.466  13.088  0.2565  1.0378  2.1299
16243TIP3    H270221   2.101   1.322  13.134 -0.4246 -0.0429 -0.8721
16244TIP3   OH270222   0.651   4.357  14.092  0.0362 -0.1142 -0.5350
16244TIP3    H170223   0.594   4.434  14.094  1.2609  0.8240 -0.3104
16244TIP3    H270224   0.604   4.293  14.039 -0.8784  0.8964 -0.9774
16245TIP3   OH270225   3.627   2.959  15.323  0.5027 -0.0199 -0.0872
16245TIP3    H170226   3.539   2.988  15.299  0.8200  0.0402 -1.2308
16245TIP3    H270227   3.666   2.931  15.240  1.5553 -0.0661  0.4145
16246TIP3   OH270228   4.458   1.437  12.136  0.6081  0.1703 -0.4822
16246TIP3    H170229   4.491   1.510  12.189  1.4368 -0.6613  0.1697
16246TIP3    H270230   4.365   1.431  12.159  0.1597  1.9183 -1.6244
16247TIP3   OH270231   1.129   4.467   2.550 -0.6984  0.2271 -0.2114
16247TIP3    H170232   1.056   4.419   2.590 -0.7798 -0.1177 -0.7540
16247TIP3    H270233   1.100   4.484   2.460 -0.7424  1.4625  0.0177
16248TIP3   OH270234   3.391   3.949  12.847 -0.0407 -0.1492  0.0430
16248TIP3    H170235   3.431   3.866  12.872  0.3914  0.1464  0.3606
16248TIP3    H270236   3.419   3.963  12.756  0.5450  0.0237  0.2423
16249TIP3   OH270237   6.395   2.809   2.411  0.0523  0.1057  0.3611
16249TIP3    H170238   6.363   2.896   2.436 -1.2099 -0.6233  1.4178
16249TIP3    H270239   6.459   2.787   2.478  1.4366  0.7753 -0.6974
16250TIP3   OH270240   5.483   4.925  13.632  0.5003  0.2634 -0.2762
16250TIP3    H170241   5.453   4.990  13.569 -0.8674 -0.5592 -0.5128
16250TIP3    H270242   5.524   4.857  13.579  0.9480  0.4183 -0.1268
16251TIP3   OH270243   0.017   5.076   5.424 -0.0235 -0.2213 -0.2063
16251TIP3    H170244   0.002   5.154   5.477  2.0102 -0.0725  0.2282
16251TIP3    H270245   0.023   5.004   5.488 -0.6641 -0.5477 -0.5044
16252TIP3   OH270246   4.294   4.874   4.900  0.0830 -0.4407  0.2409
16252TIP3    H170247   4.236   4.824   4.957  1.1458 -1.9691  0.0284
16252TIP3    H270248   4.375   4.884   4.950  1.1267 -2.0293 -1.0233
16253TIP3   OH270249   1.459   1.545  14.266 -0.5208  0.0079 -0.2395
16253TIP3    H170250   1.489   1.477  14.205 -0.7864 -1.0328  0.7670
16253TIP3    H270251   1.365   1.553  14.248 -0.9424 -1.5036  1.1520
16254TIP3   OH270252   5.305   4.498  11.610  0.1378  0.1588 -0.6406
16254TIP3    H170253   5.256   4.449  11.676  0.1697 -0.5282 -1.1085
16254TIP3    H270254   5.239   4.531  11.549  0.2949 -3.6938 -3.2739
16255TIP3   OH270255   4.469   5.380   6.123  0.0719 -0.0177  0.1400
16255TIP3    H170256   4.479   5.361   6.029 -0.0029 -1.4097  0.3953
16255TIP3    H270257   4.478   5.295   6.165 -0.8708  0.4603  1.3335
16256TIP3   OH270258   3.579   0.837  14.776 -0.0100 -0.0606 -0.1211
16256TIP3    H170259   3.663   0.858  14.817  0.2565  1.4187 -1.3371
16256TIP3    H270260   3.514   0.885  14.829  0.0739  0.0309 -0.1019
16257TIP3   OH270261   5.858   0.596  11.870  0.4980  0.0289 -0.4676
16257TIP3    H170262   5.770   0.633  11.865  0.6303  0.4261  0.1307
16257TIP3    H270263   5.855   0.522  11.809  0.1592  0.8503 -1.4809
16258TIP3   OH270264   6.073   1.814   3.829 -0.5818  0.2112  0.5472
16258TIP3    H170265   6.128   1.757   3.775 -1.5319  0.6786 -0.9598
16258TIP3    H270266   6.118   1.817   3.913  0.3055 -1.5039  0.1754
16259TIP3   OH270267   5.969   3.640  16.026  0.5679 -0.1353 -0.4467
16259TIP3    H170268   6.059   3.608  16.019  0.4843 -0.7526  0.9452
16259TIP3    H270269   5.932   3.593  16.101 -0.5727  0.9285 -0.2964
16260TIP3   OH270270   1.151   0.862   5.957 -0.4426 -0.3719 -0.6559
16260TIP3    H170271   1.071   0.904   5.989 -0.7652 -0.6080 -1.1408
16260TIP3    H270272   1.221   0.903   6.007 -0.9297 -0.6995  0.3336
16261TIP3   OH270273   3.374   3.172   5.376  0.1368 -0.2965 -0.2008
16261TIP3    H170274   3.397   3.245   5.434 -0.8250  0.0691 -0.2578
16261TIP3    H270275   3.389   3.206   5.287 -3.9841  1.3507 -0.5128
16262TIP3   OH270276   6.592   1.128   2.254 -0.1059  0.4683 -0.0966
16262TIP3    H170277   6.588   1.113   2.159 -0.7724  0.1201 -0.0266
16262TIP3    H270278   6.500   1.124   2.282  0.0629  0.8481  0.5240
16263TIP3   OH270279   2.621   6.429   2.062  0.3624  0.4899  0.2828
16263TIP3    H170280   2.542   6.483   2.064 -0.3878 -0.5274 -0.7105
16263TIP3    H270281   2.604   6.360   2.127  0.5337  0.4005  0.2329
16264TIP3   OH270282   0.279   0.682  11.766 -0.9219  0.1810 -0.0030
16264TIP3    H170283   0.339   0.675  11.692  0.7810  2.2920  1.0506
16264TIP3    H270284   0.245   0.593  11.778  2.3489 -1.2792 -0.4401
16265TIP3   OH270285   0.705   5.091  15.694 -0.0487  0.5197 -0.1889
16265TIP3    H170286   0.664   5.168  15.654  2.0567  1.6328 -0.3731
16265TIP3    H270287   0.678   5.095  15.786 -0.4846  1.1208 -0.3344
16266TIP3   OH270288   4.142   4.412   3.867  1.0026 -0.1894 -0.3071
16266TIP3    H170289   4.235   4.433   3.872  1.5247 -2.3096  0.2188
16266TIP3    H270290   4.136   4.348   3.795 -0.3239  1.0747 -1.3861
16267TIP3   OH270291   1.102   1.429   5.262 -0.0523 -0.0077  0.2369
16267TIP3    H170292   1.036   1.474   5.315 -0.2490  1.0090 -0.8407
16267TIP3    H270293   1.092   1.336   5.285  0.1390  0.4172  2.2554
16268TIP3   OH270294   2.741   1.182  13.098  0.2028  0.4540 -0.2000
16268TIP3    H170295   2.761   1.239  13.025 -0.9984  1.0940 -0.0494
16268TIP3    H270296   2.702   1.104  13.058  0.6458  0.2936 -0.3194
16269TIP3   OH270297   3.161   4.689   1.741  0.5174 -0.3893  0.0260
16269TIP3    H170298   3.171   4.640   1.659 -1.6010 -1.9926  0.6215
16269TIP3    H270299   3.137   4.623   1.805  1.6856  0.8989  1.8843
16270TIP3   OH270300   3.229   3.761  11.155  0.3757  1.1226  1.2543
16270TIP3    H170301   3.171   3.833  11.129  1.1873  1.2162 -0.3919
16270TIP3    H270302   3.171   3.699  11.199 -0.9613  1.2945 -0.1647
16271TIP3   OH270303   1.633   5.187   4.844 -0.2121 -0.0610 -0.2029
16271TIP3    H170304   1.709   5.154   4.893 -1.3991 -2.7003 -0.0171
16271TIP3    H270305   1.634   5.139   4.762  0.7277  3.0619 -2.1848
16272TIP3   OH270306   6.706   4.486  12.037 -0.2910 -0.4458  0.9639
16272TIP3    H170307   6.753   4.512  12.116  2.4123 -1.7091 -0.1182
16272TIP3    H270308   6.713   4.561  11.979  0.7213 -0.7198  0.7077
16273TIP3   OH270309   4.144   3.918  15.962  0.5224  0.5000 -0.3026
16273TIP3    H170310   4.151   3.926  16.057 -0.2962  0.8869 -0.2631
16273TIP3    H270311   4.079   3.849  15.949  2.4594 -1.3758 -0.6154
16274TIP3   OH270312   4.977   5.736   0.382 -0.2087 -0.2872 -0.2263
16274TIP3    H170313   4.974   5.644   0.356 -2.4986 -0.2814 -0.1695
16274TIP3    H270314   4.893   5.772   0.354  0.1264  1.4805  0.8761
16275TIP3   OH270315   4.722   1.185   0.986  0.1934 -0.3259 -0.0312
16275TIP3    H170316   4.661   1.250   1.020 -0.8925 -1.5339  0.4435
16275TIP3    H270317   4.666   1.119   0.945  1.2496 -0.9868 -0.4547
16276TIP3   OH270318   0.340   3.262   0.285 -0.3213  0.1092 -0.0852
16276TIP3    H170319   0.361   3.170   0.304  0.1062  0.3697  0.7391
16276TIP3    H270320   0.424   3.303   0.267 -0.4414  0.4673  0.1572
16277TIP3   OH270321   1.270   3.434   0.795 -0.0896 -0.7086 -0.0177
16277TIP3    H170322   1.361   3.406   0.793 -0.2525 -1.2323 -0.0965
16277TIP3    H270323   1.247   3.432   0.888  0.2499  0.3229  0.1048
16278TIP3   OH270324   0.930   4.539   0.124  0.0161 -0.6888  0.5948
16278TIP3    H170325   0.907   4.620   0.168 -0.7774 -0.0227 -0.9496
16278TIP3    H270326   0.994   4.497   0.181 -1.1869 -0.0619  2.5058
16279TIP3   OH270327   4.649   5.920  11.693 -0.5838 -0.1009  0.7208
16279TIP3    H170328   4.735   5.900  11.730 -1.1656  0.7518  2.6862
16279TIP3    H270329   4.595   5.944  11.769 -2.6525 -0.8956 -0.4061
16280TIP3   OH270330   4.817   4.142   0.206  0.4117  0.7390 -0.1311
16280TIP3    H170331   4.757   4.070   0.226  3.0311 -1.6599 -0.4055
16280TIP3    H270332   4.856   4.164   0.291 -0.4770  2.0196 -0.0227
16281TIP3   OH270333   2.910   6.384   2.464  0.0461  0.0481  0.3193
16281TIP3    H170334   2.912   6.465   2.514 -1.4515 -0.0183  0.5380
16281TIP3    H270335   2.902   6.413   2.373 -0.9242  0.1641  0.4298
16282TIP3   OH270336   4.176   5.555  17.080 -0.2025  0.4349 -0.8088
16282TIP3    H170337   4.104   5.518  17.131  1.2640  0.9522  1.8360
16282TIP3    H270338   4.144   5.641  17.052 -1.4825 -0.3574 -1.8848
16283TIP3   OH270339   2.868   5.061  12.158 -0.2248 -0.1667  0.4183
16283TIP3    H170340   2.773   5.049  12.157 -0.0682 -1.6497  0.4150
16283TIP3    H270341   2.897   5.033  12.072  0.4020 -1.8838  1.1342
16284TIP3   OH270342   1.924   0.117   4.028  0.5471  0.2750 -0.2270
16284TIP3    H170343   1.928   0.109   4.123 -0.5162  0.8589 -0.1144
16284TIP3    H270344   2.000   0.067   3.996 -0.3812 -1.9610  0.8130
16285TIP3   OH270345   6.372   2.295   5.587  0.2516  0.7531  0.1402
16285TIP3    H170346   6.380   2.385   5.620  1.3057  0.7864 -0.1700
16285TIP3    H270347   6.426   2.243   5.646 -0.8063  0.2201  0.6551
16286TIP3   OH270348   4.484   1.082  17.150  0.6185  0.6292  0.3468
16286TIP3    H170349   4.461   1.162  17.103  0.0329 -0.6807 -1.7399
16286TIP3    H270350   4.402   1.053  17.191  1.3554  2.3728  3.3411
16287TIP3   OH270351   4.654   1.817  16.711 -0.0350 -0.5657 -0.0828
16287TIP3    H170352   4.651   1.810  16.616  0.6877  0.6810 -0.2213
16287TIP3    H270353   4.692   1.734  16.740  0.2866 -0.7248 -0.9272
16288TIP3   OH270354   3.312   6.752  13.980  0.5496 -0.2839  0.6491
16288TIP3    H170355   3.281   6.790  14.063 -0.5915 -0.5376  0.3592
16288TIP3    H270356   3.268   6.667  13.976  0.0391  0.0186 -0.5460
16289TIP3   OH270357   2.863   0.942   6.237  0.0354 -0.2679 -0.3352
16289TIP3    H170358   2.824   0.890   6.307  0.9655  0.9287  1.1459
16289TIP3    H270359   2.911   1.011   6.283  0.7452  0.5190 -2.1700
16290TIP3   OH270360   2.233   6.604   2.392  0.3922 -0.2396  0.4872
16290TIP3    H170361   2.326   6.626   2.395  0.8019 -1.3082 -1.8313
16290TIP3    H270362   2.231   6.508   2.393 -0.8409 -0.2583  2.2033
16291TIP3   OH270363   5.500   4.238  13.158 -0.2293 -0.4433  0.5431
16291TIP3    H170364   5.440   4.259  13.230 -2.2529 -0.8980 -0.9389
16291TIP3    H270365   5.461   4.279  13.081  1.8058 -0.0985 -0.3764
16292TIP3   OH270366   3.896   5.083   1.506  0.4035 -0.0834 -0.0687
16292TIP3    H170367   3.817   5.047   1.465  1.5050  0.2178 -2.6860
16292TIP3    H270368   3.964   5.018   1.490  1.7022  1.6113 -2.0695
16293TIP3   OH270369   1.888   0.433  11.111  0.6165  0.3745 -0.3536
16293TIP3    H170370   1.827   0.402  11.044  1.3237 -0.1497 -0.7815
16293TIP3    H270371   1.959   0.368  11.110  0.5009  0.2053  1.1209
16294TIP3   OH270372   4.099   5.825   3.611  0.2026 -0.1701  0.1407
16294TIP3    H170373   4.011   5.840   3.645 -0.0227 -1.0023 -0.0368
16294TIP3    H270374   4.153   5.892   3.653 -0.3916 -0.0673  0.7640
16295TIP3   OH270375   5.374   2.962  16.739  0.1704 -0.1885  0.0906
16295TIP3    H170376   5.308   2.894  16.752 -0.2052 -0.3667 -2.3020
16295TIP3    H270377   5.324   3.038  16.708  0.8250  0.5342  0.7648
16296TIP3   OH270378   1.311   6.460   0.263  0.4773  0.4513  0.0269
16296TIP3    H170379   1.333   6.544   0.222  1.1576  0.5728  0.6261
16296TIP3    H270380   1.360   6.395   0.214  1.9293  0.6808  1.1188
16297TIP3   OH270381   2.926   5.162   1.760  0.2821  0.5814 -0.4627
16297TIP3    H170382   2.997   5.134   1.702  0.6745  1.3905 -0.3913
16297TIP3    H270383   2.851   5.175   1.703  0.6061  1.1685 -0.7553
16298TIP3   OH270384   3.079   4.402   2.397 -0.6455  0.1951 -0.0485
16298TIP3    H170385   3.052   4.452   2.475 -1.7208 -0.8737  0.2860
16298TIP3    H270386   3.138   4.335   2.431 -1.4602 -0.5505 -0.0612
16299TIP3   OH270387   5.736   4.482  16.468  0.0457  0.2711 -0.1935
16299TIP3    H170388   5.695   4.478  16.381 -1.7642  1.1299  0.5626
16299TIP3    H270389   5.696   4.558  16.509  1.0191 -0.0173  1.3399
16300TIP3   OH270390   1.461   2.362   0.313 -0.1290  0.0097  0.8095
16300TIP3    H170391   1.494   2.428   0.251  0.2189 -1.5417 -0.7370
16300TIP3    H270392   1.482   2.278   0.272 -3.0446 -1.1016  1.3263
16301TIP3   OH270393   0.077   0.117  16.324  0.2353  0.0985  0.0243
16301TIP3    H170394   0.021   0.085  16.394  0.3081 -2.0018 -0.8063
16301TIP3    H270395   0.101   0.206  16.351 -0.9409 -0.0999  1.8974
16302TIP3   OH270396   6.808   3.146   0.323  0.7068 -0.1844 -0.0975
16302TIP3    H170397   6.764   3.231   0.322 -1.2735 -0.9512  3.5803
16302TIP3    H270398   6.778   3.102   0.243 -1.3416  1.1815 -0.1368
16303TIP3   OH270399   5.951   1.724  11.305 -0.4513  0.1777 -0.3964
16303TIP3    H170400   6.015   1.663  11.340 -0.4436  0.6850  0.5078
16303TIP3    H270401   5.867   1.694  11.341 -0.4175  0.8173  0.2515
16304TIP3   OH270402   5.418   6.554   0.406  0.6481  0.0297  0.0788
16304TIP3    H170403   5.333   6.558   0.363  0.7219  3.2051 -0.0084
16304TIP3    H270404   5.421   6.467   0.445 -1.3341 -1.2878 -2.4096
16305TIP3   OH270405   2.867   2.434  11.743  0.3967 -0.0454 -0.6203
16305TIP3    H170406   2.825   2.365  11.693  0.1395  0.2044 -0.7486
16305TIP3    H270407   2.904   2.492  11.677 -1.5050  1.2801 -0.5905
16306TIP3   OH270408   5.178   0.904  16.079  0.5389 -0.6650  0.1073
16306TIP3    H170409   5.164   0.978  16.020  1.6956 -1.0044 -0.6379
16306TIP3    H270410   5.102   0.848  16.066  0.0143  0.0325  0.1288
16307TIP3   OH270411   2.241   4.608  13.157  0.0938  0.0868 -0.1017
16307TIP3    H170412   2.199   4.532  13.116  1.3263  0.4967 -2.2504
16307TIP3    H270413   2.202   4.612  13.245  0.2951 -3.2404  0.2516
16308TIP3   OH270414   5.246   3.513   1.971 -0.1065 -0.0983  0.3104
16308TIP3    H170415   5.278   3.538   1.884 -1.6404 -1.0917 -0.5874
16308TIP3    H270416   5.211   3.594   2.008  3.2740  1.0225  1.3300
16309TIP3   OH270417   4.312   4.845   6.408  0.3919  0.0176  0.0938
16309TIP3    H170418   4.323   4.756   6.376 -0.6580 -0.1559  0.1764
16309TIP3    H270419   4.222   4.868   6.383  0.4641  0.8429  0.5671
16310TIP3   OH270420   1.515   3.975   2.405 -0.2469  0.3446  0.6567
16310TIP3    H170421   1.572   3.931   2.342 -0.9081 -0.7921  0.8325
16310TIP3    H270422   1.522   4.068   2.383  0.1260  0.0329 -0.5932
16311TIP3   OH270423   1.721   5.004  11.624  0.1053 -1.0847  0.5325
16311TIP3    H170424   1.671   4.924  11.606 -1.1910 -0.4463  1.2044
16311TIP3    H270425   1.782   5.011  11.550  0.3585 -2.7636  0.5345
16312TIP3   OH270426   6.112   5.618  12.216  0.1910  0.8132  0.3052
16312TIP3    H170427   6.204   5.640  12.209  0.3111  1.1438  2.2733
16312TIP3    H270428   6.066   5.692  12.177  0.7340  0.5161 -0.9399
16313TIP3   OH270429   1.700   0.737   2.991 -0.4305 -0.5483  0.1455
16313TIP3    H170430   1.670   0.669   3.051  0.8426 -1.6354 -0.3982
16313TIP3    H270431   1.789   0.757   3.019  0.0506 -0.7975 -1.1135
16314TIP3   OH270432   1.345   4.532   0.522  0.8960  0.5313 -0.0575
16314TIP3    H170433   1.418   4.540   0.461  1.0216  1.8529  0.2332
16314TIP3    H270434   1.274   4.583   0.482 -0.4007 -1.8707 -1.0353
16315TIP3   OH270435   4.764   2.242   0.170 -0.7273 -0.0516  0.5268
16315TIP3    H170436   4.717   2.315   0.209  2.0301  1.1731  1.8827
16315TIP3    H270437   4.770   2.264   0.077 -0.1253  1.4036  0.8782
16316TIP3   OH270438   5.621   4.874  12.468  0.0582  0.4414  0.2977
16316TIP3    H170439   5.658   4.948  12.517 -0.9538  0.7878  0.5751
16316TIP3    H270440   5.618   4.802  12.531  0.5486  0.3184  0.1816
16317TIP3   OH270441   5.775   5.316   5.731 -0.1682 -0.2597  0.1144
16317TIP3    H170442   5.780   5.233   5.778  1.3782 -0.0013  0.4682
16317TIP3    H270443   5.690   5.353   5.755 -0.9039 -1.7431 -0.0944
16318TIP3   OH270444   6.361   4.078   5.967  0.4837  0.4720 -0.1279
16318TIP3    H170445   6.301   4.031   5.908  0.1715  1.6372 -0.7791
16318TIP3    H270446   6.330   4.056   6.055  0.8647 -1.1765 -0.3732
16319TIP3   OH270447   4.948   5.048  10.912  1.0556  0.3907 -0.0841
16319TIP3    H170448   4.986   5.136  10.916 -2.8312  2.3104 -0.2078
16319TIP3    H270449   4.905   5.037  10.997 -2.0779  0.5854 -1.4998
16320TIP3   OH270450   3.981   1.961   4.313 -0.5044 -0.2829 -0.0799
16320TIP3    H170451   3.889   1.977   4.288 -0.6707 -0.0937  0.6371
16320TIP3    H270452   4.001   2.030   4.375  0.0539 -0.4760 -0.0448
16321TIP3   OH270453   6.802   3.972   5.816  0.5330  0.0591 -0.6072
16321TIP3    H170454   6.887   3.982   5.773 -0.1377 -0.1147 -2.0324
16321TIP3    H270455   6.754   4.051   5.792  0.2356  0.0903  0.0764
16322TIP3   OH270456   2.847   0.208   3.957 -0.0045 -0.2655  0.2755
16322TIP3    H170457   2.855   0.205   3.862  2.0380  1.1333  0.3273
16322TIP3    H270458   2.901   0.136   3.989 -1.0157 -0.9860  0.3843
16323TIP3   OH270459   0.697   1.002  15.774 -0.3722  0.0388  0.1493
16323TIP3    H170460   0.606   1.028  15.761 -0.5153  0.1597  1.2715
16323TIP3    H270461   0.735   1.003  15.687 -1.2279  0.8063 -0.2317
16324TIP3   OH270462   0.210   2.752  15.129 -0.7000 -0.3371  0.0157
16324TIP3    H170463   0.263   2.723  15.203 -1.3502 -0.5126  0.4208
16324TIP3    H270464   0.267   2.740  15.052  0.5096  1.1697  0.6096
16325TIP3   OH270465   4.976   4.915   6.204  0.1879 -0.5764  0.1178
16325TIP3    H170466   5.053   4.869   6.236 -0.1223  0.0424  1.8293
16325TIP3    H270467   4.921   4.847   6.165  1.0384 -1.1934 -0.0229
16326TIP3   OH270468   1.960   1.029   2.723  0.1017  0.3297 -0.1484
16326TIP3    H170469   1.983   1.114   2.760  3.4747 -0.2306 -0.6929
16326TIP3    H270470   1.967   1.041   2.628 -1.3922 -0.0788 -0.3345
16327TIP3   OH270471   6.755   3.395   0.465 -0.2668  0.2081 -0.5523
16327TIP3    H170472   6.771   3.471   0.409  1.3690  1.5361  1.5418
16327TIP3    H270473   6.842   3.358   0.479 -0.6931 -0.3667  0.6806
16328TIP3   OH270474   2.670   6.762   3.310 -0.0283  0.2674 -0.1083
16328TIP3    H170475   2.764   6.776   3.298 -0.1184  1.6707  0.6450
16328TIP3    H270476   2.629   6.830   3.256 -0.7015 -1.7412 -2.2683
16329TIP3   OH270477   5.342   1.994   1.961 -0.1337  0.3915  0.7674
16329TIP3    H170478   5.406   1.931   1.995  0.3181 -0.0257 -0.7665
16329TIP3    H270479   5.392   2.047   1.899 -1.4070 -0.4424 -1.0605
16330TIP3   OH270480   4.153   3.889  11.500  0.2724 -0.1194 -0.0168
16330TIP3    H170481   4.130   3.854  11.586 -0.8632 -1.2730 -0.7517
16330TIP3    H270482   4.248   3.900  11.503  0.3338 -0.8254  1.1419
16331TIP3   OH270483   0.919   2.123  16.509 -0.5674 -0.3438  0.1143
16331TIP3    H170484   1.010   2.114  16.484 -0.1343  1.1173  1.0258
16331TIP3    H270485   0.879   2.175  16.439 -0.8484 -1.4007 -0.5350
16332TIP3   OH270486   0.005   6.049   0.296 -0.1274 -0.2271  0.3578
16332TIP3    H170487   0.004   6.141   0.322 -1.4529 -0.5986  1.7328
16332TIP3    H270488  -0.059   6.042   0.226 -0.7177 -0.2666  0.8966
16333TIP3   OH270489   1.886   2.047   4.256 -0.1569 -0.1641 -0.0389
16333TIP3    H170490   1.844   2.084   4.333  1.2208 -0.9540  1.1324
16333TIP3    H270491   1.814   2.028   4.196 -1.2662  0.3846  1.0832
16334TIP3   OH270492   4.797   5.335   5.804  0.2645  0.4597  0.4639
16334TIP3    H170493   4.780   5.265   5.867  1.0125 -0.6674 -0.5440
16334TIP3    H270494   4.713   5.382   5.798 -0.5328 -0.9070  0.4844
16335TIP3   OH270495   4.877   0.081   3.113  0.4295  0.3353 -0.0934
16335TIP3    H170496   4.854   0.156   3.059 -1.1668 -0.6529 -0.8811
16335TIP3    H270497   4.939   0.115   3.178  0.1889  2.1761 -0.7795
16336TIP3   OH270498   1.181   5.700  15.965  0.2516  0.2901  0.2846
16336TIP3    H170499   1.202   5.608  15.980  0.7388  0.0974 -1.3444
16336TIP3    H270500   1.217   5.718  15.878 -0.8184  1.7087  0.1127
16337TIP3   OH270501   0.981   0.686  15.986  0.0047 -0.2088  0.0790
16337TIP3    H170502   1.058   0.701  15.930 -0.3258  0.1063 -0.2936
16337TIP3    H270503   0.906   0.699  15.928 -0.3688  1.2854  0.8577
16338TIP3   OH270504   1.957   5.986   4.513 -0.1716 -0.6566 -0.1393
16338TIP3    H170505   1.965   5.985   4.608  1.8667 -2.4853 -0.2583
16338TIP3    H270506   2.019   6.053   4.484 -0.1934 -0.6677 -0.2121
16339TIP3   OH270507   3.486   3.055   3.700  0.3153 -0.3119  0.0125
16339TIP3    H170508   3.398   3.040   3.736  0.1954  0.4120  0.0378
16339TIP3    H270509   3.545   3.018   3.765  0.1235  1.4279  1.2394
16340TIP3   OH270510   1.859   5.826   5.456  0.5351  0.1161 -0.0655
16340TIP3    H170511   1.906   5.885   5.516  2.1526 -1.2386  0.0893
16340TIP3    H270512   1.892   5.739   5.479 -1.3624 -0.8093 -0.6654
16341TIP3   OH270513   1.180   2.141   1.501  0.3865  0.6810  0.4773
16341TIP3    H170514   1.125   2.177   1.570  1.1240 -0.4954  1.7320
16341TIP3    H270515   1.251   2.095   1.548 -0.2530 -2.0054 -0.9589
16342TIP3   OH270516   6.722   2.911   2.837  0.0047 -0.4937 -0.5572
16342TIP3    H170517   6.698   2.865   2.917 -1.2496  0.1639 -0.5178
16342TIP3    H270518   6.794   2.969   2.862 -0.6290 -0.0204  0.2019
16343TIP3   OH270519   5.074   2.652  11.817 -0.0493  0.0615 -0.1531
16343TIP3    H170520   5.147   2.591  11.825  1.9023  2.1974 -0.6701
16343TIP3    H270521   5.043   2.640  11.727  0.7460  0.2637 -0.4650
16344TIP3   OH270522   1.202   3.492   4.573  0.3359  0.9738  0.2723
16344TIP3    H170523   1.109   3.487   4.593  0.5592 -1.0894  1.0322
16344TIP3    H270524   1.213   3.578   4.532 -2.3438  0.2967 -2.1918
16345TIP3   OH270525   1.620   5.784   2.274 -0.5538 -0.3611 -1.2165
16345TIP3    H170526   1.624   5.690   2.257 -1.0423 -1.1033  2.1148
16345TIP3    H270527   1.530   5.799   2.302 -0.7130  1.3276 -2.4611
16346TIP3   OH270528   6.338   0.315  14.011 -0.1947 -0.2048 -0.2853
16346TIP3    H170529   6.297   0.401  14.009  2.3372  1.0893  0.3126
16346TIP3    H270530   6.279   0.262  14.066 -0.7504  1.7247  1.0907
16347TIP3   OH270531   5.790   0.224   3.981 -0.3918 -0.0770  0.1744
16347TIP3    H170532   5.867   0.189   4.025  0.6194  0.7419 -0.8866
16347TIP3    H270533   5.804   0.205   3.888 -0.9522  0.9821 -0.1531
16348TIP3   OH270534   5.235   0.983   0.515  0.4034 -0.0774 -0.9084
16348TIP3    H170535   5.163   0.989   0.578  0.6651  1.9918 -0.7515
16348TIP3    H270536   5.262   0.891   0.518 -0.0673 -0.1935  1.4804
16349TIP3   OH270537   1.140   4.626  16.563 -0.1921 -0.0733 -0.5661
16349TIP3    H170538   1.143   4.679  16.642  1.0893  1.6186 -1.6543
16349TIP3    H270539   1.203   4.556  16.578 -0.8120 -0.4530  0.3283
16350TIP3   OH270540   3.991   1.287   2.347 -0.0565  0.4665 -0.0232
16350TIP3    H170541   3.898   1.266   2.338  0.0735 -0.3438  0.5051
16350TIP3    H270542   4.035   1.225   2.289  0.1709  0.7433 -0.1469
16351TIP3   OH270543   5.970   0.975  12.879 -0.4345 -0.0345  0.3234
16351TIP3    H170544   6.056   0.990  12.840  0.1643 -0.3055  1.5189
16351TIP3    H270545   5.928   1.060  12.878 -0.4840 -0.0499 -1.0022
16352TIP3   OH270546   1.793   0.230  16.423  0.2687  0.4336  0.0554
16352TIP3    H170547   1.840   0.278  16.355  1.2690 -0.4443  0.1032
16352TIP3    H270548   1.708   0.210  16.384  0.3191  1.1343 -0.4282
16353TIP3   OH270549   4.599   1.958   2.526  0.5355 -0.0351  0.0429
16353TIP3    H170550   4.637   1.870   2.520  1.7450  0.4420  0.3694
16353TIP3    H270551   4.566   1.963   2.616  1.3034  0.1651  0.3175
16354TIP3   OH270552   0.138   5.694  10.592 -0.2944  0.4148 -0.3003
16354TIP3    H170553   0.080   5.645  10.533  0.9079 -0.5400 -0.7269
16354TIP3    H270554   0.227   5.671  10.563  0.3376  2.8545 -0.5353
16355TIP3   OH270555   2.904   5.023  13.568  0.2046 -0.0262  0.3476
16355TIP3    H170556   2.923   4.933  13.593  0.2391  0.5262  2.5338
16355TIP3    H270557   2.829   5.017  13.509  0.6090 -1.5085 -0.0593
16356TIP3   OH270558   5.561   4.561   6.033 -0.0226 -0.1906 -0.2393
16356TIP3    H170559   5.630   4.528   6.090 -0.0991  0.0892  0.0186
16356TIP3    H270560   5.526   4.637   6.079  0.1878  0.2840 -0.8417
16357TIP3   OH270561   4.673   6.599   4.689 -0.0487 -0.2857  0.4495
16357TIP3    H170562   4.691   6.507   4.708  0.2138 -0.2512  0.3777
16357TIP3    H270563   4.749   6.627   4.638  0.1614  0.1323  0.9848
16358TIP3   OH270564   3.110   4.423  15.481  0.1358  0.4338  0.3215
16358TIP3    H170565   3.021   4.456  15.471  0.0767  0.4280  0.8126
16358TIP3    H270566   3.121   4.361  15.409  0.2326  1.4891 -0.6148
16359TIP3   OH270567   0.467   0.198  14.316 -0.2536 -0.6693 -0.4358
16359TIP3    H170568   0.494   0.290  14.307  0.4110 -0.9923 -2.2425
16359TIP3    H270569   0.382   0.202  14.360 -0.5191  0.8657 -1.0080
16360TIP3   OH270570   2.298   2.830  16.508  0.2811  0.2466 -0.2016
16360TIP3    H170571   2.342   2.796  16.430 -0.6429  0.4106 -0.8176
16360TIP3    H270572   2.314   2.925  16.505  1.4396  0.0933  0.5970
16361TIP3   OH270573   5.629   4.886  15.166 -0.3712  0.0325  0.2046
16361TIP3    H170574   5.665   4.826  15.232  2.0898  1.1374 -0.0243
16361TIP3    H270575   5.662   4.853  15.083  0.4010  1.2147  0.0099
16362TIP3   OH270576   5.887   5.284   5.498  0.2352 -0.3278 -0.2547
16362TIP3    H170577   5.857   5.310   5.585  1.1826 -2.1787  0.6995
16362TIP3    H270578   5.818   5.311   5.439 -1.5104 -1.0269  1.3773
16363TIP3   OH270579   6.422   5.206  13.052 -0.0578 -0.0244  0.5399
16363TIP3    H170580   6.400   5.285  13.101  1.1815  0.4013  0.4528
16363TIP3    H270581   6.338   5.162  13.037 -0.7448  1.1876  0.7307
16364TIP3   OH270582   0.888   3.662  17.079 -0.3378  0.3010 -0.0983
16364TIP3    H170583   0.969   3.682  17.034  1.0872 -3.5562  0.3357
16364TIP3    H270584   0.820   3.702  17.025  1.6294  0.9712 -2.2578
16365TIP3   OH270585   3.249   6.063   4.789 -0.0105  0.4466 -0.0680
16365TIP3    H170586   3.311   6.035   4.856 -1.0003 -0.1720  0.6011
16365TIP3    H270587   3.215   5.982   4.752 -0.9565  0.7701  0.0718
16366TIP3   OH270588   2.470   6.506   2.715 -0.2661 -0.2854 -0.5234
16366TIP3    H170589   2.470   6.499   2.810  0.8574  0.5178 -0.4355
16366TIP3    H270590   2.555   6.470   2.688  0.3209  1.3551 -1.0208
16367TIP3   OH270591   0.488   0.466  15.535  0.1327 -0.3772 -0.6069
16367TIP3    H170592   0.434   0.403  15.584  0.3642 -1.3781 -1.5929
16367TIP3    H270593   0.578   0.445  15.560  0.3570 -1.7512 -2.3301
16368TIP3   OH270594   2.428   1.536   1.933 -0.6621 -0.3178 -0.4011
16368TIP3    H170595   2.377   1.604   1.889 -0.2016 -0.3860 -1.0532
16368TIP3    H270596   2.374   1.511   2.009 -0.0330  2.0345  0.9215
16369TIP3   OH270597   5.604   1.715  12.297 -0.0042  0.4277  0.0761
16369TIP3    H170598   5.584   1.769  12.374  0.8880 -2.4869  2.5397
16369TIP3    H270599   5.686   1.751  12.264 -1.1479  2.6755 -0.5564
16370TIP3   OH270600   5.314   4.611  15.912 -0.2318  0.0852 -0.3704
16370TIP3    H170601   5.287   4.620  16.004 -1.4916 -0.0426 -0.7005
16370TIP3    H270602   5.371   4.686  15.896 -0.3260  0.3316  0.4126
16371TIP3   OH270603   6.468   2.399  16.265 -0.7843  0.2123  0.1931
16371TIP3    H170604   6.477   2.464  16.196  1.1434 -1.0595 -0.8670
16371TIP3    H270605   6.394   2.344  16.237 -1.1357  0.7451  0.0690
16372TIP3   OH270606   4.168   2.672   2.850 -0.1321  0.3528  0.3412
16372TIP3    H170607   4.158   2.638   2.761  0.4071 -1.2437  0.8597
16372TIP3    H270608   4.239   2.736   2.843 -1.6796  2.0356 -0.7949
16373TIP3   OH270609   3.856   3.267  12.007 -0.0395  0.0658  0.4589
16373TIP3    H170610   3.777   3.279  12.060 -0.4156 -2.2749  0.5442
16373TIP3    H270611   3.926   3.305  12.058 -1.1256  2.5938  0.1954
16374TIP3   OH270612   4.492   4.729   4.083  0.6267  0.1200 -0.3982
16374TIP3    H170613   4.514   4.694   4.169 -0.4254  2.3371  0.8538
16374TIP3    H270614   4.399   4.752   4.089  0.8702  1.6265 -1.6436
16375TIP3   OH270615   6.243   1.596  10.924 -0.3815 -0.4678 -0.3018
16375TIP3    H170616   6.291   1.530  10.974 -1.9007 -1.4360 -0.0749
16375TIP3    H270617   6.311   1.659  10.897  0.8359 -1.2131  0.8895
16376TIP3   OH270618   4.256   5.356  11.075 -0.3524  0.3696  0.0729
16376TIP3    H170619   4.191   5.376  11.008  0.1168 -0.3951 -0.6306
16376TIP3    H270620   4.232   5.269  11.107  1.7461 -1.0974 -2.0220
16377TIP3   OH270621   5.601   6.507  14.640 -0.3636  0.6428 -0.3016
16377TIP3    H170622   5.632   6.488  14.729 -0.7974  1.2005 -0.0282
16377TIP3    H270623   5.665   6.568  14.605  0.4626 -0.4718 -0.8111
16378TIP3   OH270624   6.656   3.700  12.853  0.0505  0.2813  0.4531
16378TIP3    H170625   6.660   3.721  12.760  1.6169 -1.1420  0.1574
16378TIP3    H270626   6.585   3.754  12.887  0.3741  1.8911 -1.2801
16379TIP3   OH270627   1.054   6.386  12.591 -0.3424 -0.0916  0.6273
16379TIP3    H170628   1.005   6.343  12.662 -0.5433  0.6896  0.9658
16379TIP3    H270629   1.143   6.392  12.626 -0.7673  1.7562  1.5070
16380TIP3   OH270630   6.234   5.024   0.373 -0.0444 -0.4393 -0.4623
16380TIP3    H170631   6.217   4.941   0.417 -0.1508 -0.2472 -0.1273
16380TIP3    H270632   6.323   5.046   0.398 -0.7523  0.6572  1.3669
16381TIP3   OH270633   1.271   4.586  12.266  0.2098 -0.4592 -0.3870
16381TIP3    H170634   1.286   4.526  12.193 -0.1209 -2.3274  1.0065
16381TIP3    H270635   1.359   4.609  12.297  0.3828  1.2166 -2.0004
16382TIP3   OH270636   4.374   3.524  11.689 -0.2727  0.8068 -0.3513
16382TIP3    H170637   4.290   3.530  11.644  0.5729 -1.1659 -2.3708
16382TIP3    H270638   4.437   3.565  11.629  0.9038 -1.9690 -1.1530
16383TIP3   OH270639   6.446   1.750   0.882  0.0590 -1.0043 -0.2975
16383TIP3    H170640   6.475   1.812   0.815 -1.0848  0.2643  0.3172
16383TIP3    H270641   6.516   1.750   0.946 -0.8821  1.5519  0.8768
16384TIP3   OH270642   5.807   5.288   0.868  0.2837  0.1064 -0.3804
16384TIP3    H170643   5.876   5.336   0.915 -0.0077  0.0949  0.0713
16384TIP3    H270644   5.819   5.197   0.897 -1.3369  0.4209  1.5325
16385TIP3   OH270645   1.521   5.037  10.464 -0.0421  0.1237 -0.4054
16385TIP3    H170646   1.611   5.010  10.445 -0.4503 -0.3118 -1.8650
16385TIP3    H270647   1.470   5.000  10.392 -0.9505  2.9802 -1.3495
16386TIP3   OH270648   6.547   3.040  13.002  0.0329  0.0486  0.8474
16386TIP3    H170649   6.577   2.949  12.995  0.5375  0.1944  1.0241
16386TIP3    H270650   6.627   3.089  13.021 -0.0470  0.6704 -0.3495
16387TIP3   OH270651   2.935   3.913   3.301 -0.1056 -0.3132 -0.0860
16387TIP3    H170652   2.874   3.979   3.268  1.3246  0.8634 -0.4463
16387TIP3    H270653   3.019   3.957   3.306  1.0673 -2.3018 -0.9980
16388TIP3   OH270654   5.030   5.257  15.928  0.1077  0.6249  0.3304
16388TIP3    H170655   5.112   5.238  15.974  1.1634 -1.1028 -2.0296
16388TIP3    H270656   4.972   5.184  15.952  1.3803 -1.4957 -2.4549
16389TIP3   OH270657   3.540   2.699  11.810 -0.0157 -0.6006  0.2560
16389TIP3    H170658   3.478   2.771  11.803 -0.5845 -1.1764 -0.7045
16389TIP3    H270659   3.529   2.667  11.900  0.1807  0.4268  0.6691
16390TIP3   OH270660   3.189   5.506  12.357  0.1781 -0.3673  0.0806
16390TIP3    H170661   3.127   5.529  12.289 -1.9929 -2.9992  1.0063
16390TIP3    H270662   3.246   5.439  12.317  2.0736  1.5074 -0.5348
16391TIP3   OH270663   0.976   0.662   1.442 -0.7277  0.8759  0.2432
16391TIP3    H170664   0.992   0.574   1.475 -1.1685 -0.1446 -2.0822
16391TIP3    H270665   1.050   0.714   1.475  0.4109 -0.7241  0.3348
16392TIP3   OH270666   3.433   1.642  11.534  0.0025  0.4963  0.7096
16392TIP3    H170667   3.439   1.674  11.444 -1.1493 -0.9401  0.0671
16392TIP3    H270668   3.429   1.546  11.525  0.0808  0.3118  2.3109
16393TIP3   OH270669   2.069   0.302  17.147 -0.2933 -0.2570 -0.3430
16393TIP3    H170670   2.110   0.221  17.117 -0.8707 -0.7390  0.1496
16393TIP3    H270671   2.095   0.367  17.082 -0.9528 -1.1345 -1.5381
16394TIP3   OH270672   1.163   6.762   1.549 -0.3043  0.1482  0.3687
16394TIP3    H170673   1.200   6.673   1.555 -0.3686  0.1895  1.8387
16394TIP3    H270674   1.121   6.775   1.634 -1.4872  1.0796 -0.3421
16395TIP3   OH270675   2.522   1.485   4.171  0.2670  0.2036  0.3986
16395TIP3    H170676   2.528   1.518   4.081 -2.7632 -2.9580 -1.2185
16395TIP3    H270677   2.585   1.413   4.174 -1.0017 -0.9680  0.0431
16396TIP3   OH270678   1.383   6.038   4.301 -0.8520 -0.1723  0.0904
16396TIP3    H170679   1.373   5.948   4.268 -0.5581  0.4544 -1.8627
16396TIP3    H270680   1.475   6.044   4.326 -0.3068  0.1642 -1.8269
16397TIP3   OH270681   5.837   3.370  13.881  0.0943 -0.1315 -0.3317
16397TIP3    H170682   5.882   3.303  13.830  0.1811 -2.4085  2.4592
16397TIP3    H270683   5.768   3.321  13.927 -3.3170  2.6482 -2.0113
16398TIP3   OH270684   2.253   2.138  17.160  0.4106  0.0380  0.0364
16398TIP3    H170685   2.303   2.100  17.088  0.2154  0.2142 -0.1921
16398TIP3    H270686   2.263   2.075  17.232  1.2573  0.2460  0.1091
16399TIP3   OH270687   0.057   0.417   2.323  0.4033 -0.3693  0.5471
16399TIP3    H170688  -0.019   0.466   2.356  0.1968 -0.3101 -0.0068
16399TIP3    H270689   0.041   0.409   2.229  1.3899  0.2031  0.3133
16400TIP3   OH270690   4.338   2.523   3.619  0.1735 -0.5265  0.0368
16400TIP3    H170691   4.277   2.520   3.546  1.0477  0.7181 -0.7881
16400TIP3    H270692   4.375   2.435   3.623 -1.6984 -1.3492  0.6370
16401TIP3   OH270693   4.298   3.903   0.238  0.3945  0.0678 -0.1304
16401TIP3    H170694   4.317   3.845   0.164 -1.4729  1.0704 -1.4560
16401TIP3    H270695   4.344   3.862   0.312  1.4197 -1.5593 -1.5846
16402TIP3   OH270696   0.786   4.839   6.678  0.4295  0.3269  0.1959
16402TIP3    H170697   0.845   4.780   6.631  1.0173  1.1334 -0.0899
16402TIP3    H270698   0.698   4.806   6.658  0.7710 -1.0420  0.8251
16403TIP3   OH270699   4.048   2.195  16.416 -0.0424 -1.1652 -0.0546
16403TIP3    H170700   4.019   2.152  16.335  1.3982 -0.8767 -0.7491
16403TIP3    H270701   3.981   2.172  16.480 -1.5233 -0.9684 -1.4458
16404TIP3   OH270702   3.126   3.805  17.214 -0.2065 -0.1107 -0.0616
16404TIP3    H170703   3.044   3.757  17.202  0.6311 -1.8344  0.7008
16404TIP3    H270704   3.124   3.832  17.306 -1.4651  2.9966 -0.8835
16405TIP3   OH270705   1.388   3.325  13.369 -0.0925 -0.1145  0.6638
16405TIP3    H170706   1.422   3.244  13.408  1.7905  0.4830  0.3478
16405TIP3    H270707   1.434   3.333  13.286 -1.1846  0.6514  0.1139
16406TIP3   OH270708   3.387   3.561   5.195  0.5535 -0.0159  0.2864
16406TIP3    H170709   3.346   3.509   5.265 -0.1130 -2.3225 -1.6755
16406TIP3    H270710   3.323   3.630   5.176 -0.1775 -0.5808  0.6266
16407TIP3   OH270711   5.305   2.298   5.804 -0.1603 -0.1076 -0.4136
16407TIP3    H170712   5.329   2.307   5.897 -1.8509  0.1285  0.0318
16407TIP3    H270713   5.277   2.207   5.796 -0.0098 -0.1292 -0.7109
16408TIP3   OH270714   1.398   6.723  13.037 -0.4267  0.5338  0.0542
16408TIP3    H170715   1.402   6.745  13.130  0.3440  1.4091 -0.1700
16408TIP3    H270716   1.490   6.718  13.010 -0.6265 -0.5019 -0.4874
16409TIP3   OH270717   4.109   5.636  16.710  0.0273  0.3127  0.1616
16409TIP3    H170718   4.037   5.615  16.770 -1.3703 -0.4303 -1.6969
16409TIP3    H270719   4.096   5.579  16.635  0.9400  2.1278 -1.4570
16410TIP3   OH270720   2.560   5.948   5.282 -0.0194 -0.4508  0.5672
16410TIP3    H170721   2.542   5.855   5.295 -1.0412 -0.4391 -0.5360
16410TIP3    H270722   2.565   5.958   5.187  0.6770  0.5295  0.6870
16411TIP3   OH270723   3.543   0.938  16.705 -0.3807 -0.4782 -0.5322
16411TIP3    H170724   3.593   0.936  16.623 -2.0600 -0.0682 -1.6245
16411TIP3    H270725   3.588   1.003  16.759  0.3812 -0.2713 -1.3763
16412TIP3   OH270726   5.082   6.115  15.156  0.4763 -0.2441 -0.7528
16412TIP3    H170727   5.074   6.169  15.077  2.7200 -0.8632 -1.4737
16412TIP3    H270728   5.130   6.169  15.218  0.1487 -0.3647 -0.3872
16413TIP3   OH270729   0.567   1.745  10.947  0.0511  0.0432  0.4056
16413TIP3    H170730   0.655   1.780  10.934 -0.1160  1.0958  1.8110
16413TIP3    H270731   0.581   1.655  10.974  0.7547  0.3831  1.2259
16414TIP3   OH270732   0.067   4.301  11.918  0.1123  0.1440 -0.1576
16414TIP3    H170733   0.060   4.333  11.828 -1.0813 -0.2967 -0.2383
16414TIP3    H270734   0.007   4.356  11.968  1.0767  0.6586  0.4677
16415TIP3   OH270735   3.224   4.372   0.260 -0.2765 -0.2194 -0.3669
16415TIP3    H170736   3.262   4.364   0.173  1.5518  0.3117  0.3337
16415TIP3    H270737   3.230   4.465   0.281 -2.2436 -0.0591 -0.2910
16416TIP3   OH270738   4.389   2.105   2.433 -0.3100 -0.0965  0.1395
16416TIP3    H170739   4.328   2.062   2.374 -1.7814 -1.5996  2.5826
16416TIP3    H270740   4.465   2.046   2.437  0.1956  0.4563 -0.8618
16417TIP3   OH270741   4.715   3.708  15.431  0.5140  0.0375 -0.2987
16417TIP3    H170742   4.683   3.741  15.515  0.5141 -0.0172 -0.2766
16417TIP3    H270743   4.659   3.633  15.413  0.0437  0.4745 -0.6928
16418TIP3   OH270744   1.632   4.774   4.042  0.3865 -0.1096  0.0846
16418TIP3    H170745   1.577   4.820   4.106  0.1606 -0.5750  0.2282
16418TIP3    H270746   1.600   4.684   4.043 -0.9206  0.2720 -2.0921
16419TIP3   OH270747   0.264   4.244   5.200  0.2978 -0.1886 -0.4912
16419TIP3    H170748   0.176   4.232   5.165  0.0528  1.4335 -0.4897
16419TIP3    H270749   0.307   4.159   5.186 -1.7232 -1.5141  0.9204
16420TIP3   OH270750   6.012   0.735   5.676  0.5099  0.1207  0.4301
16420TIP3    H170751   6.041   0.684   5.600 -0.1375 -1.1158  0.9735
16420TIP3    H270752   5.916   0.726   5.676  0.5606 -0.8789  2.0105
16421TIP3   OH270753   4.926   2.807  16.654  0.3597  0.1248 -0.3457
16421TIP3    H170754   4.895   2.832  16.740  0.4541 -2.6800  0.6141
16421TIP3    H270755   4.870   2.855  16.593 -1.5482  0.1028  1.2890
16422TIP3   OH270756   5.620   2.806   4.136 -0.1434 -0.5573  0.2312
16422TIP3    H170757   5.639   2.797   4.230 -0.9128 -2.4839  0.2446
16422TIP3    H270758   5.566   2.730   4.115  1.1257 -0.9114 -2.0897
16423TIP3   OH270759   4.079   4.812  12.935  0.1577 -0.0792 -0.0132
16423TIP3    H170760   4.038   4.898  12.921  1.0147  0.1487 -1.2439
16423TIP3    H270761   4.028   4.752  12.881  0.0281 -0.2187  0.2600
16424TIP3   OH270762   4.753   1.619  14.946  0.1236 -0.1139 -0.1692
16424TIP3    H170763   4.712   1.539  14.979  0.9772 -0.6451 -0.3721
16424TIP3    H270764   4.846   1.606  14.960  0.2944  0.7598 -0.4066
16425TIP3   OH270765   3.678   4.940  13.200 -0.1375  0.2484  0.0607
16425TIP3    H170766   3.686   5.007  13.269  0.7602 -0.9685  1.1871
16425TIP3    H270767   3.585   4.943  13.176 -0.8665 -0.3120  2.4522
16426TIP3   OH270768   6.313   0.690  11.968  0.8952 -0.0669 -0.1828
16426TIP3    H170769   6.296   0.772  11.922  1.2631  1.3087  1.9897
16426TIP3    H270770   6.384   0.649  11.919  1.0673  1.1718 -1.0181
16427TIP3   OH270771   1.096   0.346   5.125 -0.5026  0.4777 -0.0039
16427TIP3    H170772   1.173   0.362   5.179 -0.8470  1.3757  0.2453
16427TIP3    H270773   1.098   0.415   5.059  1.4017 -2.1192 -2.9534
16428TIP3   OH270774   1.029   1.529  16.785  0.5969 -0.1750  0.3581
16428TIP3    H170775   0.988   1.455  16.739  2.3995 -0.0847 -1.5187
16428TIP3    H270776   1.101   1.489  16.834  0.8977  0.1740  0.2082
16429TIP3   OH270777   2.643   5.224  13.455 -0.3741 -0.4881 -0.3082
16429TIP3    H170778   2.554   5.223  13.421  0.2293  1.9366 -2.1937
16429TIP3    H270779   2.688   5.154  13.408 -1.3379 -2.0445  1.0027
16430TIP3   OH270780   3.768   3.285  10.713  0.6807 -0.4082 -0.3660
16430TIP3    H170781   3.703   3.345  10.676  0.1449 -1.7895 -1.7651
16430TIP3    H270782   3.746   3.282  10.806 -0.5170  0.0596 -0.6048
16431TIP3   OH270783   5.240   5.637   0.659  0.5164  0.6069 -0.4750
16431TIP3    H170784   5.223   5.610   0.749  4.8550 -2.3537 -0.2402
16431TIP3    H270785   5.170   5.595   0.608  0.4893 -1.4762  1.1332
16432TIP3   OH270786   2.382   4.817   5.770  0.6712 -0.0731 -0.0871
16432TIP3    H170787   2.441   4.795   5.843 -0.6820  0.0654  1.0915
16432TIP3    H270788   2.403   4.908   5.750  2.0867 -0.5466 -0.9096
16433TIP3   OH270789   2.498   5.870  12.843  0.4950  0.4419  0.0604
16433TIP3    H170790   2.577   5.853  12.893  1.0673  0.1878 -0.9167
16433TIP3    H270791   2.520   5.945  12.787  0.4511 -0.3730 -1.0756
16434TIP3   OH270792   5.393   3.009  13.900  0.2706 -0.0660  0.2201
16434TIP3    H170793   5.469   3.049  13.857  0.0796 -0.3147 -0.3407
16434TIP3    H270794   5.329   3.079  13.905  0.8460  0.4174  1.5169
16435TIP3   OH270795   3.129   1.561   1.592  0.3123  0.4956 -0.2915
16435TIP3    H170796   3.159   1.644   1.630 -1.0369  1.2352 -0.7860
16435TIP3    H270797   3.052   1.538   1.645 -0.9652  1.0074 -1.8471
16436TIP3   OH270798   3.912   0.370  14.425 -0.2401 -0.9480  0.3623
16436TIP3    H170799   3.869   0.372  14.339  0.6151 -1.3955 -0.1021
16436TIP3    H270800   3.891   0.284  14.460  0.8915 -1.4848 -0.2188
16437TIP3   OH270801   1.572   5.042   1.342 -0.0996  0.4133  0.3785
16437TIP3    H170802   1.505   4.974   1.348  0.1062  0.0378 -1.1165
16437TIP3    H270803   1.649   4.998   1.305  0.3475  1.2376  0.2840
16438TIP3   OH270804   4.740   5.476  16.118 -0.5556  0.3107  0.7465
16438TIP3    H170805   4.796   5.521  16.181  0.3750  0.3803 -0.1040
16438TIP3    H270806   4.739   5.533  16.041 -0.1781 -0.6187  0.0243
16439TIP3   OH270807   2.838   5.942   5.179  0.4495 -0.0616  0.1373
16439TIP3    H170808   2.785   5.963   5.102  0.5177 -0.6755 -0.0841
16439TIP3    H270809   2.924   5.920   5.145 -0.0927 -2.5379  0.1226
16440TIP3   OH270810   1.080   0.698   0.599  0.1350 -0.3765 -0.0523
16440TIP3    H170811   1.142   0.674   0.667  0.2078  0.6419  0.2557
16440TIP3    H270812   1.020   0.623   0.593 -0.0787 -0.3402  1.3742
16441TIP3   OH270813   0.660   5.685   1.674 -0.2555  0.5370  0.2991
16441TIP3    H170814   0.632   5.646   1.757 -0.4580 -0.2963 -0.1392
16441TIP3    H270815   0.686   5.610   1.620  1.0434  1.1586  0.0315
16442TIP3   OH270816   1.613   2.546  15.992  0.4850 -0.2247  0.2555
16442TIP3    H170817   1.556   2.587  16.057  1.0548  1.6731 -0.3677
16442TIP3    H270818   1.558   2.483  15.947 -0.5353  0.0857  1.0391
16443TIP3   OH270819   2.191   1.716  15.956 -0.0483 -0.0454 -0.3443
16443TIP3    H170820   2.188   1.746  15.865 -1.9253 -1.0888 -0.6865
16443TIP3    H270821   2.267   1.760  15.994 -0.3603  1.9357 -1.8724
16444TIP3   OH270822   4.317   3.426  12.128  0.5851  0.3514  0.3439
16444TIP3    H170823   4.354   3.349  12.171  0.3438  0.3262  0.5056
16444TIP3    H270824   4.359   3.427  12.042 -1.6457 -1.7372 -0.9156
16445TIP3   OH270825   4.860   4.901   3.024 -0.0622  0.2451 -0.0800
16445TIP3    H170826   4.777   4.855   3.018 -0.1332  0.2428  0.8513
16445TIP3    H270827   4.851   4.957   3.101  1.0923 -0.3604  0.5163
16446TIP3   OH270828   6.762   3.386  11.264 -0.4196 -0.3039 -0.1639
16446TIP3    H170829   6.733   3.370  11.174  0.8412  0.5919 -0.7544
16446TIP3    H270830   6.832   3.450  11.256 -0.5641  0.1206  1.5072
16447TIP3   OH270831   2.415   6.689  12.531 -0.0072  0.0057  0.3991
16447TIP3    H170832   2.369   6.766  12.499  1.1208  0.4123 -0.3145
16447TIP3    H270833   2.376   6.670  12.616 -0.8863  0.8381  0.1858
16448TIP3   OH270834   3.066   0.717  14.811 -0.3395  0.9099  0.0232
16448TIP3    H170835   3.090   0.652  14.876 -0.8462  0.9436  0.2546
16448TIP3    H270836   3.082   0.801  14.854  0.9744  0.9585 -0.5224
16449TIP3   OH270837   2.510   2.403   0.976  0.0648 -0.5339  0.4289
16449TIP3    H170838   2.434   2.429   1.028 -0.6928 -0.8487 -0.4962
16449TIP3    H270839   2.550   2.332   1.026 -0.1568 -0.2625  1.0012
16450TIP3   OH270840   1.250   5.128  12.669  0.8272  0.1689  0.2485
16450TIP3    H170841   1.329   5.103  12.716  2.5436  3.4259 -0.5876
16450TIP3    H270842   1.246   5.069  12.593  0.5859 -2.0862  1.9226
16451TIP3   OH270843   3.207   3.804   6.316  0.2612  0.1613 -0.0484
16451TIP3    H170844   3.133   3.863   6.329  1.2208  1.5940 -0.8498
16451TIP3    H270845   3.283   3.853   6.347  1.1010 -0.6299 -0.7984
16452TIP3   OH270846   1.660   5.298  15.495  0.1417  0.5876 -0.1117
16452TIP3    H170847   1.597   5.227  15.511  0.1262  0.5140 -0.4978
16452TIP3    H270848   1.743   5.262  15.525  0.9551 -1.1531 -3.8703
16453TIP3   OH270849   6.583   0.645   1.202 -0.0865  0.2370 -0.0051
16453TIP3    H170850   6.656   0.595   1.167 -0.1852  0.5364 -0.6412
16453TIP3    H270851   6.549   0.694   1.128  0.4078  1.7553  0.7158
16454TIP3   OH270852   6.469   5.065   2.945 -0.2248 -0.2103  0.3580
16454TIP3    H170853   6.505   4.982   2.974  1.9601  0.2952 -0.7320
16454TIP3    H270854   6.538   5.129   2.962 -2.0066  1.5239  1.5898
16455TIP3   OH270855   6.077   2.469   0.632  0.1981 -0.3122  0.2255
16455TIP3    H170856   5.996   2.418   0.634 -0.4461  0.6597 -0.2717
16455TIP3    H270857   6.098   2.484   0.724 -0.3188 -0.3754  0.3554
16456TIP3   OH270858   4.610   1.275   2.533 -0.0172 -0.5219  0.0016
16456TIP3    H170859   4.542   1.208   2.524 -1.1998  0.5771  0.5018
16456TIP3    H270860   4.562   1.354   2.556  1.4868  0.1867  0.7756
16457TIP3   OH270861   3.836   6.401  13.485 -0.3385  0.2734 -0.4165
16457TIP3    H170862   3.896   6.333  13.516  0.2710  2.4788  3.9856
16457TIP3    H270863   3.893   6.468  13.447 -0.3628  0.6362  0.1720
16458TIP3   OH270864   3.408   6.365  15.179  0.8407  0.0819  0.1137
16458TIP3    H170865   3.479   6.304  15.160  0.5434  0.2602 -1.7274
16458TIP3    H270866   3.369   6.333  15.260  2.9110 -0.0962  1.0961
16459TIP3   OH270867   1.546   0.420   3.761  0.2952  0.1264 -0.5676
16459TIP3    H170868   1.468   0.403   3.812  1.4713  0.9129  1.6149
16459TIP3    H270869   1.561   0.340   3.711 -0.3573 -1.0684  1.0798
16460TIP3   OH270870   4.020   0.453   5.173 -0.5886 -0.0622  0.3696
16460TIP3    H170871   3.949   0.453   5.110  0.1922  0.6089 -0.5376
16460TIP3    H270872   4.052   0.363   5.175 -0.0706  0.0787 -0.8426
16461TIP3   OH270873   3.092   1.207  12.105  0.1074  0.1965  0.0088
16461TIP3    H170874   3.099   1.225  12.011 -0.0165 -0.6677 -0.1720
16461TIP3    H270875   3.183   1.203  12.135  0.1575  0.0521 -0.1595
16462TIP3   OH270876   3.328   4.025   1.138  0.7009  0.5954  0.5877
16462TIP3    H170877   3.424   4.023   1.139  0.6988 -1.7683  1.4677
16462TIP3    H270878   3.304   4.001   1.048  0.9692 -1.4737  1.0329
16463TIP3   OH270879   4.513   6.595  16.015 -0.5606 -0.4107 -0.8886
16463TIP3    H170880   4.579   6.542  15.969 -0.4270 -0.8697 -0.1833
16463TIP3    H270881   4.461   6.531  16.064  2.3696  0.1811  3.6881
16464TIP3   OH270882   0.790   1.527   4.223  0.8012 -0.0231 -0.3767
16464TIP3    H170883   0.881   1.521   4.194  1.6561  3.2525  1.2071
16464TIP3    H270884   0.751   1.594   4.168 -0.3473 -0.5430 -0.2337
16465TIP3   OH270885   6.270   6.670  14.517  0.3779  0.0261  0.0941
16465TIP3    H170886   6.181   6.703  14.518  0.8945  1.6670 -2.0507
16465TIP3    H270887   6.272   6.607  14.444  0.3636 -2.0804  1.8044
16466TIP3   OH270888   5.884   1.365   1.431 -0.0804 -0.0445 -0.4502
16466TIP3    H170889   5.845   1.281   1.406  1.6598 -0.6813 -1.2106
16466TIP3    H270890   5.886   1.362   1.527 -0.6145 -0.5765 -0.4468
16467TIP3   OH270891   6.521   6.436   2.597 -0.4741 -0.4330  0.4160
16467TIP3    H170892   6.511   6.380   2.674 -1.3370 -1.0452 -0.1334
16467TIP3    H270893   6.578   6.386   2.538 -0.1360 -0.1373  0.4892
16468TIP3   OH270894   6.527   1.369  11.792 -0.6112  0.0055 -0.0872
16468TIP3    H170895   6.604   1.424  11.778 -0.9935  0.3458 -0.9231
16468TIP3    H270896   6.488   1.358  11.705 -0.1429 -2.2351 -0.0670
16469TIP3   OH270897   6.729   0.543  12.065 -0.2965 -0.0013  0.2284
16469TIP3    H170898   6.745   0.615  12.005 -0.8987 -0.7935 -0.9241
16469TIP3    H270899   6.762   0.465  12.019 -1.6009 -0.7520  0.4877
16470TIP3   OH270900   5.490   0.486  16.794 -0.5723  0.3828  0.0009
16470TIP3    H170901   5.501   0.506  16.701  0.0023 -0.7680 -0.1975
16470TIP3    H270902   5.486   0.390  16.798  2.1684  0.2367  1.4204
16471TIP3   OH270903   4.087   1.570  11.923 -0.1714  0.6199 -0.0212
16471TIP3    H170904   4.016   1.550  11.984  0.2283  1.3392  0.6952
16471TIP3    H270905   4.136   1.487  11.917 -0.9014  0.2006 -0.3074
16472TIP3   OH270906   0.105   1.749   3.911  0.5299 -0.4385 -0.3879
16472TIP3    H170907   0.188   1.773   3.952 -0.0697  1.6376 -0.2830
16472TIP3    H270908   0.099   1.806   3.834 -1.1754  0.0851  0.0925
16473TIP3   OH270909   6.261   2.228  16.237  0.0517  0.0502 -0.2990
16473TIP3    H170910   6.253   2.260  16.327 -0.1018  2.8584 -1.2134
16473TIP3    H270911   6.173   2.196  16.214  0.0919 -0.6697  0.5118
16474TIP3   OH270912   2.349   4.100   4.564  0.0705 -0.2274  0.3150
16474TIP3    H170913   2.410   4.053   4.622 -0.0955 -0.4619  0.3010
16474TIP3    H270914   2.263   4.066   4.587  0.0789 -0.9952 -0.6819
16475TIP3   OH270915   3.847   4.225  14.798  0.2749 -0.1661  0.0095
16475TIP3    H170916   3.798   4.283  14.856  1.0478  1.8491 -1.2361
16475TIP3    H270917   3.899   4.170  14.857 -0.8583  0.0460  1.2394
16476TIP3   OH270918   1.960   5.821  13.720 -0.1975 -0.4196  0.2322
16476TIP3    H170919   1.902   5.810  13.796 -1.6007  0.9619 -0.5963
16476TIP3    H270920   1.947   5.741  13.669 -0.9964 -0.3446  0.3066
16477TIP3   OH270921   1.362   6.056   5.772 -0.4506 -0.0353  0.5991
16477TIP3    H170922   1.390   6.024   5.686 -0.6971  0.8349  0.1828
16477TIP3    H270923   1.307   6.132   5.753 -1.8890 -0.8034  1.4513
16478TIP3   OH270924   4.301   2.404  12.835 -0.1968  0.1257  0.1336
16478TIP3    H170925   4.343   2.321  12.815  0.7930  1.1029 -2.2817
16478TIP3    H270926   4.243   2.385  12.909 -1.4587 -3.1548 -1.4910
16479TIP3   OH270927   1.724   3.693  17.122 -0.1166  0.2507  0.8843
16479TIP3    H170928   1.662   3.717  17.191 -0.0545  0.4505  0.8714
16479TIP3    H270929   1.798   3.653  17.168  0.2139  0.9721  0.9944
16480TIP3   OH270930   5.996   3.282   2.843  0.3448  0.0168  0.0448
16480TIP3    H170931   6.019   3.330   2.763 -0.9841 -0.7606 -0.8393
16480TIP3    H270932   6.042   3.198   2.835  0.5487  0.0995  0.3155
16481TIP3   OH270933   1.426   6.385  13.069  0.3397 -0.5613  0.3631
16481TIP3    H170934   1.391   6.431  12.993  1.2605  0.5341  0.5793
16481TIP3    H270935   1.510   6.428  13.087  0.5463 -1.3736  1.4719
16482TIP3   OH270936   3.218   5.836  16.459  0.2602 -0.2809 -0.4635
16482TIP3    H170937   3.145   5.894  16.482  1.4838  1.1015  0.0769
16482TIP3    H270938   3.184   5.784  16.386 -1.5802 -0.3531  0.3774
16483TIP3   OH270939   4.651   4.036  17.058  0.0576  0.1093 -0.7442
16483TIP3    H170940   4.609   4.024  17.143 -2.2782  1.1225 -1.6822
16483TIP3    H270941   4.697   4.120  17.066  2.7293 -1.3397  0.5227
16484TIP3   OH270942   5.256   1.516   0.341 -0.5074 -0.2046 -0.2316
16484TIP3    H170943   5.241   1.444   0.281 -1.6160  1.0627 -1.5423
16484TIP3    H270944   5.192   1.583   0.316 -1.7150  0.0310  2.9974
16485TIP3   OH270945   0.874   0.764   2.149  0.4524 -0.0687 -0.2508
16485TIP3    H170946   0.831   0.849   2.157 -0.1231 -0.3918  0.2430
16485TIP3    H270947   0.805   0.705   2.117  0.2550 -0.7784  1.3627
16486TIP3   OH270948   6.765   2.888   4.987 -0.0536  0.6723 -0.5530
16486TIP3    H170949   6.818   2.967   4.984  0.9697 -0.0211 -1.3331
16486TIP3    H270950   6.705   2.902   5.060  0.7863  1.7424 -0.0440
16487TIP3   OH270951   2.915   0.625   5.799 -0.1259 -0.3192  0.4384
16487TIP3    H170952   2.972   0.694   5.832 -0.2631  0.3253 -0.6216
16487TIP3    H270953   2.896   0.651   5.709 -1.5994 -0.8221  0.5744
16488TIP3   OH270954   0.387   4.220  12.707 -0.3021  0.3965  0.0383
16488TIP3    H170955   0.403   4.268  12.788 -1.1102  0.8526 -0.0610
16488TIP3    H270956   0.352   4.285  12.647  2.0165  0.5033 -1.3240
16489TIP3   OH270957   1.063   4.768  12.280 -0.3644 -0.4726 -0.1497
16489TIP3    H170958   1.126   4.698  12.267 -1.3978 -1.5270  0.3843
16489TIP3    H270959   0.977   4.727  12.269 -1.1572 -0.0969  3.2851
16490TIP3   OH270960   3.711   3.436  16.092 -0.1567 -0.2800  0.3246
16490TIP3    H170961   3.689   3.358  16.143  0.4722 -0.8493 -0.2522
16490TIP3    H270962   3.628   3.483  16.083 -0.3701 -0.4414  1.4073
16491TIP3   OH270963   5.260   0.111  15.626  0.3066  0.0218 -0.0761
16491TIP3    H170964   5.249   0.049  15.699  0.2573  0.1286  0.0069
16491TIP3    H270965   5.283   0.056  15.552  1.1147 -0.0119  0.1948
16492TIP3   OH270966   5.425   6.700  12.119 -0.0008  0.0971  0.0143
16492TIP3    H170967   5.493   6.674  12.057  0.9969 -1.2692  1.5932
16492TIP3    H270968   5.470   6.754  12.184 -0.5333 -0.3048  0.7406
16493TIP3   OH270969   1.052   6.587   0.179 -0.0808  0.4687 -0.0943
16493TIP3    H170970   1.107   6.545   0.246 -0.9316 -1.2707 -0.4303
16493TIP3    H270971   1.022   6.668   0.220  1.4997  0.7117  0.6484
16494TIP3   OH270972   3.689   5.211   2.471 -0.2485 -0.0831  0.0022
16494TIP3    H170973   3.773   5.167   2.484  0.5342  0.9282 -1.3238
16494TIP3    H270974   3.625   5.140   2.467  1.0030 -1.1834 -2.3065
16495TIP3   OH270975   4.215   0.388   3.042 -0.0670  0.4519  0.1787
16495TIP3    H170976   4.306   0.358   3.043 -0.4137 -1.0739 -3.1673
16495TIP3    H270977   4.219   0.475   3.002 -0.0481  0.6502  0.6032
16496TIP3   OH270978   1.088   3.480  13.607  0.3954 -0.0563  0.0943
16496TIP3    H170979   1.038   3.529  13.672  0.3408  0.2851 -0.2023
16496TIP3    H270980   1.037   3.401  13.592  1.2170 -0.9436  1.6759
16497TIP3   OH270981   4.333   0.727   0.705 -0.0827 -0.2021 -0.3963
16497TIP3    H170982   4.283   0.773   0.773  0.9006 -0.2720  0.4102
16497TIP3    H270983   4.282   0.649   0.686  0.3942 -1.0326  1.4802
16498TIP3   OH270984   1.803   2.335  11.531 -0.5321  0.2784 -0.6098
16498TIP3    H170985   1.726   2.308  11.481 -0.0321  0.9231 -1.7603
16498TIP3    H270986   1.865   2.262  11.522 -0.9887 -0.2378  0.3113
16499TIP3   OH270987   5.591   0.648  16.570 -0.1773  0.7097  0.0244
16499TIP3    H170988   5.684   0.671  16.565  0.4909 -1.4991  0.8266
16499TIP3    H270989   5.560   0.651  16.480  1.5491 -1.5444 -0.7407
16500TIP3   OH270990   2.596   4.770   1.902 -0.0364 -0.0110 -0.2580
16500TIP3    H170991   2.621   4.838   1.964  0.6274 -0.5288  0.0516
16500TIP3    H270992   2.513   4.736   1.936 -0.5737  0.8897 -0.6274
16501TIP3   OH270993   3.692   6.206   6.765 -0.2479  0.6199 -0.0352
16501TIP3    H170994   3.758   6.269   6.793 -0.2297  0.1092  1.1445
16501TIP3    H270995   3.627   6.207   6.836  0.0756 -1.1182  0.3388
16502TIP3   OH270996   2.024   0.935   5.646  0.4059  0.0042  0.5848
16502TIP3    H170997   2.108   0.898   5.673  0.5041  0.5791  1.0850
16502TIP3    H270998   1.963   0.910   5.716  0.0083 -0.9073 -0.0525
16503TIP3   OH270999   0.273   6.101   2.663 -0.9405  0.2732  0.5785
16503TIP3    H171000   0.341   6.151   2.617  1.4195 -2.4821  0.7770
16503TIP3    H271001   0.191   6.137   2.631  0.5945  1.5777 -2.2670
16504TIP3   OH271002   4.491   0.002   5.166 -0.2117  0.1097  0.2727
16504TIP3    H171003   4.482   0.072   5.102  0.4221  0.8343  0.9501
16504TIP3    H271004   4.444   0.033   5.243 -0.2280 -0.3712  0.4618
16505TIP3   OH271005   2.034   4.914   0.257  0.1132  0.6987  0.8246
16505TIP3    H171006   2.128   4.921   0.244 -0.0616 -1.0692 -2.3951
16505TIP3    H271007   2.021   4.827   0.294 -0.2658  0.7936  0.9218
16506TIP3   OH271008   1.698   6.251   4.692  0.1255  0.2792  0.0687
16506TIP3    H171009   1.765   6.238   4.758  0.8724  2.9888 -0.0123
16506TIP3    H271010   1.633   6.308   4.734 -0.8435 -0.2485 -0.6592
16507TIP3   OH271011   0.827   3.878  12.033  0.1198 -0.5278 -0.2443
16507TIP3    H171012   0.840   3.868  12.127 -0.2234 -0.5498 -0.2002
16507TIP3    H271013   0.913   3.858  11.995  0.7309  1.1291  0.1676
16508TIP3   OH271014   1.897   3.563   5.743 -0.4211 -0.2249  0.0377
16508TIP3    H171015   1.859   3.638   5.697 -2.6268 -1.0186  0.4670
16508TIP3    H271016   1.942   3.514   5.674 -0.9891  0.2534 -0.7004
16509TIP3   OH271017   0.332   3.993  14.240  0.2420 -0.2995 -0.0365
16509TIP3    H171018   0.325   4.077  14.286  1.1524  0.0311 -0.4844
16509TIP3    H271019   0.282   3.932  14.294 -0.9638  0.6556 -0.0251
16510TIP3   OH271020   5.013   4.901   1.546 -0.1613 -0.3509 -0.1754
16510TIP3    H171021   5.099   4.937   1.521 -0.7232  1.1038 -0.1147
16510TIP3    H271022   5.033   4.814   1.580  1.3723  0.1888  0.4034
16511TIP3   OH271023   3.359   2.368  15.446  0.0485  0.4933 -0.0110
16511TIP3    H171024   3.271   2.345  15.416  0.1668 -0.3828  0.2850
16511TIP3    H271025   3.345   2.440  15.507 -0.6485 -0.6446  1.2392
16512TIP3   OH271026   0.781   1.056   4.191  0.3122  0.6175 -0.1906
16512TIP3    H171027   0.778   1.081   4.098 -0.2108 -1.6516 -0.8504
16512TIP3    H271028   0.872   1.030   4.205  0.0665 -0.4600 -0.5081
16513TIP3   OH271029   5.477   5.796  11.308  0.3157 -0.4791 -0.3203
16513TIP3    H171030   5.482   5.722  11.368 -1.2844  0.8972  1.6695
16513TIP3    H271031   5.452   5.757  11.224 -1.5331 -2.1568  0.9011
16514TIP3   OH271032   2.279   2.867   0.173  0.4148 -0.1339 -0.7430
16514TIP3    H171033   2.335   2.793   0.151 -0.2458 -1.1001  0.6141
16514TIP3    H271034   2.190   2.835   0.158  0.1322  0.4497 -0.3608
16515TIP3   OH271035   6.542   3.625  14.138 -0.3504  0.0627  0.1633
16515TIP3    H171036   6.625   3.598  14.177 -1.0101 -2.3194  0.0609
16515TIP3    H271037   6.486   3.647  14.212 -0.3233 -0.5382  0.3706
16516TIP3   OH271038   4.540   2.106   2.104  0.3001 -0.0735  0.1309
16516TIP3    H171039   4.497   2.191   2.090 -1.0946 -0.6777  0.5944
16516TIP3    H271040   4.470   2.047   2.130  0.8612 -1.9155 -2.1161
16517TIP3   OH271041   1.116   6.740   3.645 -0.1105  0.2577  0.1193
16517TIP3    H171042   1.111   6.646   3.626  1.7558 -0.2368  1.7381
16517TIP3    H271043   1.069   6.781   3.572 -0.2625 -1.8654 -1.0863
16518TIP3   OH271044   2.319   4.633   0.964 -0.0720 -0.0164 -0.1136
16518TIP3    H171045   2.340   4.615   1.056  0.2940  0.7468 -0.0412
16518TIP3    H271046   2.281   4.551   0.932  0.2040 -0.4341  0.5958
16519TIP3   OH271047   6.803   0.261   0.078  0.3837 -0.3169  0.3303
16519TIP3    H171048   6.846   0.335   0.036 -0.6991  0.8019  1.1228
16519TIP3    H271049   6.875   0.207   0.111  1.2438 -0.9070 -2.3223
16520TIP3   OH271050   2.280   0.931   5.013  0.4694  0.0811  0.1153
16520TIP3    H171051   2.355   0.884   4.977  0.5945  1.5676 -1.7593
16520TIP3    H271052   2.204   0.877   4.990  0.7549 -0.0987 -0.4262
16521TIP3   OH271053   0.345   0.199   5.179  0.1658 -0.0445  0.2406
16521TIP3    H171054   0.339   0.180   5.085 -0.0490 -2.3157  0.6699
16521TIP3    H271055   0.438   0.190   5.199  0.2354  0.5992  0.2500
16522TIP3   OH271056   0.218   6.312  14.959 -0.5794 -0.4915 -0.2004
16522TIP3    H171057   0.238   6.394  14.915  0.9806 -0.4021  0.5943
16522TIP3    H271058   0.270   6.246  14.912  1.3736 -0.3438  1.5910
16523TIP3   OH271059   6.210   0.214  13.256 -0.4778 -0.1733  0.0456
16523TIP3    H171060   6.298   0.186  13.281  0.3228  0.9637 -1.3275
16523TIP3    H271061   6.177   0.141  13.203 -0.6637 -0.9139  1.1577
16524TIP3   OH271062   3.661   5.535   5.151 -0.2656  0.0697 -0.3785
16524TIP3    H171063   3.624   5.622   5.160  0.2575  0.0575  3.2626
16524TIP3    H271064   3.736   5.546   5.092 -0.2697  2.0502 -0.0624
16525TIP3   OH271065   3.277   4.392   5.789 -0.0440  0.0750  0.1951
16525TIP3    H171066   3.275   4.471   5.735 -0.7717 -0.8396 -1.2026
16525TIP3    H271067   3.345   4.338   5.749 -0.0038 -0.2756  0.7314
16526TIP3   OH271068   6.455   2.584  12.291  0.2290 -0.4243  0.2524
16526TIP3    H171069   6.366   2.582  12.256  0.2482  2.4838 -0.2342
16526TIP3    H271070   6.444   2.606  12.383  0.4099  0.4951  0.0704
16527TIP3   OH271071   1.324   4.244  13.560  0.0839  0.0990 -0.2276
16527TIP3    H171072   1.327   4.275  13.470 -0.2727  0.1812 -0.2128
16527TIP3    H271073   1.273   4.310  13.607  0.1939  0.0141  0.0154
16528TIP3   OH271074   4.637   3.486   3.042 -0.1063  0.0584 -0.0058
16528TIP3    H171075   4.617   3.542   2.967 -2.2827 -0.2007  0.3093
16528TIP3    H271076   4.658   3.547   3.113  0.4076  0.3513 -0.4000
16529TIP3   OH271077   4.454   4.078   3.507 -0.6439  0.0021  0.3605
16529TIP3    H171078   4.391   4.049   3.573 -1.7442  0.9223 -0.2519
16529TIP3    H271079   4.455   4.173   3.515 -1.3443  0.2019 -1.3976
16530TIP3   OH271080   6.003   4.060   2.080 -0.1754 -0.5641 -0.6947
16530TIP3    H171081   5.954   4.111   2.015 -0.7750 -0.1455  0.0647
16530TIP3    H271082   5.971   4.093   2.165  1.2984 -0.3982 -0.1784
16531TIP3   OH271083   2.287   6.449   3.431  0.3887  0.2720  0.0375
16531TIP3    H171084   2.217   6.475   3.491 -1.2297 -1.5791 -0.9374
16531TIP3    H271085   2.311   6.531   3.386 -0.2887  1.1591  1.2318
16532TIP3   OH271086   4.846   0.505  17.113  0.1981  0.0600  0.2175
16532TIP3    H171087   4.940   0.514  17.130  0.4315  1.5331 -1.5781
16532TIP3    H271088   4.806   0.574  17.167  0.2354 -0.0262  0.3548
16533TIP3   OH271089   1.641   6.190  15.059 -0.4717  0.4977  0.4201
16533TIP3    H171090   1.612   6.101  15.040 -0.9656  0.6000  0.6805
16533TIP3    H271091   1.737   6.184  15.066 -0.5287 -0.0601  0.7062
16534TIP3   OH271092   1.770   5.432   0.965  0.2292  0.2339 -0.0761
16534TIP3    H171093   1.715   5.473   1.032  0.1722  0.3922 -0.2201
16534TIP3    H271094   1.836   5.498   0.944  2.0198 -0.7973  1.8630
16535TIP3   OH271095   4.645   3.316  16.759 -0.4991 -0.3388  0.4089
16535TIP3    H171096   4.573   3.277  16.808  0.8767 -1.1760  1.8729
16535TIP3    H271097   4.680   3.383  16.818  3.1028 -3.3625  2.1428
16536TIP3   OH271098   4.228   2.762   5.287 -0.0460 -0.2343 -0.1228
16536TIP3    H171099   4.251   2.712   5.365  0.6949 -0.7900 -0.6786
16536TIP3    H271100   4.303   2.820   5.272 -0.6905  0.7190  0.2383
16537TIP3   OH271101   3.981   3.732  15.656 -0.2548  0.7210 -0.4258
16537TIP3    H171102   3.922   3.657  15.652  0.4443  0.1237  0.2542
16537TIP3    H271103   4.049   3.706  15.719 -0.7926  2.4713  0.9659
16538TIP3   OH271104   1.122   0.095   5.774 -0.4964  0.0278  0.7199
16538TIP3    H171105   1.092   0.178   5.813  2.7954  0.5938  2.3616
16538TIP3    H271106   1.160   0.121   5.690  1.0817  0.3809  1.4957
16539TIP3   OH271107   6.564   0.613   5.543 -0.0723 -0.1359 -0.5554
16539TIP3    H171108   6.633   0.552   5.568 -0.2211 -0.5281 -1.0673
16539TIP3    H271109   6.601   0.700   5.559 -0.5040 -0.3365  1.9210
16540TIP3   OH271110   3.911   0.180  12.388 -0.0830 -0.2824  0.6141
16540TIP3    H171111   3.995   0.185  12.434  0.7709 -1.3238 -0.7650
16540TIP3    H271112   3.865   0.261  12.413  1.2909  0.2688  1.4480
16541TIP3   OH271113   1.028   5.681   3.911 -0.3546  0.2351 -0.1573
16541TIP3    H171114   1.034   5.666   4.005  0.0182  0.1111 -0.1987
16541TIP3    H271115   1.083   5.613   3.872 -0.0293  0.6490 -0.4323
16542TIP3   OH271116   6.807   3.641  13.652  0.3894 -0.0308 -0.5256
16542TIP3    H171117   6.821   3.546  13.653 -2.4115 -0.7892  4.9090
16542TIP3    H271118   6.729   3.654  13.599 -0.1753 -1.0763  0.0138
16543TIP3   OH271119   5.719   4.740   0.210 -0.7683 -0.7517  0.0114
16543TIP3    H171120   5.633   4.750   0.169 -0.7438  0.4120  0.2126
16543TIP3    H271121   5.772   4.809   0.172  0.1766 -1.6493 -0.3254
16544TIP3   OH271122   0.428   0.182   4.895 -0.5182  0.7069  0.0052
16544TIP3    H171123   0.501   0.238   4.869 -1.5094  0.5820 -3.5477
16544TIP3    H271124   0.470   0.102   4.928  1.0015  0.8106 -1.5297
16545TIP3   OH271125   2.589   5.538  16.123  0.0824 -0.3746 -0.2067
16545TIP3    H171126   2.585   5.615  16.067 -0.3951  0.2431  0.6579
16545TIP3    H271127   2.658   5.484  16.084 -2.5633 -1.6788 -3.4890
16546TIP3   OH271128   2.219   2.436  16.875 -0.1997 -0.4567  0.3093
16546TIP3    H171129   2.257   2.386  16.803 -0.2127 -1.4287  0.9546
16546TIP3    H271130   2.247   2.526  16.859 -0.2431 -0.6411 -0.9252
16547TIP3   OH271131   6.120   1.589  10.353 -0.2975 -0.1054  0.1078
16547TIP3    H171132   6.141   1.625  10.267 -0.1268 -0.1856  0.1141
16547TIP3    H271133   6.054   1.648  10.388  0.2817  0.4514  0.2930
16548TIP3   OH271134   6.309   6.739  16.424  0.1933 -0.4169 -0.0785
16548TIP3    H171135   6.283   6.707  16.510  1.2611  3.9436  2.1604
16548TIP3    H271136   6.231   6.783  16.390  0.7085  0.8282  0.3052
16549TIP3   OH271137   3.041   3.990  11.229 -0.0772 -0.2237 -0.4523
16549TIP3    H171138   3.073   4.051  11.163 -0.2348  1.4881  0.9854
16549TIP3    H271139   2.946   3.990  11.218 -0.0697 -0.3211 -0.5253
16550TIP3   OH271140   4.173   1.553   0.746  0.4554 -0.1452  0.2802
16550TIP3    H171141   4.120   1.496   0.690  2.4286 -1.1198 -0.7097
16550TIP3    H271142   4.222   1.607   0.685  1.4999 -0.1334  1.1105
16551TIP3   OH271143   0.147   2.679  12.023  0.0776 -0.0304 -0.2704
16551TIP3    H171144   0.069   2.637  11.987 -0.0451  0.9541 -1.2212
16551TIP3    H271145   0.210   2.678  11.952 -0.6025  3.0972 -1.0714
16552TIP3   OH271146   6.807   5.530   2.225  0.1764 -0.0627 -0.2982
16552TIP3    H171147   6.824   5.516   2.132  1.2038 -0.4737 -0.0646
16552TIP3    H271148   6.787   5.443   2.260  3.9262 -0.7160  0.6338
16553TIP3   OH271149   3.106   0.853  14.018  0.1678  0.0882  0.0789
16553TIP3    H171150   3.172   0.919  13.997  0.3398  0.3082  1.2444
16553TIP3    H271151   3.153   0.788  14.070 -1.1310  1.9470  3.9653
16554TIP3   OH271152   2.364   0.144  11.799 -0.3177  0.2813 -0.0447
16554TIP3    H171153   2.274   0.110  11.800 -0.1173 -0.2578  0.1355
16554TIP3    H271154   2.418   0.069  11.777  0.0948  0.6019 -0.1426
16555TIP3   OH271155   3.159   0.658   2.305 -1.0342  0.1595 -0.2836
16555TIP3    H171156   3.185   0.715   2.233 -1.3354  0.6000 -0.0510
16555TIP3    H271157   3.199   0.573   2.285 -0.4828  0.4843 -0.5732
16556TIP3   OH271158   1.684   1.098  11.803  0.0749 -0.5524  0.6787
16556TIP3    H171159   1.705   1.181  11.845 -0.1867 -0.4336  0.5769
16556TIP3    H271160   1.735   1.033  11.851 -1.6765 -0.6892  2.4372
16557TIP3   OH271161   0.907   1.393  11.670 -0.1272 -0.6656 -0.0613
16557TIP3    H171162   0.959   1.447  11.730  0.1617  1.1757 -1.8887
16557TIP3    H271163   0.930   1.303  11.694  3.4686  0.0287 -0.3556
16558TIP3   OH271164   0.301   5.384  15.834  0.1802  0.2296  0.5963
16558TIP3    H171165   0.249   5.459  15.865  0.4672  1.3038 -1.3777
16558TIP3    H271166   0.237   5.328  15.789 -0.0169 -0.7255  1.9892
16559TIP3   OH271167   3.937   5.829  10.724 -0.0103  0.0312  0.4253
16559TIP3    H171168   3.995   5.871  10.788  1.5006 -0.3535 -0.6408
16559TIP3    H271169   3.971   5.739  10.717 -1.3065 -0.4771  0.4261
16560TIP3   OH271170   2.537   2.018  12.597 -0.0387 -0.1472 -0.1346
16560TIP3    H171171   2.481   1.940  12.593 -0.7666  0.4040 -1.7590
16560TIP3    H271172   2.508   2.064  12.676 -1.0298 -0.5060 -0.2748
16561TIP3   OH271173   1.454   6.185   1.486  0.7952  0.5072 -0.3216
16561TIP3    H171174   1.463   6.272   1.524 -0.0127  0.5833 -0.2978
16561TIP3    H271175   1.364   6.182   1.453 -0.0775 -1.2070  1.9406
16562TIP3   OH271176   5.782   1.287   1.720 -0.2650 -0.1872  0.4746
16562TIP3    H171177   5.728   1.361   1.696 -1.6784 -1.3983 -0.2429
16562TIP3    H271178   5.746   1.213   1.670  2.1256 -1.0415 -0.1265
16563TIP3   OH271179   0.641   2.797   1.898 -0.1978  0.5798 -0.4381
16563TIP3    H171180   0.642   2.892   1.905  0.1111  0.6556 -1.4489
16563TIP3    H271181   0.580   2.779   1.826 -1.4614 -0.0651  0.7317
16564TIP3   OH271182   4.034   3.307   3.553  0.0987  0.0211 -0.3697
16564TIP3    H171183   4.062   3.249   3.624  1.6153  0.5280 -0.4943
16564TIP3    H271184   3.947   3.276   3.528 -0.0238 -0.8209  1.0060
16565TIP3   OH271185   2.430   1.225   2.669  0.4795 -0.5848 -0.1461
16565TIP3    H171186   2.351   1.198   2.717 -0.2704  0.5127 -0.7061
16565TIP3    H271187   2.407   1.214   2.577  0.4175  1.0905 -0.3741
16566TIP3   OH271188   6.674   4.264  16.551 -0.4903  0.3653 -0.0445
16566TIP3    H171189   6.673   4.208  16.628  1.9304 -0.4047 -0.4828
16566TIP3    H271190   6.764   4.257  16.518 -0.4297  3.5138 -0.8522
16567TIP3   OH271191   2.644   4.615   0.973 -0.4089 -0.1623  0.3256
16567TIP3    H171192   2.692   4.544   1.015 -1.1499 -0.9644 -0.1405
16567TIP3    H271193   2.575   4.638   1.035 -0.5675 -0.3115  0.2093
16568TIP3   OH271194   3.037   5.822   0.432  0.1569 -0.1378  0.5929
16568TIP3    H171195   3.019   5.849   0.522 -1.8616  1.2781 -0.1658
16568TIP3    H271196   3.132   5.815   0.428  0.5165  2.5235  2.1082
16569TIP3   OH271197   2.904   1.478   1.821  0.3966 -0.0035  0.3312
16569TIP3    H171198   2.816   1.498   1.854  0.1624 -0.2896 -0.1108
16569TIP3    H271199   2.903   1.383   1.807  1.0749 -0.1422  1.1845
16570TIP3   OH271200   3.868   3.882  11.544 -0.3828  0.1570 -0.0425
16570TIP3    H171201   3.960   3.897  11.521  1.5906 -3.9129  3.5815
16570TIP3    H271202   3.832   3.835  11.469  1.4728 -0.7317 -0.4496
16571TIP3   OH271203   2.574   3.701   3.084 -0.2335  0.4724  0.4419
16571TIP3    H171204   2.661   3.666   3.065 -0.3951 -0.2713  1.0144
16571TIP3    H271205   2.581   3.795   3.065  0.0275  0.0522 -1.7855
16572TIP3   OH271206   1.234   6.316  11.238  0.5467 -0.1270 -0.5410
16572TIP3    H171207   1.162   6.274  11.285  2.3588 -1.4207  1.2606
16572TIP3    H271208   1.249   6.397  11.287 -0.3763  0.7069 -1.6029
16573TIP3   OH271209   5.265   4.134  15.233  0.1119 -0.1604 -0.4250
16573TIP3    H171210   5.190   4.084  15.265  0.1272 -1.9918 -2.9288
16573TIP3    H271211   5.228   4.193  15.167  0.4361  1.6276  0.9097
16574TIP3   OH271212   5.803   1.085  14.574  0.1588  0.1709  0.5968
16574TIP3    H171213   5.830   1.177  14.577 -1.6594  0.8648 -1.5305
16574TIP3    H271214   5.885   1.035  14.575  1.3285  1.9370 -1.0365
16575TIP3   OH271215   6.757   4.699  15.899  0.0203 -0.1872  0.1057
16575TIP3    H171216   6.793   4.625  15.851  1.1999 -0.1708  0.9180
16575TIP3    H271217   6.787   4.776  15.851 -1.9462 -0.1925 -1.2566
16576TIP3   OH271218   0.706   5.135  12.494 -0.1459  0.1265  0.2958
16576TIP3    H171219   0.737   5.058  12.446  1.0816  0.9174 -0.2537
16576TIP3    H271220   0.624   5.159  12.451 -1.8744 -2.2306  2.0038
16577TIP3   OH271221   2.446   4.057  12.581  0.2260  0.1315 -0.3042
16577TIP3    H171222   2.539   4.080  12.589 -0.0080  0.4157  2.4371
16577TIP3    H271223   2.422   4.022  12.667 -2.5860  1.5084 -0.4216
16578TIP3   OH271224   4.591   4.185   5.274 -0.4724  0.5581  0.1532
16578TIP3    H171225   4.579   4.235   5.193 -1.6081  0.5430  0.2910
16578TIP3    H271226   4.506   4.142   5.287  0.4135 -1.2514  0.1362
16579TIP3   OH271227   3.714   5.757   1.913  0.4328  0.6571 -0.2920
16579TIP3    H171228   3.651   5.707   1.966  0.8791 -1.9673 -2.0306
16579TIP3    H271229   3.665   5.834   1.884 -0.7964  0.5464  1.3402
16580TIP3   OH271230   0.015   6.271  15.666 -0.2002 -0.0513  0.7313
16580TIP3    H171231  -0.027   6.192  15.701  0.4571 -1.3827 -1.3477
16580TIP3    H271232  -0.028   6.286  15.582 -0.8763  2.3353  1.4313
16581TIP3   OH271233   6.210   0.913   2.834  0.7106 -0.2052  0.0158
16581TIP3    H171234   6.124   0.950   2.813  1.2331  1.6847  1.0323
16581TIP3    H271235   6.195   0.860   2.913  0.6504  0.9982  0.8349
16582TIP3   OH271236   2.409   2.155   4.679  0.1052 -0.4896 -0.1878
16582TIP3    H171237   2.407   2.090   4.749 -0.5187 -0.3953 -0.1073
16582TIP3    H271238   2.406   2.104   4.598  0.2409 -0.5810 -0.1351
16583TIP3   OH271239   2.749   2.846  17.022  0.8698  0.1713  0.9062
16583TIP3    H171240   2.690   2.912  16.986  1.1335  1.4793  2.7309
16583TIP3    H271241   2.693   2.770  17.038 -0.2148  1.1432  1.9326
16584TIP3   OH271242   0.446   1.169  12.157 -0.2718 -0.3771 -1.1402
16584TIP3    H171243   0.527   1.135  12.119 -0.9089 -1.1207 -1.8629
16584TIP3    H271244   0.408   1.094  12.204  0.3985  0.4622  0.8484
16585TIP3   OH271245   5.379   2.524   0.368  0.4835  0.5584 -0.0289
16585TIP3    H171246   5.375   2.453   0.431  0.3295  0.7630  0.1910
16585TIP3    H271247   5.454   2.502   0.312  1.1985  0.8394  0.7852
16586TIP3   OH271248   0.810   0.206  12.763  0.1736 -0.2302 -0.2593
16586TIP3    H171249   0.797   0.111  12.766  1.8648 -0.4963  2.0953
16586TIP3    H271250   0.799   0.234  12.854  1.4946  1.5301 -0.5883
16587TIP3   OH271251   4.911   5.911   1.631  0.4011  0.4212  0.4252
16587TIP3    H171252   4.868   5.882   1.711  0.2337  0.9806  0.5484
16587TIP3    H271253   5.004   5.894   1.647  0.3993  0.7688  0.8544
16588TIP3   OH271254   4.260   3.443   4.900 -0.4163  0.0747  0.1883
16588TIP3    H171255   4.225   3.502   4.966 -0.9538  1.2121 -1.0647
16588TIP3    H271256   4.318   3.498   4.847 -0.3277 -0.7013 -0.5385
16589TIP3   OH271257   3.478   2.547  12.500  0.1650 -0.3285  0.2822
16589TIP3    H171258   3.424   2.555  12.422  0.1540  2.5144  0.5048
16589TIP3    H271259   3.560   2.509  12.468 -0.1642 -0.0628 -0.9266
16590TIP3   OH271260   6.245   4.149  11.712 -0.0326 -0.1525 -0.0323
16590TIP3    H171261   6.221   4.057  11.696 -0.0022 -0.1817  0.0904
16590TIP3    H271262   6.189   4.176  11.784  1.3611 -0.6779  1.2887
16591TIP3   OH271263   4.196   5.484   6.704  0.3613 -0.0171  0.3677
16591TIP3    H171264   4.176   5.391   6.695  1.1455 -0.1028 -0.7688
16591TIP3    H271265   4.291   5.486   6.719  0.4802  0.6243 -0.4281
16592TIP3   OH271266   3.282   1.603  16.097  0.3799  0.9957 -0.7180
16592TIP3    H171267   3.290   1.609  16.001  0.7592 -0.5601 -0.8066
16592TIP3    H271268   3.220   1.532  16.112 -0.0362  1.5337  0.2068
16593TIP3   OH271269   3.937   3.314  14.643  0.2014  0.2311 -0.3831
16593TIP3    H171270   3.956   3.408  14.641 -0.2632  0.3592  0.7849
16593TIP3    H271271   4.001   3.277  14.704  0.5223 -0.2549 -1.0001
16594TIP3   OH271272   5.582   5.713  16.917 -0.3750 -0.1125 -0.5388
16594TIP3    H171273   5.564   5.773  16.989 -1.1415 -0.1781 -0.6720
16594TIP3    H271274   5.666   5.742  16.882 -0.3927  0.4278 -0.1384
16595TIP3   OH271275   3.940   4.869  13.226 -0.5098 -0.3561  0.0394
16595TIP3    H171276   3.960   4.918  13.147  0.7661  0.8793  1.0833
16595TIP3    H271277   3.844   4.859  13.224 -0.3712 -2.1298 -2.6056
16596TIP3   OH271278   1.873   4.529  14.897  0.3506 -0.0403 -0.4217
16596TIP3    H171279   1.850   4.475  14.972  0.5505  2.0932  1.2956
16596TIP3    H271280   1.790   4.566  14.867  0.5668  1.6755  0.9205
16597TIP3   OH271281   2.555   5.110   4.460 -0.3147 -0.3081  0.2845
16597TIP3    H171282   2.523   5.175   4.524  0.5849 -1.1158  1.6098
16597TIP3    H271283   2.475   5.077   4.419 -0.9394  0.1673  1.0605
16598TIP3   OH271284   1.465   4.830   4.926  0.6231  0.1133  0.5342
16598TIP3    H171285   1.475   4.749   4.876 -0.7933  0.8440 -1.0170
16598TIP3    H271286   1.535   4.827   4.990  1.4892 -1.6607 -0.4235
16599TIP3   OH271287   4.108   4.686   1.864  0.1027  0.4985 -0.3243
16599TIP3    H171288   4.065   4.680   1.779  1.8748  1.5328 -1.3526
16599TIP3    H271289   4.055   4.750   1.913 -0.0251  1.1141 -1.2460
16600TIP3   OH271290   4.033   6.391  13.098  0.1317  0.6134  0.2821
16600TIP3    H171291   4.086   6.437  13.033 -2.2310 -1.3668 -3.3773
16600TIP3    H271292   3.967   6.454  13.125  0.7858  1.2796  0.3598
16601TIP3   OH271293   5.213   5.972  12.187  0.5011 -0.1550 -0.1790
16601TIP3    H171294   5.226   6.067  12.180 -0.4355 -0.0947 -1.2485
16601TIP3    H271295   5.301   5.935  12.178  0.9604  0.6256  0.8720
16602TIP3   OH271296   5.369   3.323   1.306 -0.3743 -0.1073  0.1537
16602TIP3    H171297   5.310   3.247   1.315 -1.3008  0.4695 -0.8602
16602TIP3    H271298   5.413   3.329   1.391  0.2234 -2.1788  0.0533
16603TIP3   OH271299   6.026   2.494  16.802  0.1704 -0.0510  0.5888
16603TIP3    H171300   6.087   2.420  16.810  0.1831 -0.0548  0.4647
16603TIP3    H271301   6.083   2.570  16.787  0.0985 -0.2205 -0.6353
16604TIP3   OH271302   5.229   3.820  16.639  0.4180 -0.1572  0.0267
16604TIP3    H171303   5.274   3.745  16.600  0.5268  0.2295 -0.6056
16604TIP3    H271304   5.286   3.847  16.711  0.8298 -0.1294 -0.3079
16605TIP3   OH271305   0.349   2.523   2.132 -0.6967 -0.0425  0.0939
16605TIP3    H171306   0.416   2.583   2.165 -1.3266 -0.0961  1.5505
16605TIP3    H271307   0.391   2.477   2.060  0.4429  0.7634  0.2214
16606TIP3   OH271308   3.200   6.579   5.604 -0.0756 -0.1946  0.2706
16606TIP3    H171309   3.143   6.567   5.680  2.1651 -0.8482  1.9716
16606TIP3    H271310   3.271   6.634   5.636  0.9034 -0.4245 -1.3758
16607TIP3   OH271311   0.523   0.156  17.001 -0.1128 -0.6315 -0.2319
16607TIP3    H171312   0.527   0.243  16.961  0.6242  1.6789  4.1803
16607TIP3    H271313   0.571   0.100  16.941  1.1474  2.4580 -2.3859
16608TIP3   OH271314   1.535   3.642   6.067  0.0136 -0.3976 -0.0625
16608TIP3    H171315   1.566   3.732   6.056  0.0999 -0.4942 -0.6620
16608TIP3    H271316   1.535   3.606   5.978  2.3428 -1.7843  0.4100
16609TIP3   OH271317   3.169   1.408   3.066 -0.5574 -0.6119  0.7075
16609TIP3    H171318   3.240   1.456   3.109  0.1547  0.3985 -1.4175
16609TIP3    H271319   3.089   1.454   3.092 -0.2153 -0.3807  1.3685
16610TIP3   OH271320   1.825   0.461  11.515 -0.2118  0.5272 -0.1433
16610TIP3    H171321   1.807   0.517  11.440  3.0766  1.3947 -0.4437
16610TIP3    H271322   1.754   0.478  11.576 -0.9170  2.7397 -1.4784
16611TIP3   OH271323   5.626   6.251   0.659  0.1453 -0.0836 -0.5376
16611TIP3    H171324   5.633   6.157   0.675  0.3942  0.0664  0.2541
16611TIP3    H271325   5.646   6.292   0.743  1.9007  0.7488 -1.2969
16612TIP3   OH271326   1.826   2.935  11.755  0.1915 -0.7343 -0.8165
16612TIP3    H171327   1.822   2.969  11.666 -1.4896  0.3102 -0.3901
16612TIP3    H271328   1.817   2.841  11.745 -0.4563 -0.5922 -1.7330
16613TIP3   OH271329   1.376   4.644  12.570 -0.2103 -0.2064  0.4196
16613TIP3    H171330   1.470   4.646  12.550 -0.2094 -1.2867  0.2785
16613TIP3    H271331   1.364   4.716  12.632  0.2652  1.5386 -1.3815
16614TIP3   OH271332   3.518   6.367  11.853  0.5048  0.1067  0.4747
16614TIP3    H171333   3.455   6.296  11.868 -0.4149  0.9417  0.6969
16614TIP3    H271334   3.563   6.377  11.937 -1.0020  1.3112  1.1911
16615TIP3   OH271335   4.235   1.586  16.600 -0.9766  0.2831 -0.2241
16615TIP3    H171336   4.187   1.533  16.536  1.2722 -0.2649 -1.5675
16615TIP3    H271337   4.290   1.642  16.547  0.0718  0.6935  1.2475
16616TIP3   OH271338   6.585   6.067  12.637 -0.2544  0.4280  0.1096
16616TIP3    H171339   6.587   6.006  12.711 -0.8092  0.4551  0.1501
16616TIP3    H271340   6.677   6.080  12.615 -0.1272 -2.1001 -1.2980
16617TIP3   OH271341   3.851   0.191  16.210  0.5088 -0.2608 -0.2045
16617TIP3    H171342   3.857   0.115  16.267  2.1996  0.0044  0.0158
16617TIP3    H271343   3.903   0.168  16.133  1.4767  0.8317  0.0908
16618TIP3   OH271344   5.671   4.327  12.175  0.1934 -0.0411 -0.0389
16618TIP3    H171345   5.619   4.247  12.163  0.7630 -0.5027  0.5121
16618TIP3    H271346   5.758   4.296  12.199  1.0249  0.6804 -1.8531
16619TIP3   OH271347   2.510   4.190   1.795  0.1376 -0.5190 -0.0395
16619TIP3    H171348   2.552   4.131   1.857  1.6708  1.1367  0.5797
16619TIP3    H271349   2.573   4.200   1.724 -1.3548 -1.9292 -1.6679
16620TIP3   OH271350   1.025   0.838  17.128 -0.0022 -0.1842  0.4592
16620TIP3    H171351   0.932   0.854  17.113  0.1038  0.2547  0.2702
16620TIP3    H271352   1.027   0.764  17.189 -0.4471 -1.2718 -0.7953
16621TIP3   OH271353   6.471   2.743   3.292  0.2256  0.2266 -0.1278
16621TIP3    H171354   6.377   2.753   3.282  0.0348 -1.6299 -0.5863
16621TIP3    H271355   6.483   2.715   3.383  0.0852 -1.5311 -0.6025
16622TIP3   OH271356   4.455   1.692   3.392 -0.3275 -0.2791  0.0475
16622TIP3    H171357   4.495   1.606   3.406 -3.7074 -1.9843  0.3600
16622TIP3    H271358   4.417   1.686   3.304  0.4086  1.4199 -0.4242
16623TIP3   OH271359   3.574   6.501  13.914  0.0239 -0.8882  0.1286
16623TIP3    H171360   3.598   6.575  13.969  0.6993 -0.2370 -1.0217
16623TIP3    H271361   3.624   6.512  13.833 -1.3152 -1.5360 -0.8455
16624TIP3   OH271362   2.978   3.915  12.584  0.0147  0.3198 -0.1952
16624TIP3    H171363   2.949   4.004  12.564  0.9612  1.0929  1.6437
16624TIP3    H271364   2.972   3.909  12.679 -1.2759 -2.0664 -0.3688
16625TIP3   OH271365   2.085   1.439   3.407  0.4297  0.0292  0.2961
16625TIP3    H171366   2.135   1.359   3.389  0.7564  0.2153  0.3649
16625TIP3    H271367   1.993   1.412   3.400  0.5273 -0.4882  0.9284
16626TIP3   OH271368   3.744   0.415  13.638  0.2885  0.1095  0.0563
16626TIP3    H171369   3.672   0.464  13.678  0.1273 -0.0142 -0.0778
16626TIP3    H271370   3.768   0.350  13.704  1.8979  1.6804  1.0872
16627TIP3   OH271371   1.647   3.000  16.564  0.3263 -0.5394 -1.0998
16627TIP3    H171372   1.554   2.982  16.578  0.0935  0.4726 -1.2729
16627TIP3    H271373   1.649   3.064  16.493  0.9035  2.2446  1.2366
16628TIP3   OH271374   3.865   6.643   2.601 -0.1555 -0.0511  0.0411
16628TIP3    H171375   3.897   6.665   2.513 -0.6970 -2.1255 -0.7463
16628TIP3    H271376   3.915   6.700   2.659 -0.9250  2.5702 -1.6661
16629TIP3   OH271377   6.285   5.348   4.512 -0.3454  0.0205 -0.0440
16629TIP3    H171378   6.229   5.367   4.587 -2.2050 -0.5593 -1.2129
16629TIP3    H271379   6.319   5.434   4.485 -0.3077  0.3276  0.9547
16630TIP3   OH271380   5.184   0.514   4.691 -0.2885 -0.3947 -0.6348
16630TIP3    H171381   5.098   0.552   4.672 -0.0579  0.3851 -0.1769
16630TIP3    H271382   5.166   0.423   4.714 -1.0689 -0.0471  0.1669
16631TIP3   OH271383   1.085   2.453   2.586 -0.1502  0.1720 -0.8315
16631TIP3    H171384   1.174   2.446   2.619 -0.1290  0.2987 -0.8614
16631TIP3    H271385   1.030   2.455   2.664 -0.1506 -0.2220 -0.8191
16632TIP3   OH271386   2.773   0.027   1.215  0.2637  0.0390 -0.2904
16632TIP3    H171387   2.758   0.058   1.126  2.2240  0.6825 -0.4467
16632TIP3    H271388   2.689   0.038   1.259 -0.4362  0.7779 -1.7424
16633TIP3   OH271389   3.526   2.852   4.178  0.5707 -0.1094 -0.0774
16633TIP3    H171390   3.501   2.889   4.263  1.6644  2.6995 -0.8492
16633TIP3    H271391   3.527   2.927   4.119  2.0714 -1.5854 -2.0637
16634TIP3   OH271392   5.699   0.145  12.937  0.3173 -0.5694  0.3095
16634TIP3    H171393   5.660   0.227  12.969 -1.7012 -0.9081 -1.1227
16634TIP3    H271394   5.782   0.139  12.984  0.4819  2.2394  0.5452
16635TIP3   OH271395   1.510   5.154  14.760  0.1173 -0.1404 -0.0292
16635TIP3    H171396   1.594   5.119  14.790  0.4801  1.6165  1.1722
16635TIP3    H271397   1.518   5.248  14.771 -2.1945  0.0591  0.6068
16636TIP3   OH271398   0.235   3.079  15.642  0.1561  0.2558  0.0807
16636TIP3    H171399   0.248   3.106  15.733  1.7391 -1.6002  0.4511
16636TIP3    H271400   0.144   3.049  15.638 -0.1853  1.1618  0.8110
16637TIP3   OH271401   5.738   4.047  16.929 -0.6430 -0.4747  0.3415
16637TIP3    H171402   5.683   3.978  16.966 -1.6737  0.6128  0.9123
16637TIP3    H271403   5.680   4.095  16.871  0.0584 -0.0726 -0.0402
16638TIP3   OH271404   2.482   4.426   1.450  0.3159 -0.3275  0.2455
16638TIP3    H171405   2.496   4.471   1.534  0.0125  1.8692 -0.8004
16638TIP3    H271406   2.563   4.441   1.402 -0.0036 -0.4375 -0.3339
16639TIP3   OH271407   3.826   1.913   5.454  1.0582 -0.0837  0.2539
16639TIP3    H171408   3.886   1.961   5.397 -0.2500  1.1224 -0.1545
16639TIP3    H271409   3.821   1.826   5.415  2.8385 -0.3515  0.5419
16640TIP3   OH271410   0.335   1.014  11.171 -0.7574  0.1883 -1.3146
16640TIP3    H171411   0.297   0.953  11.107 -2.6693  0.4338 -0.4636
16640TIP3    H271412   0.287   0.998  11.252  1.3486  0.1700  0.0215
16641TIP3   OH271413   4.873   1.010  16.164  0.4257  0.2374 -0.2533
16641TIP3    H171414   4.813   0.951  16.118  0.1726 -0.6622  1.1502
16641TIP3    H271415   4.937   1.036  16.099 -0.3585 -0.3686 -1.2919
16642TIP3   OH271416   2.328   4.896  17.282  0.0060  0.1719  0.6985
16642TIP3    H171417   2.377   4.840  17.222 -3.6181 -0.1646 -2.3639
16642TIP3    H271418   2.288   4.836  17.344 -0.9153 -0.3056 -0.3084
16643TIP3   OH271419   0.753   6.814   5.746 -0.2714 -0.3273 -0.0327
16643TIP3    H171420   0.767   6.874   5.819  2.4029 -0.2801 -0.4946
16643TIP3    H271421   0.800   6.734   5.772  1.5686  0.0260 -2.0421
16644TIP3   OH271422   3.300   4.581   5.588  0.0203  0.4052 -0.8493
16644TIP3    H171423   3.212   4.587   5.549  1.2324  0.8394 -3.7567
16644TIP3    H271424   3.350   4.530   5.524  1.4334 -1.6333  1.7203
16645TIP3   OH271425   0.009   5.928  11.389 -1.1149 -0.3384  0.3272
16645TIP3    H171426   0.102   5.906  11.391 -0.3860  2.2210  3.6183
16645TIP3    H271427  -0.033   5.854  11.346  2.0682 -3.1377  1.6472
16646TIP3   OH271428   6.712   4.118   3.484  0.1002 -0.2889  0.2996
16646TIP3    H171429   6.807   4.130   3.485  0.1121 -0.3978  0.5831
16646TIP3    H271430   6.681   4.180   3.418  0.4718 -1.1125 -0.6678
16647TIP3   OH271431   0.619   3.974   5.539  0.1724  1.6583  0.2927
16647TIP3    H171432   0.650   3.900   5.591 -3.2689  1.0765  1.8291
16647TIP3    H271433   0.637   4.051   5.593  0.2334  1.5062  0.4918
16648TIP3   OH271434   3.975   2.043   1.635  0.0882  0.2469  0.1595
16648TIP3    H171435   3.974   2.136   1.655  3.3500  0.0489  1.9729
16648TIP3    H271436   4.032   2.035   1.558  0.5161 -0.2632  0.5123
16649TIP3   OH271437   0.570   5.743   1.257 -0.2848  0.5222 -0.1091
16649TIP3    H171438   0.648   5.784   1.295 -0.4268  1.7200 -1.0260
16649TIP3    H271439   0.603   5.673   1.202  0.1471  0.8840 -0.3191
16650TIP3   OH271440   5.494   3.507   0.774  0.0339 -0.5092 -0.5002
16650TIP3    H171441   5.466   3.487   0.863  3.3076 -0.1883  0.7396
16650TIP3    H271442   5.550   3.434   0.749 -0.5951 -0.4544 -2.2505
16651TIP3   OH271443   2.211   3.647   4.671  0.3282  0.5505 -0.0106
16651TIP3    H171444   2.208   3.553   4.658 -0.3091  0.6983 -1.0329
16651TIP3    H271445   2.265   3.680   4.599  2.0608  0.8274  1.3403
16652TIP3   OH271446   4.698   5.766  13.678 -0.1717 -0.3828 -0.2753
16652TIP3    H171447   4.721   5.749  13.769  1.9965  1.2020 -0.4344
16652TIP3    H271448   4.744   5.697  13.629  3.2495  1.7906 -0.4554
16653TIP3   OH271449   2.368   1.565  11.529  0.8598  0.1509  0.1153
16653TIP3    H171450   2.438   1.621  11.495  1.6323 -0.4059  0.7600
16653TIP3    H271451   2.308   1.554  11.455  0.8828  1.5287 -0.1167
16654TIP3   OH271452   6.497   5.931   3.317  0.7023  0.3633 -0.7408
16654TIP3    H171453   6.570   5.873   3.338 -0.4369 -0.2319  1.9118
16654TIP3    H271454   6.424   5.898   3.369 -0.3641  3.3980 -0.1414
16655TIP3   OH271455   5.550   3.572  14.214  0.2504  0.0952 -0.1443
16655TIP3    H171456   5.626   3.525  14.181  0.5142  0.5944 -0.2711
16655TIP3    H271457   5.508   3.512  14.275  1.0761  0.0279  0.3705
16656TIP3   OH271458   0.409   4.765  13.148  0.3183  0.2787 -0.0504
16656TIP3    H171459   0.364   4.741  13.229 -0.6647  1.6212 -0.1680
16656TIP3    H271460   0.485   4.817  13.177  0.4658  0.0079  0.0474
16657TIP3   OH271461   6.121   1.426   6.552  0.3923  0.3709  0.1142
16657TIP3    H171462   6.114   1.520   6.540  0.1124  0.3351 -0.0219
16657TIP3    H271463   6.031   1.395   6.548  0.0995  0.4740  3.4199
16658TIP3   OH271464   5.991   4.437  13.686 -0.3358 -0.0878  0.0009
16658TIP3    H171465   6.086   4.443  13.681 -0.2572 -1.4465 -0.5559
16658TIP3    H271466   5.964   4.410  13.598 -1.2362  0.2603  0.1583
16659TIP3   OH271467   4.701   6.026   2.872  0.2943  0.1511 -0.1417
16659TIP3    H171468   4.729   5.977   2.949 -0.7046  0.8031  0.6566
16659TIP3    H271469   4.641   5.966   2.827  1.3282 -0.4549 -0.7480
16660TIP3   OH271470   3.111   1.579   5.611  0.1788 -0.0246 -0.4920
16660TIP3    H171471   3.166   1.641   5.563  0.2936  0.4311  0.2054
16660TIP3    H271472   3.053   1.542   5.545 -0.3497  1.3292 -0.8262
16661TIP3   OH271473   0.715   0.533   3.542  0.5080 -0.0596  0.0847
16661TIP3    H171474   0.769   0.455   3.532  3.2120  1.7329 -0.2169
16661TIP3    H271475   0.743   0.571   3.625 -1.7574 -0.0534  0.9157
16662TIP3   OH271476   2.380   0.729  14.063  0.5126  0.4588 -0.0006
16662TIP3    H171477   2.308   0.705  14.006  0.0908  0.2542  0.6114
16662TIP3    H271478   2.454   0.676  14.031  0.0557 -0.3197  0.1956
16663TIP3   OH271479   2.604   2.865   4.118  0.4283 -0.5479 -0.1220
16663TIP3    H171480   2.652   2.910   4.048  0.3489  2.5175  1.6094
16663TIP3    H271481   2.667   2.860   4.190 -0.4035 -0.9038  0.5856
16664TIP3   OH271482   0.038   0.393  11.188  0.5762  0.3087 -0.2119
16664TIP3    H171483   0.065   0.480  11.159  2.2364  0.1939  0.8302
16664TIP3    H271484   0.089   0.333  11.134  0.9253  0.0397  0.4055
16665TIP3   OH271485   6.419   6.065  15.553  0.0815  0.4274 -0.4517
16665TIP3    H171486   6.349   6.060  15.488  0.2256 -1.2377 -0.5144
16665TIP3    H271487   6.385   6.018  15.629  1.5290 -1.4177 -0.8871
16666TIP3   OH271488   0.621   2.236   1.797  0.4255  0.2489 -0.1647
16666TIP3    H171489   0.604   2.146   1.824 -1.1256  0.0843 -1.5114
16666TIP3    H271490   0.635   2.230   1.702  0.8351  1.3587 -0.1880
16667TIP3   OH271491   2.684   5.165   3.793  0.0767  0.7177  0.4951
16667TIP3    H171492   2.643   5.218   3.724 -1.6759 -1.3120 -0.1109
16667TIP3    H271493   2.733   5.098   3.746  1.5956  1.2306  1.2652
16668TIP3   OH271494   5.219   0.457  15.362  0.0832 -0.1451 -0.3458
16668TIP3    H171495   5.145   0.517  15.355 -1.6704 -2.1427  0.0923
16668TIP3    H271496   5.296   0.514  15.362 -1.4093  2.0054 -1.0336
16669TIP3   OH271497   5.871   2.880   5.637  0.1565  0.1565 -0.2163
16669TIP3    H171498   5.913   2.953   5.682 -0.5843  0.5695 -0.1683
16669TIP3    H271499   5.847   2.819   5.707 -0.3809  0.4758 -0.1212
16670TIP3   OH271500   4.423   1.303   4.217  0.1008 -0.0533 -0.2727
16670TIP3    H171501   4.444   1.214   4.244  2.0195  0.7099  0.9804
16670TIP3    H271502   4.410   1.297   4.123 -0.6691 -1.7882 -0.0893
16671TIP3   OH271503   0.787   4.937  16.438  0.0912 -0.4093 -0.0444
16671TIP3    H171504   0.799   4.969  16.348  1.6965 -1.9204 -0.4126
16671TIP3    H271505   0.693   4.918  16.443 -0.1758  0.4939 -1.1122
16672TIP3   OH271506   3.575   6.730   5.007  0.0367  0.0756 -0.3319
16672TIP3    H171507   3.542   6.818   5.027 -0.5845 -0.4640  1.2215
16672TIP3    H271508   3.645   6.744   4.943 -0.5074  1.6310 -0.6201
16673TIP3   OH271509   6.395   5.433   6.210 -0.2361 -0.3136 -0.5577
16673TIP3    H171510   6.467   5.487   6.241 -0.6124  0.4085 -0.9166
16673TIP3    H271511   6.335   5.427   6.284  0.3065 -1.1424 -0.1694
16674TIP3   OH271512   1.671   5.849   2.610 -0.0628  0.2626  0.2352
16674TIP3    H171513   1.722   5.824   2.533  1.0167 -0.6637  1.2025
16674TIP3    H271514   1.657   5.943   2.600 -2.7910 -0.2995 -2.6881
16675TIP3   OH271515   3.411   3.900  16.586  0.2404  0.1571 -0.1811
16675TIP3    H171516   3.437   3.838  16.654  1.0501 -0.5200 -1.0639
16675TIP3    H271517   3.383   3.978  16.633 -1.3367 -1.0612  0.9913
16676TIP3   OH271518   0.292   1.722  14.689 -0.1799  0.5177 -0.1968
16676TIP3    H171519   0.381   1.752  14.704 -0.8802  2.3472  0.5982
16676TIP3    H271520   0.258   1.701  14.776  0.3603 -3.1777 -0.6929
16677TIP3   OH271521   4.646   5.235  12.020 -0.1706 -0.1505 -0.1512
16677TIP3    H171522   4.603   5.156  11.988 -0.7308 -0.5083  1.3842
16677TIP3    H271523   4.652   5.292  11.943  1.4501 -2.1530 -1.6086
16678TIP3   OH271524   2.340   6.670  15.414  0.1642  0.2369  0.3985
16678TIP3    H171525   2.412   6.692  15.473  1.5250  0.1408 -1.1563
16678TIP3    H271526   2.346   6.734  15.343  0.3038 -1.2620 -1.0098
16679TIP3   OH271527   0.411   3.878  16.563 -0.2256  0.4455  0.2376
16679TIP3    H171528   0.399   3.861  16.470  1.3163 -1.6168  0.3577
16679TIP3    H271529   0.481   3.819  16.590 -0.9570  0.6347  2.8229
16680TIP3   OH271530   3.694   6.671  16.705  0.1877 -0.4592 -0.1615
16680TIP3    H171531   3.782   6.669  16.669  1.0567  1.9030  1.5626
16680TIP3    H271532   3.653   6.590  16.674  2.5606 -1.0959 -1.9144
16681TIP3   OH271533   1.529   5.200   1.553  0.6839  0.2921 -0.0408
16681TIP3    H171534   1.457   5.143   1.581  2.7640 -1.6782  1.7095
16681TIP3    H271535   1.547   5.173   1.462 -0.9504  1.0663 -0.6282
16682TIP3   OH271536   1.115   2.668   4.260  0.2898  0.0875 -0.0366
16682TIP3    H171537   1.123   2.577   4.286 -0.3751 -0.4491 -1.5962
16682TIP3    H271538   1.021   2.687   4.267  0.7368  2.2434  5.0807
16683TIP3   OH271539   5.528   1.019  13.295 -0.1953  0.1038  0.1466
16683TIP3    H171540   5.456   0.999  13.354  0.9008  1.0343  1.9067
16683TIP3    H271541   5.489   1.072  13.225 -1.1114  1.1792  1.4318
16684TIP3   OH271542   5.531   2.374  14.683 -0.0835  0.3927  0.6248
16684TIP3    H171543   5.614   2.389  14.639 -1.6310 -2.3356 -3.9433
16684TIP3    H271544   5.470   2.435  14.641 -1.1604 -0.4125  0.9631
16685TIP3   OH271545   3.665   1.359   4.159  0.9268  1.0418 -0.0095
16685TIP3    H171546   3.645   1.373   4.067 -1.6466  3.3260  0.7568
16685TIP3    H271547   3.727   1.428   4.182  0.6394  1.2389  0.1951
16686TIP3   OH271548   6.314   0.471  11.525 -0.0153 -0.2325  0.3014
16686TIP3    H171549   6.380   0.413  11.489  0.1196  1.1631 -1.8788
16686TIP3    H271550   6.230   0.431  11.498  0.0808  0.6993 -1.5423
16687TIP3   OH271551   4.329   1.130  16.590  0.2367  0.1481 -0.6726
16687TIP3    H171552   4.315   1.148  16.683  0.5598  2.2768 -0.9823
16687TIP3    H271553   4.257   1.071  16.566 -2.5683  3.0596 -0.0451
16688TIP3   OH271554   4.664   1.057   4.711  0.1024 -0.3153 -0.1088
16688TIP3    H171555   4.586   1.111   4.696 -0.1102 -0.1566  1.4206
16688TIP3    H271556   4.727   1.118   4.749  0.0985 -0.9611  0.9823
16689TIP3   OH271557   1.853   6.316  13.127 -0.0282  0.6485 -0.1153
16689TIP3    H171558   1.848   6.270  13.211 -2.1386 -0.8758 -0.9860
16689TIP3    H271559   1.820   6.253  13.063  0.8162  2.0307 -2.0033
16690TIP3   OH271560   4.249   4.490  10.570  0.3197  0.0445 -0.4349
16690TIP3    H171561   4.313   4.438  10.522  0.6863  1.5594 -1.6382
16690TIP3    H271562   4.222   4.558  10.509 -1.6745  0.0809  0.3953
16691TIP3   OH271563   0.625   5.827  16.326 -0.3906 -0.4246  0.4532
16691TIP3    H171564   0.664   5.874  16.400 -0.3761 -1.2815  0.9926
16691TIP3    H271565   0.547   5.786  16.362  0.5671 -2.3514  0.4763
16692TIP3   OH271566   4.519   2.777   2.574 -0.4589 -0.6754  0.1446
16692TIP3    H171567   4.591   2.727   2.535 -0.5597  0.0466 -0.9965
16692TIP3    H271568   4.505   2.736   2.659  0.4156 -1.6748 -0.1742
16693TIP3   OH271569   5.592   0.062   0.982 -0.1487  0.4728 -0.2917
16693TIP3    H171570   5.656   0.117   1.027  0.1963  1.9201 -2.3817
16693TIP3    H271571   5.527   0.124   0.948 -1.8997 -0.8255  0.5088
16694TIP3   OH271572   2.686   0.719   1.023 -0.0743 -0.0049 -0.1198
16694TIP3    H171573   2.684   0.715   0.927  0.0497 -0.0879 -0.1191
16694TIP3    H271574   2.779   0.718   1.045 -0.0931 -1.9423  0.0774
16695TIP3   OH271575   5.727   4.441   4.798 -0.2375 -0.0272 -0.2502
16695TIP3    H171576   5.769   4.356   4.813 -1.7981 -0.6918  0.5167
16695TIP3    H271577   5.671   4.454   4.874  1.3136  2.5748  0.5743
16696TIP3   OH271578   5.941   1.762  10.472  0.2658  0.2923 -0.5358
16696TIP3    H171579   5.975   1.843  10.509  0.5386  0.0504 -0.2502
16696TIP3    H271580   5.846   1.767  10.487  0.4884 -0.3857  1.4173
16697TIP3   OH271581   1.998   1.680   5.311 -0.4653 -0.5069  0.2748
16697TIP3    H171582   1.929   1.693   5.246 -0.8637 -1.0146  0.5935
16697TIP3    H271583   2.060   1.622   5.269 -1.0303 -1.3345  0.5647
16698TIP3   OH271584   6.625   4.006  15.747 -0.2918  0.0354  0.2866
16698TIP3    H171585   6.570   3.995  15.669  0.9364 -1.0928 -0.4519
16698TIP3    H271586   6.566   3.988  15.820 -1.1692 -0.0946 -0.4322
16699TIP3   OH271587   1.784   6.699  14.413  0.1603 -1.1033  0.4790
16699TIP3    H171588   1.755   6.729  14.499 -0.3764 -1.8793  0.5702
16699TIP3    H271589   1.785   6.604  14.419 -0.0132 -1.1706 -0.4236
16700TIP3   OH271590   1.149   1.740  11.582 -0.3297  0.0481  0.0470
16700TIP3    H171591   1.100   1.794  11.644 -1.0084 -2.3513  1.7373
16700TIP3    H271592   1.236   1.732  11.621 -0.9335 -1.9604  1.1014
16701TIP3   OH271593   0.005   3.795   5.540  0.2327 -0.2133  0.1324
16701TIP3    H171594  -0.024   3.759   5.623 -0.4671 -0.2751 -0.1358
16701TIP3    H271595   0.025   3.887   5.559  0.1375 -0.2445  0.3819
16702TIP3   OH271596   4.869   5.076  11.756 -0.5262  0.2166 -0.0868
16702TIP3    H171597   4.846   5.043  11.669  0.0208  0.8998 -0.5010
16702TIP3    H271598   4.834   5.010  11.817 -3.2340  1.0100 -0.6674
16703TIP3   OH271599   4.309   3.198  13.661  0.2193 -0.1833  0.1238
16703TIP3    H171600   4.245   3.131  13.637 -0.3023  0.1117  0.6727
16703TIP3    H271601   4.275   3.278  13.622  0.1236  0.0186  0.6104
16704TIP3   OH271602   5.287   3.842   0.939 -0.2618 -0.0678  0.2410
16704TIP3    H171603   5.195   3.861   0.920  0.3314  1.5676 -1.2220
16704TIP3    H271604   5.303   3.885   1.023 -0.8461 -0.4601  0.5614
16705TIP3   OH271605   0.936   5.991   3.617  0.3511 -0.0250 -0.2295
16705TIP3    H171606   1.027   6.014   3.599 -0.0470  1.4362 -0.5722
16705TIP3    H271607   0.932   5.896   3.608  2.1526 -0.3103  1.2621
16706TIP3   OH271608   1.979   3.918   2.446 -0.2577 -0.5347 -0.0851
16706TIP3    H171609   1.964   4.011   2.432  0.8639 -0.1556  1.0348
16706TIP3    H271610   2.066   3.901   2.409 -0.0415 -0.9020  0.5534
16707TIP3   OH271611   6.586   0.733  13.084 -0.0545  0.3917  0.0545
16707TIP3    H171612   6.584   0.720  13.179 -0.7321  1.4637  0.2028
16707TIP3    H271613   6.508   0.689  13.052 -0.8611  1.6430  0.2367
16708TIP3   OH271614   0.044   3.923  16.577 -0.5445 -0.0426 -0.2236
16708TIP3    H171615   0.023   3.916  16.484 -0.9636 -0.1475 -0.1210
16708TIP3    H271616   0.099   4.001  16.583  0.0206 -0.3997 -0.6488
16709TIP3   OH271617   5.550   6.301  15.980 -0.1548  0.3174  0.8784
16709TIP3    H171618   5.607   6.293  15.904 -0.4498 -1.0944  0.7801
16709TIP3    H271619   5.588   6.372  16.031 -0.2839  1.6920 -0.8514
16710TIP3   OH271620   0.144   0.172  13.963  0.6928 -0.6285  0.2296
16710TIP3    H171621   0.139   0.104  14.030  0.5923 -0.3820  0.4749
16710TIP3    H271622   0.197   0.133  13.893  3.1002  0.0081  1.5729
16711TIP3   OH271623   1.429   2.235   0.954 -0.4707 -0.0556  0.4079
16711TIP3    H171624   1.380   2.153   0.965  0.4442 -0.5405  1.0273
16711TIP3    H271625   1.459   2.257   1.043  0.9104 -0.0926 -0.0300
16712TIP3   OH271626   4.248   1.421  16.157  0.3214  0.4062 -0.7712
16712TIP3    H171627   4.293   1.378  16.230 -2.0426  1.7478  1.6906
16712TIP3    H271628   4.286   1.509  16.154 -0.6968  0.9032  0.0373
16713TIP3   OH271629   5.056   4.495  14.441 -0.3376  0.7157 -0.2480
16713TIP3    H171630   5.122   4.512  14.509  1.4363  2.3589 -2.2189
16713TIP3    H271631   4.984   4.555  14.462  0.4823  1.6975 -0.1566
16714TIP3   OH271632   4.193   0.632   1.666 -0.5363  0.2624  0.1214
16714TIP3    H171633   4.228   0.714   1.702  2.7027 -1.1953  0.6772
16714TIP3    H271634   4.154   0.657   1.582  0.1402  2.3936  0.3824
16715TIP3   OH271635   4.517   2.932   3.956  0.0311 -0.0245  0.3316
16715TIP3    H171636   4.588   2.944   4.019 -0.2886  2.5522  0.3042
16715TIP3    H271637   4.438   2.926   4.010 -0.1241  1.0461  0.2321
16716TIP3   OH271638   2.103   1.549   0.543 -0.0946 -0.3665  0.0152
16716TIP3    H171639   2.018   1.506   0.554 -0.2760 -0.2246 -0.7560
16716TIP3    H271640   2.166   1.476   0.542 -0.2360 -0.4953  0.2541
16717TIP3   OH271641   3.537   0.974  16.201  0.1209 -0.0927  0.0652
16717TIP3    H171642   3.616   0.969  16.148 -0.1251 -2.0300 -0.1920
16717TIP3    H271643   3.484   0.899  16.173 -0.4766 -0.5993  2.2901
16718TIP3   OH271644   1.813   2.906   1.032 -0.3265 -0.0334  0.1687
16718TIP3    H171645   1.781   2.846   1.099  0.4290 -1.6320 -0.8515
16718TIP3    H271646   1.819   2.991   1.077 -0.6817 -0.8612  1.8611
16719TIP3   OH271647   4.604   4.934   5.534  0.7181  0.3168 -0.3503
16719TIP3    H171648   4.554   4.973   5.462  1.2669  0.2227 -0.7827
16719TIP3    H271649   4.537   4.901   5.594  0.1661 -2.6207 -2.3729
16720TIP3   OH271650   1.804   1.346   5.314 -0.3752 -0.7989  0.3071
16720TIP3    H171651   1.795   1.427   5.264  0.7167 -0.3070  0.8970
16720TIP3    H271652   1.755   1.282   5.263  0.0683 -0.1309 -1.0009
16721TIP3   OH271653   4.639   3.492  12.136 -0.2526  0.1851 -0.0971
16721TIP3    H171654   4.669   3.564  12.081 -0.5468 -0.5921 -1.3258
16721TIP3    H271655   4.581   3.441  12.079 -1.6774  0.1007  1.3610
16722TIP3   OH271656   1.460   1.783  15.840  0.5622  0.0738 -0.0174
16722TIP3    H171657   1.489   1.693  15.828 -0.3917 -0.0654 -1.6805
16722TIP3    H271658   1.447   1.793  15.934  1.9159 -1.1040  0.3198
16723TIP3   OH271659   4.817   6.169   4.175  0.3006 -0.0263  0.2414
16723TIP3    H171660   4.804   6.177   4.269 -0.5517  0.3317  0.0970
16723TIP3    H271661   4.737   6.129   4.142  0.3444  0.3986 -0.4072
16724TIP3   OH271662   3.682   6.136   6.098  0.2187 -0.6849  0.3979
16724TIP3    H171663   3.655   6.219   6.137 -0.5705 -0.1211 -1.2613
16724TIP3    H271664   3.622   6.071   6.134  1.2891 -0.7166  2.2656
16725TIP3   OH271665   2.935   4.948   1.103 -0.0528  0.0153  0.1919
16725TIP3    H171666   2.987   5.004   1.161 -0.0303 -0.2414  0.4211
16725TIP3    H271667   2.857   4.926   1.153  1.0910 -2.2626  1.1402
16726TIP3   OH271668   2.894   3.417   3.002 -0.0424  0.0297  0.2639
16726TIP3    H171669   2.868   3.390   2.914 -2.3202  0.8759  0.6105
16726TIP3    H271670   2.884   3.338   3.055  0.1474 -0.1720  0.0039
16727TIP3   OH271671   1.494   4.289  17.041  0.4440 -0.3675 -0.0850
16727TIP3    H171672   1.474   4.208  17.087 -2.2870  0.4610  0.3395
16727TIP3    H271673   1.413   4.339  17.042  2.1252  2.6513  0.1875
16728TIP3   OH271674   4.101   2.996  13.611 -0.1902 -0.5156  0.4910
16728TIP3    H171675   4.088   2.917  13.558  0.5357  0.0530 -0.5823
16728TIP3    H271676   4.057   3.065  13.562  0.4188  0.0107  0.6741
16729TIP3   OH271677   2.681   4.389  13.560  0.3460  0.2759 -0.4496
16729TIP3    H171678   2.674   4.320  13.627  0.4654  0.7962  0.1130
16729TIP3    H271679   2.592   4.420  13.549  0.3759  0.4293 -0.2679
16730TIP3   OH271680   1.560   6.362   5.082  0.1162  0.4357  0.3960
16730TIP3    H171681   1.651   6.367   5.109 -0.1122 -0.1815  1.3474
16730TIP3    H271682   1.528   6.279   5.120 -0.4230 -0.1405 -1.2297
16731TIP3   OH271683   5.183   5.423  15.784 -0.2636 -0.9160 -0.3770
16731TIP3    H171684   5.165   5.512  15.815 -0.0534 -0.3730 -1.7464
16731TIP3    H271685   5.127   5.367  15.838 -0.4333  0.0435  0.4778
16732TIP3   OH271686   5.596   4.855   3.195  0.4115  0.3612  0.4940
16732TIP3    H171687   5.628   4.807   3.119 -2.0354  1.6331 -1.4787
16732TIP3    H271688   5.675   4.885   3.240  1.9404 -1.5936 -0.7374
16733TIP3   OH271689   4.871   3.984  13.603 -0.1298  0.3374 -0.3839
16733TIP3    H171690   4.843   4.016  13.517  0.1270 -1.0129 -1.0009
16733TIP3    H271691   4.857   4.058  13.662 -1.1238  1.0134 -1.4268
16734TIP3   OH271692   0.841   1.267   0.770 -0.5110 -0.5738  0.1339
16734TIP3    H171693   0.788   1.295   0.845 -0.1862 -1.3826  0.6821
16734TIP3    H271694   0.821   1.331   0.702 -1.3460 -0.2208  0.6829
16735TIP3   OH271695   2.116   5.642   4.840  0.1916  0.0708  0.1507
16735TIP3    H171696   2.210   5.646   4.858  0.0517 -0.7793  1.1969
16735TIP3    H271697   2.077   5.706   4.899  0.1259  0.5601 -0.4183
16736TIP3   OH271698   2.621   3.250   5.404  0.4474 -0.3692  0.5513
16736TIP3    H171699   2.555   3.242   5.473  0.3074 -1.4067  0.3100
16736TIP3    H271700   2.705   3.250   5.450  0.3346 -0.3997  0.7585
16737TIP3   OH271701   4.043   1.531  11.598 -0.2780  0.1255  0.7684
16737TIP3    H171702   4.068   1.463  11.536 -0.6276  0.7057 -0.0374
16737TIP3    H271703   4.013   1.484  11.675 -2.2332 -0.7018 -0.4298
16738TIP3   OH271704   0.709   2.402  11.676  0.2027  0.2123  0.6882
16738TIP3    H171705   0.675   2.491  11.666 -1.9031 -0.6383 -0.4188
16738TIP3    H271706   0.636   2.346  11.649  2.5588 -1.8026 -2.1915
16739TIP3   OH271707   3.402   5.822   4.412  0.2813 -0.0290 -0.1998
16739TIP3    H171708   3.402   5.892   4.477  0.0129 -0.4986  0.3095
16739TIP3    H271709   3.321   5.773   4.429  1.8861 -2.2850  1.4379
16740TIP3   OH271710   2.883   1.852  16.509  0.8124 -0.0826 -0.3859
16740TIP3    H171711   2.804   1.901  16.532 -1.0162 -2.0076 -2.0996
16740TIP3    H271712   2.910   1.809  16.590 -0.9347 -0.7315 -0.1167
16741TIP3   OH271713   1.627   5.095   3.674 -0.1271  0.5529 -0.1083
16741TIP3    H171714   1.714   5.124   3.644 -0.3396  1.4633  0.1418
16741TIP3    H271715   1.618   5.007   3.637  2.1535 -0.8296  2.3208
16742TIP3   OH271716   6.536   6.118   3.088  0.1991 -0.6153  0.2159
16742TIP3    H171717   6.531   6.211   3.110 -1.8714 -0.6153 -0.0923
16742TIP3    H271718   6.540   6.074   3.173 -0.7291 -0.3155  0.4242
16743TIP3   OH271719   2.300   1.064   0.704  0.1967 -0.4878 -0.2365
16743TIP3    H171720   2.252   1.000   0.757  1.2647  0.9454  2.7297
16743TIP3    H271721   2.233   1.104   0.649 -1.7477  0.0654  2.3147
16744TIP3   OH271722   4.981   4.847  15.606 -0.1629  0.1180  0.1033
16744TIP3    H171723   5.072   4.858  15.580 -1.0255  1.0001 -2.9745
16744TIP3    H271724   4.964   4.921  15.665  1.4609 -1.0319  2.1732
16745TIP3   OH271725   5.447   0.516   0.820  0.5937 -0.6597  0.4756
16745TIP3    H171726   5.502   0.522   0.741  2.0304  1.7640  1.5547
16745TIP3    H271727   5.481   0.584   0.878 -0.7205 -2.0535  3.0418
16746TIP3   OH271728   2.025   3.054   5.005 -0.1809  0.8005 -0.0009
16746TIP3    H171729   2.013   3.106   4.925 -0.6383  0.0649 -0.4184
16746TIP3    H271730   2.020   2.963   4.976 -0.0340  0.5187  0.8211
16747TIP3   OH271731   6.255   4.617   3.678 -0.1032 -0.7791  0.5441
16747TIP3    H171732   6.258   4.708   3.650  1.1142 -1.1351 -0.5676
16747TIP3    H271733   6.179   4.580   3.632  0.1458 -0.6238 -0.0022
16748TIP3   OH271734   1.007   2.253  12.990  0.1581 -0.1738 -0.2385
16748TIP3    H171735   1.017   2.348  12.983  0.6865 -0.1231  1.0010
16748TIP3    H271736   0.931   2.233  12.935 -0.3082  1.0360 -0.0706
16749TIP3   OH271737   2.245   3.600   5.869 -0.1616 -0.0666 -0.0357
16749TIP3    H171738   2.322   3.633   5.822  0.3070 -1.6289 -0.4563
16749TIP3    H271739   2.170   3.627   5.815  0.2567 -0.3429 -0.7666
16750TIP3   OH271740   5.624   1.494   5.022 -0.1336 -0.2048  0.5627
16750TIP3    H171741   5.553   1.450   4.976  1.5803 -0.5542 -1.9387
16750TIP3    H271742   5.650   1.433   5.091 -0.8453 -1.0376  0.1061
16751TIP3   OH271743   3.961   0.091   0.327 -0.2993 -0.0415 -0.4073
16751TIP3    H171744   3.870   0.108   0.303 -0.2124  0.9848 -0.0486
16751TIP3    H271745   3.994   0.176   0.356  1.5550  0.2526 -3.0356
16752TIP3   OH271746   6.115   3.065  11.691 -0.1434 -0.3178 -0.2346
16752TIP3    H171747   6.070   3.054  11.775 -0.3627  0.7440 -0.1948
16752TIP3    H271748   6.045   3.061  11.626 -0.0049 -0.8792 -0.3569
16753TIP3   OH271749   6.764   6.787   1.060  0.0610 -0.0382  0.5025
16753TIP3    H171750   6.805   6.867   1.092  0.8650 -0.3185  0.1877
16753TIP3    H271751   6.729   6.810   0.974  0.1144  0.0344  0.5007
16754TIP3   OH271752   1.441   2.349   2.097 -0.4321 -0.1613  0.0245
16754TIP3    H171753   1.506   2.306   2.152 -0.7413  0.1981  0.6767
16754TIP3    H271754   1.467   2.327   2.007 -1.2879 -2.7418  0.3458
16755TIP3   OH271755   5.279   5.641   1.226  0.0613 -0.0580 -0.3397
16755TIP3    H171756   5.245   5.731   1.219 -1.2066 -0.6385 -3.3594
16755TIP3    H271757   5.276   5.621   1.319 -0.8077  2.6002  0.2899
16756TIP3   OH271758   5.714   6.440  13.339 -0.0625  0.1995 -0.5123
16756TIP3    H171759   5.677   6.510  13.284 -1.1177 -1.7733 -2.4772
16756TIP3    H271760   5.642   6.378  13.349  1.1807 -1.1630  0.2148
16757TIP3   OH271761   0.937   1.106  17.073 -0.8450 -0.5560  0.3638
16757TIP3    H171762   0.875   1.090  17.144 -3.8700  0.5439 -1.8121
16757TIP3    H271763   0.938   1.201  17.063  0.4339 -0.6243 -0.3379
16758TIP3   OH271764   1.321   3.238   5.005  0.1044 -0.1772  0.1136
16758TIP3    H171765   1.230   3.252   4.979 -0.5039 -0.0776  2.0955
16758TIP3    H271766   1.328   3.144   5.019 -0.0085 -0.0746  0.9329
16759TIP3   OH271767   4.699   4.149   1.395 -0.3054  0.4169 -0.1329
16759TIP3    H171768   4.786   4.127   1.428 -0.4261  2.6339  1.9203
16759TIP3    H271769   4.639   4.101   1.452 -0.5387 -1.3244 -1.7099
16760TIP3   OH271770   0.856   4.849  13.117  0.1679  0.7003  0.4881
16760TIP3    H171771   0.884   4.907  13.188 -0.2307  2.1219 -0.4742
16760TIP3    H271772   0.761   4.845  13.125  0.1951  0.1613  0.5563
16761TIP3   OH271773   2.297   5.491   5.677  0.7219  0.1727 -0.1476
16761TIP3    H171774   2.360   5.551   5.717  0.7669 -0.0339  0.0988
16761TIP3    H271775   2.287   5.421   5.742  0.0438  0.3341 -0.0720
16762TIP3   OH271776   3.986   1.833   0.405 -0.3626 -0.1315  0.3295
16762TIP3    H171777   4.054   1.866   0.463 -0.3215  2.0812 -0.8795
16762TIP3    H271778   3.904   1.867   0.442 -0.5929 -0.7436  0.4087
16763TIP3   OH271779   2.701   0.009   2.646 -0.3264 -0.9866 -0.2764
16763TIP3    H171780   2.704   0.088   2.591 -2.2581 -0.1961  0.6473
16763TIP3    H271781   2.654  -0.055   2.593 -0.6047 -0.8204 -0.2325
16764TIP3   OH271782   5.790   0.408  14.606  0.0781 -0.0164 -0.1671
16764TIP3    H171783   5.878   0.445  14.601 -0.1663  0.4547 -1.1821
16764TIP3    H271784   5.732   0.480  14.584 -0.3881 -1.0073 -2.4581
16765TIP3   OH271785   2.332   5.109   5.642  0.4807 -0.5908  0.6932
16765TIP3    H171786   2.349   5.151   5.726 -0.2295  1.1314  0.0276
16765TIP3    H271787   2.416   5.111   5.596  0.8142 -1.3273  1.2417
16766TIP3   OH271788   1.031   3.705   1.861 -0.2671  0.5415 -0.2758
16766TIP3    H171789   1.005   3.789   1.822 -0.6327  0.2597 -0.6454
16766TIP3    H271790   1.119   3.689   1.829 -0.1650  0.8271 -0.1382
16767TIP3   OH271791   6.795   1.141   1.365 -0.8513  0.2321 -0.7243
16767TIP3    H171792   6.727   1.110   1.426  1.0438  0.2948  1.5672
16767TIP3    H271793   6.861   1.072   1.366  0.3659  1.3652 -0.7398
16768TIP3   OH271794   5.862   3.120  12.443 -0.8233  0.0660  0.5369
16768TIP3    H171795   5.822   3.160  12.520 -2.1608 -0.0878 -0.0542
16768TIP3    H271796   5.799   3.135  12.372  0.1216 -0.2867 -0.4077
16769TIP3   OH271797   3.309   3.510  12.122 -0.0529 -0.3005 -0.5770
16769TIP3    H171798   3.252   3.555  12.185  0.9939 -2.4976  2.1607
16769TIP3    H271799   3.388   3.564  12.119  0.5047 -0.9243  1.3213
16770TIP3   OH271800   4.922   6.578   4.559  0.1299 -0.1219  0.4690
16770TIP3    H171801   4.996   6.631   4.532 -1.2177  0.8793 -1.5993
16770TIP3    H271802   4.898   6.528   4.480  0.2462 -2.5149  1.8409
16771TIP3   OH271803   5.572   4.274   1.276 -0.3632 -0.1513 -0.0788
16771TIP3    H171804   5.640   4.227   1.324 -0.6698 -0.9785 -0.4270
16771TIP3    H271805   5.616   4.311   1.200 -0.7017 -2.9150 -1.7831
16772TIP3   OH271806   6.660   4.294  14.996  0.0312  0.4477 -0.2751
16772TIP3    H171807   6.666   4.211  15.043 -0.6601  0.7355  0.3391
16772TIP3    H271808   6.599   4.277  14.924 -0.3028  0.4963 -0.0003
16773TIP3   OH271809   2.228   4.824  15.833  0.2103  0.0085  0.4622
16773TIP3    H171810   2.282   4.869  15.768 -1.0674  1.3469  0.2656
16773TIP3    H271811   2.231   4.880  15.910  1.0495 -1.1516  1.2988
16774TIP3   OH271812   4.713   3.827  16.208 -0.1862  0.1004 -0.4745
16774TIP3    H171813   4.706   3.862  16.297 -2.0396 -1.0841 -0.1017
16774TIP3    H271814   4.798   3.783  16.206 -1.0165 -1.8177  1.5178
16775TIP3   OH271815   4.895   0.713   3.406  0.3561  0.8313 -0.2170
16775TIP3    H171816   4.943   0.692   3.325 -0.0186  2.9834 -1.0534
16775TIP3    H271817   4.819   0.654   3.404  1.1956 -0.2681 -0.5937
16776TIP3   OH271818   5.787   2.545  13.798  0.3217  0.1349 -0.0975
16776TIP3    H171819   5.787   2.588  13.713  1.1840  2.8758  1.1553
16776TIP3    H271820   5.824   2.610  13.858 -1.0423 -1.3336  2.5521
16777TIP3   OH271821   6.812   5.700   2.584  0.3395  0.6495 -0.7155
16777TIP3    H171822   6.827   5.776   2.527  1.0113  0.3107 -1.0067
16777TIP3    H271823   6.733   5.659   2.549  1.9729 -0.8671 -2.9217
16778TIP3   OH271824   0.223   3.098   2.346 -0.1534 -0.2885  0.6753
16778TIP3    H171825   0.276   3.096   2.425 -1.0413  0.3471  1.3187
16778TIP3    H271826   0.134   3.079   2.377 -0.4549 -0.3822 -0.2213
16779TIP3   OH271827   6.431   4.606   4.628  0.3611  0.4346  0.3551
16779TIP3    H171828   6.408   4.645   4.712 -0.3079 -0.8215  0.7834
16779TIP3    H271829   6.379   4.654   4.564  1.2276  1.7180  0.5737
16780TIP3   OH271830   3.413   5.763   5.589  0.2556  0.4806  0.2553
16780TIP3    H171831   3.503   5.783   5.615  0.6099 -0.8623  0.1282
16780TIP3    H271832   3.409   5.668   5.585 -1.0581  0.5245 -0.1719
16781TIP3   OH271833   3.241   3.498   3.087  0.0082 -0.1825  0.1227
16781TIP3    H171834   3.292   3.576   3.066  2.0463 -1.7346 -1.0476
16781TIP3    H271835   3.194   3.521   3.168  1.7724  1.6923  0.7017
16782TIP3   OH271836   6.040   5.595   3.012 -0.4806  0.2270  0.5822
16782TIP3    H171837   5.949   5.575   3.036 -0.2158  0.8889  2.2887
16782TIP3    H271838   6.033   5.649   2.934 -1.4708 -0.9982 -0.2159
16783TIP3   OH271839   0.074   2.864   1.470  0.5657 -0.0849 -0.4565
16783TIP3    H171840   0.080   2.958   1.453 -1.4716  0.1581 -0.0434
16783TIP3    H271841   0.092   2.855   1.564  1.8760 -0.2662 -0.7067
16784TIP3   OH271842   3.702   5.750   3.917  0.0563  0.1811 -0.0019
16784TIP3    H171843   3.644   5.675   3.926  0.5108 -0.3655 -1.3718
16784TIP3    H271844   3.645   5.826   3.934 -0.7189 -0.4120  0.1024
16785TIP3   OH271845   0.883   6.478   5.469  0.2460  0.0173  0.1811
16785TIP3    H171846   0.842   6.551   5.424  0.6609  1.6791  2.3186
16785TIP3    H271847   0.972   6.507   5.487 -0.2458  0.0459  3.1206
16786TIP3   OH271848   3.568   2.485   0.146 -0.0773 -0.2476  0.1107
16786TIP3    H171849   3.510   2.462   0.074  1.7774  1.0875 -1.9503
16786TIP3    H271850   3.551   2.579   0.161  0.7352 -0.1190  0.2592
16787TIP3   OH271851   1.862   1.603  14.448 -0.2614 -0.2293 -0.1835
16787TIP3    H171852   1.848   1.652  14.367 -1.3526  1.1508  0.7860
16787TIP3    H271853   1.826   1.659  14.516  0.3778 -1.4805  1.2407
16788TIP3   OH271854   5.543   5.192  13.155 -0.4073 -0.0780  0.0070
16788TIP3    H171855   5.621   5.201  13.211 -1.1398 -2.5769  1.5710
16788TIP3    H271856   5.562   5.117  13.099 -0.6636  0.9478 -1.5164
16789TIP3   OH271857   3.997   0.915   4.328  0.0940 -0.0217  0.1860
16789TIP3    H171858   3.953   0.985   4.280 -1.3062 -0.5135  0.7211
16789TIP3    H271859   3.928   0.874   4.380  1.2245 -0.6960  1.2004
16790TIP3   OH271860   6.008   6.000  14.064 -0.6897 -0.2547 -0.8351
16790TIP3    H171861   6.065   6.055  14.011 -0.3800 -1.3272 -1.6393
16790TIP3    H271862   6.035   5.911  14.044 -0.8027 -0.7097  0.8574
16791TIP3   OH271863   5.247   4.686   1.506 -0.1144  0.5538  0.2863
16791TIP3    H171864   5.301   4.616   1.469 -0.5829 -0.0899  0.8133
16791TIP3    H271865   5.216   4.652   1.589 -1.1623  0.9984  0.0957
16792TIP3   OH271866   3.554   4.481   2.351  0.0466  0.2995  0.5982
16792TIP3    H171867   3.597   4.524   2.277 -0.7729 -0.9051 -0.6214
16792TIP3    H271868   3.612   4.497   2.425  1.5476  0.4553 -0.5677
16793TIP3   OH271869   6.274   4.821  15.279  0.0390  0.3996  0.0768
16793TIP3    H171870   6.342   4.774  15.327 -0.5887 -0.0213  0.5844
16793TIP3    H271871   6.195   4.810  15.333 -0.0257  2.4734  0.4628
16794TIP3   OH271872   0.398   1.098  12.693 -0.0787 -0.0723 -0.1988
16794TIP3    H171873   0.335   1.027  12.705  0.5187 -0.7326 -0.8755
16794TIP3    H271874   0.361   1.171  12.743 -1.8420 -0.1509 -1.2929
16795TIP3   OH271875   5.971   4.307   1.888  0.0219  0.6664  0.8527
16795TIP3    H171876   5.987   4.359   1.967 -2.5410  1.4756  0.9248
16795TIP3    H271877   5.878   4.284   1.893  0.4634 -1.7483 -0.5024
16796TIP3   OH271878   3.440   1.667   4.187  0.6137  0.3676 -0.8783
16796TIP3    H171879   3.400   1.732   4.129 -0.9381  2.2003  1.9809
16796TIP3    H271880   3.442   1.710   4.273  0.7190 -2.9160  0.9293
16797TIP3   OH271881   2.119   1.739  12.445  0.3800 -0.6089  0.3672
16797TIP3    H171882   2.055   1.810  12.444  1.9804  0.9189 -0.0171
16797TIP3    H271883   2.115   1.702  12.357  0.7729  0.2183 -0.0101
16798TIP3   OH271884   6.751   2.639   2.914  0.2156 -0.5566 -0.0063
16798TIP3    H171885   6.709   2.610   2.833 -1.1250  0.8602  0.1184
16798TIP3    H271886   6.712   2.586   2.982 -1.1753  0.4993  0.0628
16799TIP3   OH271887   4.322   0.574   3.296  0.5218 -0.2045  0.4292
16799TIP3    H171888   4.350   0.591   3.206  0.1645  1.0821  0.5392
16799TIP3    H271889   4.239   0.526   3.287  1.7245 -2.3310  0.1064
16800TIP3   OH271890   0.499   2.971   5.736 -0.0253 -0.3059 -0.5074
16800TIP3    H171891   0.532   3.055   5.768 -0.8800 -0.1727  0.0585
16800TIP3    H271892   0.433   2.995   5.671 -0.1598 -0.5391 -0.4567
16801TIP3   OH271893   3.439   1.225  12.485  0.8039  0.0874 -0.2290
16801TIP3    H171894   3.463   1.314  12.510  0.0539  0.0164  0.8356
16801TIP3    H271895   3.358   1.208  12.533  1.7283 -1.7025  0.8257
16802TIP3   OH271896   3.473   4.912   2.456 -0.3066  0.7166  0.1390
16802TIP3    H171897   3.485   4.933   2.363 -0.8003  0.9621  0.1267
16802TIP3    H271898   3.418   4.834   2.456 -0.2071  0.6467  0.2232
16803TIP3   OH271899   5.463   5.037   2.576  0.3949 -0.2564 -0.2376
16803TIP3    H171900   5.532   5.066   2.516  0.4710 -2.5405 -1.3767
16803TIP3    H271901   5.381   5.061   2.532  0.4626 -1.2650 -0.9699
16804TIP3   OH271902   3.810   5.688  15.343 -0.4645 -0.1958  0.2581
16804TIP3    H171903   3.786   5.623  15.277  1.7887  0.3341 -1.1906
16804TIP3    H271904   3.822   5.769  15.293  0.1839  0.5050  1.5104
16805TIP3   OH271905   3.140   3.857   1.922 -0.4794 -0.2030  0.2382
16805TIP3    H171906   3.078   3.930   1.919 -0.3155 -0.0435  0.7413
16805TIP3    H271907   3.170   3.848   1.832 -0.5248  0.3277  0.1668
16806TIP3   OH271908   5.256   0.685   3.593 -0.0559  0.2562  0.2623
16806TIP3    H171909   5.278   0.695   3.500  2.9488 -0.4499  0.8043
16806TIP3    H271910   5.168   0.648   3.593 -0.2477  0.5381 -2.2911
16807TIP3   OH271911   5.656   1.942  16.646 -0.0031 -0.1410  0.0458
16807TIP3    H171912   5.580   1.906  16.693  1.2812 -0.1010  2.2913
16807TIP3    H271913   5.710   1.865  16.627  0.6427  0.0916  0.8809
16808TIP3   OH271914   5.676   5.360  12.622 -0.1288  0.5129 -0.4423
16808TIP3    H171915   5.625   5.329  12.547  1.7621 -0.1758 -1.5361
16808TIP3    H271916   5.670   5.289  12.686 -2.3301  1.4005  0.4204
16809TIP3   OH271917   6.208   6.375  12.624  0.0063 -0.4564  0.5395
16809TIP3    H171918   6.200   6.388  12.529  1.2209 -0.7572  0.3750
16809TIP3    H271919   6.293   6.412  12.646  0.3377 -1.5921  1.2765
16810TIP3   OH271920   6.617   0.021   4.536  0.2589 -0.4755 -0.4707
16810TIP3    H171921   6.583   0.063   4.615  0.9348  0.3964 -0.6259
16810TIP3    H271922   6.671  -0.051   4.568  1.4596  0.5675 -0.0715
16811TIP3   OH271923   0.719   0.510   3.263  0.6400  0.0041  0.5476
16811TIP3    H171924   0.812   0.515   3.241  1.0088 -1.0369  1.7604
16811TIP3    H271925   0.713   0.541   3.354 -0.5005  1.9309 -0.1220
16812TIP3   OH271926   0.732   2.242  16.351 -0.4417  0.0945  0.2426
16812TIP3    H171927   0.639   2.234  16.368 -0.6014 -0.0253 -0.6287
16812TIP3    H271928   0.739   2.241  16.255  0.2556  2.3345  0.2162
16813TIP3   OH271929   2.071   0.705  16.215  0.0100 -0.0190 -0.0711
16813TIP3    H171930   1.980   0.687  16.190 -0.1743  2.0480 -1.1120
16813TIP3    H271931   2.100   0.771  16.152  1.2015  1.7083  2.1323
16814TIP3   OH271932   6.667   3.590   3.186  0.1310  0.0399 -0.0051
16814TIP3    H171933   6.634   3.599   3.097  0.4590  0.4188 -0.0927
16814TIP3    H271934   6.730   3.662   3.196 -0.4903  0.4893  0.7997
16815TIP3   OH271935   0.674   4.808  11.921  0.5197  0.4464  0.3908
16815TIP3    H171936   0.715   4.895  11.917  1.4954 -0.0458 -1.3975
16815TIP3    H271937   0.624   4.802  11.839  1.6705 -1.2203 -0.2298
16816TIP3   OH271938   1.220   1.847   1.785 -0.1447 -0.1163 -0.2694
16816TIP3    H171939   1.198   1.874   1.874  1.2172 -1.2237  0.4415
16816TIP3    H271940   1.214   1.752   1.786  0.7786 -0.2039 -1.0966
16817TIP3   OH271941   6.632   5.848  11.906  0.4440 -0.0049 -0.0525
16817TIP3    H171942   6.667   5.856  11.817 -0.4436 -0.2626 -0.4389
16817TIP3    H271943   6.557   5.907  11.907  0.7923  0.4292  0.7145
16818TIP3   OH271944   3.570   3.567  14.056 -0.1813 -0.3960  0.3918
16818TIP3    H171945   3.529   3.602  13.977 -1.0751  0.3293  1.1500
16818TIP3    H271946   3.533   3.479  14.066 -1.0921  0.0087  0.7070
16819TIP3   OH271947   3.838   4.874   2.348  0.2499  0.2870  0.6086
16819TIP3    H171948   3.872   4.930   2.417  1.9349  1.6630 -1.2066
16819TIP3    H271949   3.916   4.850   2.297 -0.9487 -0.3702 -0.9992
16820TIP3   OH271950   6.715   6.418  10.746 -0.0240  0.0778 -0.0088
16820TIP3    H171951   6.785   6.359  10.773 -1.2285 -2.2931 -1.7636
16820TIP3    H271952   6.645   6.404  10.810 -0.6728 -1.1982 -0.9545
16821TIP3   OH271953   4.774   2.070   3.733 -0.8806 -0.0805 -0.3931
16821TIP3    H171954   4.696   2.061   3.678 -0.9625 -0.3380 -0.2346
16821TIP3    H271955   4.843   2.095   3.672 -0.8341 -0.9559 -0.7083
16822TIP3   OH271956   2.819   2.145   1.479  0.1109  0.2255 -0.4143
16822TIP3    H171957   2.880   2.081   1.514 -0.9070 -0.5574 -0.0198
16822TIP3    H271958   2.735   2.100   1.478 -0.4850  1.3086 -0.8467
16823TIP3   OH271959   1.067   3.257   4.924 -0.0721  0.3357  0.0162
16823TIP3    H171960   1.013   3.255   5.004  0.7668 -2.3551  0.6528
16823TIP3    H271961   1.005   3.274   4.854 -0.9525  2.0795  1.1473
16824TIP3   OH271962   6.734   4.156   0.555  1.0556 -0.1802 -0.2227
16824TIP3    H171963   6.730   4.179   0.462  0.0984  0.1595 -0.1088
16824TIP3    H271964   6.735   4.240   0.601 -0.8358 -0.3128  0.1387
16825TIP3   OH271965   3.338   0.767  16.156 -0.0024 -0.0400  0.1216
16825TIP3    H171966   3.367   0.676  16.159  0.6392  0.1647  0.4498
16825TIP3    H271967   3.278   0.776  16.229  1.8974  0.4200  1.7297
16826TIP3   OH271968   0.741   6.199  11.040  0.3820  0.1089 -0.2257
16826TIP3    H171969   0.683   6.187  11.115  0.5138  1.7953  0.1876
16826TIP3    H271970   0.687   6.244  10.974  1.1069  1.4799  0.0735
16827TIP3   OH271971   4.445   5.722  17.106  0.1569 -0.4351 -0.0696
16827TIP3    H171972   4.394   5.684  17.034  1.1162 -1.4305 -0.2499
16827TIP3    H271973   4.536   5.711  17.079  0.5167 -0.4412  1.1089
16828TIP3   OH271974   5.710   1.198   5.648 -0.4576 -0.4098  0.2638
16828TIP3    H171975   5.785   1.227   5.700  0.7282 -0.4465 -1.3570
16828TIP3    H271976   5.721   1.103   5.642  0.0255 -0.2951 -0.9193
16829TIP3   OH271977   5.200   1.416   5.752 -0.2368 -0.0742 -0.5349
16829TIP3    H171978   5.201   1.354   5.679 -1.6946 -0.7628 -0.0225
16829TIP3    H271979   5.107   1.440   5.761 -0.2056 -0.5617  1.5295
16830TIP3   OH271980   0.262   5.125  15.498  0.4713  0.5691  0.2002
16830TIP3    H171981   0.352   5.129  15.468  0.3352 -0.7516 -0.4202
16830TIP3    H271982   0.249   5.034  15.525 -0.2752  1.0506  1.5735
16831TIP3   OH271983   5.922   4.825  12.236 -1.1253 -0.1823  0.0280
16831TIP3    H171984   5.848   4.883  12.256 -1.1222 -0.2424  0.2167
16831TIP3    H271985   5.881   4.742  12.212 -1.1053 -0.5496  1.1869
16832TIP3   OH271986   0.912   4.449  14.144 -0.2705 -0.7018  0.0210
16832TIP3    H171987   0.921   4.536  14.182  1.0999  0.7906 -3.2878
16832TIP3    H271988   0.818   4.434  14.137 -0.5382  0.9677 -0.2265
16833TIP3   OH271989   4.349   2.485   5.312 -0.4581 -0.1047  0.7738
16833TIP3    H171990   4.435   2.446   5.329 -1.0419 -0.7902  2.3161
16833TIP3    H271991   4.309   2.494   5.398 -1.8164  0.4887  0.1069
16834TIP3   OH271992   5.382   2.695  14.278  0.9177 -0.1101 -0.1063
16834TIP3    H171993   5.402   2.785  14.252  0.2228 -0.0136 -0.3372
16834TIP3    H271994   5.287   2.693  14.284  0.9773 -0.5829  0.8319
16835TIP3   OH271995   2.494   0.942   4.001  0.7394  0.7504 -0.4819
16835TIP3    H171996   2.416   0.995   3.988 -1.2931 -1.6515  0.9275
16835TIP3    H271997   2.494   0.881   3.927  0.0148 -0.5934  0.5729
16836TIP3   OH271998   3.021   4.640   3.117  0.1832  0.3297 -0.1218
16836TIP3    H171999   3.019   4.708   3.184  1.2571  0.3572 -0.1057
16836TIP3    H272000   3.043   4.687   3.036 -2.9798  0.6290 -0.9459
16837TIP3   OH272001   3.474   0.475   3.012 -0.1419 -0.0888  0.2358
16837TIP3    H172002   3.516   0.410   2.957  0.4058  1.2680 -1.0130
16837TIP3    H272003   3.380   0.462   2.998 -0.2931 -2.9683  2.8471
16838TIP3   OH272004   4.108   6.326  16.727  0.2544 -0.2377 -0.5334
16838TIP3    H172005   4.121   6.420  16.721 -0.9479 -0.0260  0.0053
16838TIP3    H272006   4.015   6.313  16.708  0.5624 -1.3962 -1.3714
16839TIP3   OH272007   0.929   4.062  16.170 -0.2739 -0.5057 -0.6478
16839TIP3    H172008   0.845   4.024  16.196  0.4659 -0.8758  1.4483
16839TIP3    H272009   0.948   4.024  16.084 -1.8031 -1.1205 -0.7389
16840TIP3   OH272010   3.783   6.107   1.078 -0.2202  0.3383  0.2792
16840TIP3    H172011   3.817   6.034   1.027 -0.8598 -0.4837  1.0017
16840TIP3    H272012   3.839   6.181   1.054 -0.4540 -0.0268 -1.5333
16841TIP3   OH272013   3.458   4.040  14.319  0.4621 -0.8263 -0.2481
16841TIP3    H172014   3.393   4.000  14.261 -0.3004  0.9822 -0.7382
16841TIP3    H272015   3.413   4.049  14.403  0.6529 -1.0810 -0.1202
16842TIP3   OH272016   0.274   4.627   4.685 -0.4434 -0.7146  0.1599
16842TIP3    H172017   0.198   4.684   4.699  0.9839  1.7420 -1.4438
16842TIP3    H272018   0.246   4.568   4.614 -1.1446 -0.3966  0.1626
16843TIP3   OH272019   5.001   0.589  16.747  0.1177 -0.0567 -0.2510
16843TIP3    H172020   4.933   0.628  16.802 -0.8913 -0.1593 -1.3958
16843TIP3    H272021   5.059   0.545  16.810 -1.6456 -1.1706  0.6982
16844TIP3   OH272022   4.070   1.850   5.133  0.1683 -0.6050 -0.4244
16844TIP3    H172023   4.023   1.885   5.058 -0.2328 -1.2334 -0.4703
16844TIP3    H272024   4.045   1.758   5.136  0.9697 -0.8199 -0.1233
16845TIP3   OH272025   4.020   0.653  15.041 -0.6948  0.2195  0.4391
16845TIP3    H172026   4.076   0.575  15.036 -0.6439  0.3267 -0.9673
16845TIP3    H272027   4.021   0.690  14.953  0.0935  2.4157  1.2969
16846TIP3   OH272028   0.438   4.902   0.831 -0.0405 -0.2070  0.3432
16846TIP3    H172029   0.399   4.848   0.763  0.8451  0.2280 -0.5399
16846TIP3    H272030   0.531   4.879   0.829  0.0443  0.0241  1.2156
16847TIP3   OH272031   6.715   5.314  16.476  0.2768 -0.1241 -0.0140
16847TIP3    H172032   6.711   5.383  16.409 -0.1501 -1.6735 -1.6583
16847TIP3    H272033   6.806   5.284  16.474  0.3984  0.1924  0.5144
16848TIP3   OH272034   1.252   1.814  14.442 -0.1135 -0.8541 -0.0693
16848TIP3    H172035   1.200   1.755  14.496 -1.6034  0.6721  0.2479
16848TIP3    H272036   1.232   1.901  14.476  2.2513 -0.1387 -0.2990
16849TIP3   OH272037   1.729   6.365   2.223  0.7819  0.6794 -0.2838
16849TIP3    H172038   1.718   6.460   2.236  1.3696  0.5759  1.1406
16849TIP3    H272039   1.650   6.327   2.261  0.0709  0.6157 -1.7395
16850TIP3   OH272040   6.562   3.794   0.097  0.2837 -0.0615  0.2588
16850TIP3    H172041   6.479   3.841   0.099  0.0012 -0.5668  2.1181
16850TIP3    H272042   6.541   3.709   0.058 -0.0127 -0.0769  0.4558
16851TIP3   OH272043   2.445   4.816   4.891  0.1385  0.2595  0.0615
16851TIP3    H172044   2.434   4.814   4.796 -1.0248 -1.4532  0.1953
16851TIP3    H272045   2.417   4.730   4.921 -0.7574  1.1719  2.0955
16852TIP3   OH272046   1.666   6.142   5.698 -0.2468  0.2629  0.2785
16852TIP3    H172047   1.696   6.230   5.720 -1.0842  0.8509 -0.8244
16852TIP3    H272048   1.746   6.090   5.692  0.4643  1.4427 -1.0954
16853TIP3   OH272049   5.734   3.437   5.137 -0.0485 -0.0702 -0.4455
16853TIP3    H172050   5.733   3.487   5.056 -0.2705 -0.7930 -0.9059
16853TIP3    H272051   5.815   3.463   5.181  0.2166  0.1199 -1.0342
16854TIP3   OH272052   5.463   6.600  17.136 -0.8510  0.2149  0.5191
16854TIP3    H172053   5.451   6.600  17.231 -2.1945  1.9825  0.4035
16854TIP3    H272054   5.482   6.509  17.114 -0.3572 -0.2000  2.4905
16855TIP3   OH272055   4.204   0.850   0.363 -0.5262 -0.0188 -0.1831
16855TIP3    H172056   4.194   0.880   0.454  1.4842  0.3136 -0.0272
16855TIP3    H272057   4.162   0.918   0.311  0.0077  0.7985  0.4157
16856TIP3   OH272058   4.776   3.094   1.604 -0.1853  0.2686  0.0722
16856TIP3    H172059   4.865   3.061   1.588 -0.0833 -0.1543  1.4482
16856TIP3    H272060   4.786   3.189   1.607  0.4125  0.1858  1.2194
16857TIP3   OH272061   5.789   4.682  16.982 -0.0488 -0.1023  0.4601
16857TIP3    H172062   5.876   4.671  16.944 -1.2811 -3.2266 -1.9121
16857TIP3    H272063   5.745   4.746  16.926  0.4542  1.0186  1.3012
16858TIP3   OH272064   2.162   6.493  17.051  0.3782 -0.4265  0.7121
16858TIP3    H172065   2.091   6.430  17.048 -1.1692  1.2390  0.6365
16858TIP3    H272066   2.188   6.496  17.143 -0.8045  0.1536  1.0411
16859TIP3   OH272067   3.893   4.460  12.671 -0.0131  0.9291  0.7847
16859TIP3    H172068   3.886   4.507  12.754  2.0649  1.0478  0.9371
16859TIP3    H272069   3.963   4.505  12.624  0.7318 -0.8372  0.1431
16860TIP3   OH272070   6.436   5.379  11.828 -0.1987 -0.5224  0.2794
16860TIP3    H172071   6.460   5.458  11.780 -0.2599 -1.1817 -0.8863
16860TIP3    H272072   6.520   5.340  11.852 -0.1571 -0.4685  0.2225
16861TIP3   OH272073   2.264   4.516   5.613  0.3694  0.5941 -0.1260
16861TIP3    H172074   2.322   4.474   5.550  1.2097 -1.1158  1.6574
16861TIP3    H272075   2.235   4.444   5.670 -1.0269  1.9086  0.9186
16862TIP3   OH272076   2.002   0.666   1.131  0.2906  0.4412  0.3572
16862TIP3    H172077   2.024   0.711   1.213 -1.8346  2.1243  0.0693
16862TIP3    H272078   1.931   0.717   1.093  0.4851 -0.9151 -2.0404
16863TIP3   OH272079   5.805   0.170  16.393  0.4361 -0.6181  0.5164
16863TIP3    H172080   5.724   0.220  16.383 -0.7904 -2.5891 -0.1235
16863TIP3    H272081   5.786   0.107  16.463  2.0939  0.0524  1.6499
16864TIP3   OH272082   5.082   5.159   5.766  0.1512  0.2317  0.5430
16864TIP3    H172083   4.990   5.159   5.795 -0.4344 -2.3254 -1.0008
16864TIP3    H272084   5.131   5.126   5.842 -0.6816 -1.4470  0.4108
16865TIP3   OH272085   3.354   4.602  12.512 -0.2589 -0.1887  0.2341
16865TIP3    H172086   3.437   4.634  12.476  0.2116 -0.0446  1.3853
16865TIP3    H272087   3.378   4.561  12.595 -0.9416 -3.0107 -0.8480
16866TIP3   OH272088   1.131   4.578  10.887  0.6468  0.0706  0.0553
16866TIP3    H172089   1.153   4.660  10.842 -0.0919  1.0696  1.4381
16866TIP3    H272090   1.118   4.515  10.816  0.1226  1.4325 -1.1160
16867TIP3   OH272091   3.479   1.024   3.206 -0.1266  0.5960  0.9912
16867TIP3    H172092   3.543   1.082   3.246  0.2867  2.3725 -1.9225
16867TIP3    H272093   3.423   1.082   3.154 -0.4006 -1.4319 -1.1743
16868TIP3   OH272094   0.559   1.061  12.455  0.0717  0.1740 -0.2457
16868TIP3    H172095   0.501   0.998  12.413  0.9949 -1.6159  1.0093
16868TIP3    H272096   0.518   1.078  12.540  0.4230  0.3434 -0.1079
16869TIP3   OH272097   1.752   6.432  14.495  0.5536 -0.2670 -0.3085
16869TIP3    H172098   1.690   6.431  14.422 -0.8795  3.4235  0.6450
16869TIP3    H272099   1.703   6.396  14.569 -0.2045  1.7569  0.2179
16870TIP3   OH272100   1.095   1.683  12.052 -0.1574 -0.0969  0.7051
16870TIP3    H172101   1.121   1.697  12.143 -1.0822 -1.3773  1.2105
16870TIP3    H272102   1.002   1.705  12.050  0.0433  0.7372 -0.1461
16871TIP3   OH272103   1.273   2.042   5.653  0.3078  0.0057 -0.5347
16871TIP3    H172104   1.324   2.040   5.734 -0.2872  1.0915 -0.1139
16871TIP3    H272105   1.232   2.129   5.653  1.9542  0.8927 -3.0377
16872TIP3   OH272106   5.435   5.655  11.980 -0.6323 -0.0800  0.3628
16872TIP3    H172107   5.342   5.636  11.983 -0.9026  0.5145 -2.1696
16872TIP3    H272108   5.471   5.593  11.917  0.2215  1.2312 -0.5046
16873TIP3   OH272109   4.702   3.888  16.486  0.4236 -0.5221 -0.6572
16873TIP3    H172110   4.634   3.944  16.525  0.4075  0.0382 -1.4683
16873TIP3    H272111   4.674   3.799  16.506 -0.3304 -0.2834 -0.6279
16874TIP3   OH272112   5.176   3.725   3.528  0.2396  0.3964 -0.1393
16874TIP3    H172113   5.244   3.749   3.592  0.5701  0.8499 -0.6529
16874TIP3    H272114   5.158   3.633   3.546  2.0119 -0.1396 -0.8999
16875TIP3   OH272115   4.057   5.373   3.706 -0.4877  0.3119  0.6106
16875TIP3    H172116   4.042   5.319   3.784  0.1555  0.8372  1.1073
16875TIP3    H272117   4.133   5.426   3.728 -1.1848  1.5205  0.1750
16876TIP3   OH272118   2.226   0.935  16.421 -0.5338  0.4321  0.1191
16876TIP3    H172119   2.182   0.982  16.350 -0.8099 -0.8917 -0.6242
16876TIP3    H272120   2.317   0.963  16.416 -0.2715 -0.6415 -1.6423
16877TIP3   OH272121   0.800   3.050   2.806  0.5816  0.5158  0.0087
16877TIP3    H172122   0.746   2.989   2.756  1.7679  0.2677 -1.0176
16877TIP3    H272123   0.792   3.019   2.897 -0.1085 -0.1814 -0.2774
16878TIP3   OH272124   1.005   5.214  15.105  0.5067 -0.2861 -0.1261
16878TIP3    H172125   1.043   5.261  15.031 -1.3892 -0.3221 -1.1871
16878TIP3    H272126   1.016   5.122  15.083  0.1482 -0.2990 -0.2532
16879TIP3   OH272127   3.906   1.583  12.256 -0.1029 -0.4093 -0.1647
16879TIP3    H172128   3.828   1.614  12.303  0.3284  0.9011 -0.2517
16879TIP3    H272129   3.878   1.503  12.213 -1.6281  0.3987 -0.7701
16880TIP3   OH272130   2.016   3.373  15.071 -0.8749  0.6995 -0.6464
16880TIP3    H172131   1.988   3.363  15.162  0.9868 -0.8380 -0.1741
16880TIP3    H272132   2.079   3.445  15.072  0.0577 -0.0986 -0.4583
16881TIP3   OH272133   4.495   1.843   1.904  0.1372  0.2259 -0.9667
16881TIP3    H172134   4.585   1.875   1.894  1.0370 -2.3738 -1.8412
16881TIP3    H272135   4.466   1.881   1.988  2.4950  0.1169 -0.0215
16882TIP3   OH272136   3.630   6.415  10.766  0.0021 -0.0665 -0.1342
16882TIP3    H172137   3.604   6.340  10.712 -2.0433 -0.1882  0.9395
16882TIP3    H272138   3.550   6.443  10.809  0.9327  2.0888  0.3432
16883TIP3   OH272139   4.826   0.116  12.616  1.0925 -0.0762  0.1775
16883TIP3    H172140   4.889   0.045  12.604  0.2706 -0.8730  0.4583
16883TIP3    H272141   4.867   0.192  12.575  2.3409 -0.5128  0.5744
16884TIP3   OH272142   2.593   0.532  14.021  0.0798  0.1210 -0.2506
16884TIP3    H172143   2.580   0.437  14.020  2.1368 -0.1995 -0.1438
16884TIP3    H272144   2.643   0.549  14.100  0.2756  1.2320 -0.5898
16885TIP3   OH272145   2.561   3.113   0.946 -0.4086  0.1387 -0.2815
16885TIP3    H172146   2.649   3.147   0.962 -0.2148 -0.0463 -0.9304
16885TIP3    H272147   2.503   3.178   0.985  0.0351 -0.3868  1.3249
16886TIP3   OH272148   6.091   2.401  15.343 -0.4698  0.1245 -0.1789
16886TIP3    H172149   6.067   2.341  15.273  0.3574 -1.2101  0.6378
16886TIP3    H272150   6.012   2.410  15.396 -0.2624 -1.3137  0.4220
16887TIP3   OH272151   0.528   2.416  15.105  0.4237 -0.2641 -0.0954
16887TIP3    H172152   0.472   2.358  15.053 -0.3158  1.5509 -1.4575
16887TIP3    H272153   0.613   2.373  15.105 -0.1520 -1.4718 -0.8206
16888TIP3   OH272154   1.500   5.755   3.924 -0.7891 -0.2755  0.0051
16888TIP3    H172155   1.428   5.818   3.934  0.2361  1.4753 -2.6042
16888TIP3    H272156   1.558   5.774   3.997 -2.1434 -0.6061  1.2147
16889TIP3   OH272157   0.913   1.637  13.941  0.3199  0.1826 -0.5468
16889TIP3    H172158   0.892   1.661  14.031 -0.5225 -1.0368 -0.3889
16889TIP3    H272159   0.840   1.671  13.889 -1.0716 -2.1787 -0.2758
16890TIP3   OH272160   3.450   1.952  12.585 -0.1228 -0.6129 -0.2486
16890TIP3    H172161   3.473   1.997  12.503  1.2299  0.7526  0.8112
16890TIP3    H272162   3.414   2.021  12.641  1.5857 -0.8477  1.2641
16891TIP3   OH272163   5.066   1.226   1.709 -0.1669  0.0347 -0.2905
16891TIP3    H172164   5.017   1.155   1.668  1.0397 -0.8830 -0.2031
16891TIP3    H272165   5.105   1.186   1.787  1.5311  0.4270 -0.8794
16892TIP3   OH272166   6.691   2.078  12.964  0.0254 -0.3321 -0.0017
16892TIP3    H172167   6.739   2.075  13.047  0.3682 -1.1685 -0.2160
16892TIP3    H272168   6.747   2.030  12.903 -0.4471 -0.1282 -0.5969
16893TIP3   OH272169   1.868   6.711  16.920 -0.2263 -0.6856  0.4428
16893TIP3    H172170   1.914   6.706  17.004 -0.7335  2.3464  1.0352
16893TIP3    H272171   1.937   6.730  16.856 -0.2695  2.2283  1.0842
16894TIP3   OH272172   2.126   0.756   2.598 -0.4735  0.1618 -0.3127
16894TIP3    H172173   2.184   0.831   2.581 -0.9002  0.1320 -2.0916
16894TIP3    H272174   2.132   0.703   2.519 -1.9455 -0.4985 -0.0040
16895TIP3   OH272175   6.174   0.051   5.807  0.1166 -0.0491 -0.1227
16895TIP3    H172176   6.229  -0.006   5.754 -0.1032 -0.3398 -0.0354
16895TIP3    H272177   6.233   0.087   5.873  0.3050  0.0146 -0.3233
16896TIP3   OH272178   1.882   2.522  12.592  0.3127 -0.1539  0.5749
16896TIP3    H172179   1.827   2.523  12.670  0.4765 -1.5490  0.7234
16896TIP3    H272180   1.868   2.608  12.552 -1.4364 -0.2232  0.9685
16897TIP3   OH272181   5.271   5.781   3.530  0.5050 -0.2138  0.0649
16897TIP3    H172182   5.247   5.716   3.596 -2.4535  0.4157 -0.2301
16897TIP3    H272183   5.280   5.863   3.579 -2.5134  0.4275 -0.2451
16898TIP3   OH272184   0.920   6.211   5.839  0.3181  0.1011  0.3794
16898TIP3    H172185   0.875   6.245   5.916 -1.4515 -1.0238 -0.0910
16898TIP3    H272186   0.967   6.133   5.870  0.2426  0.0975  0.4837
16899TIP3   OH272187   6.733   5.693   1.129  0.1411 -0.2777 -0.9263
16899TIP3    H172188   6.795   5.703   1.056  0.9158  1.7786 -0.0488
16899TIP3    H272189   6.770   5.623   1.182  1.5055  0.6094 -0.6588
16900TIP3   OH272190   4.242   4.779   5.410  0.0964 -0.0259 -0.4588
16900TIP3    H172191   4.296   4.737   5.343 -0.2402 -0.6214 -0.3599
16900TIP3    H272192   4.163   4.725   5.415 -0.2268  0.4696 -0.1439
16901TIP3   OH272193   6.025   4.110  16.068  0.0410  0.2463 -0.7859
16901TIP3    H172194   6.092   4.148  16.011  1.8224 -2.2276 -0.4776
16901TIP3    H272195   6.030   4.162  16.149 -0.0765  1.5319 -1.5638
16902TIP3   OH272196   6.807   4.299  12.911  0.0713 -0.5135  0.3788
16902TIP3    H172197   6.762   4.381  12.895  1.6235  0.2712 -0.1651
16902TIP3    H272198   6.796   4.248  12.831  0.5245 -0.1349  0.0720
16903TIP3   OH272199   4.652   5.716   5.613  0.1598 -0.0664  0.2443
16903TIP3    H172200   4.722   5.710   5.548  0.4290  0.2765  0.4985
16903TIP3    H272201   4.571   5.717   5.562  0.2113 -2.4051 -0.0019
16904TIP3   OH272202   0.841   0.737  13.035 -0.1861  0.1036  0.1215
16904TIP3    H172203   0.830   0.691  13.119  1.4348 -0.9447 -0.1854
16904TIP3    H272204   0.791   0.685  12.972  1.2359 -1.0443 -0.1291
16905TIP3   OH272205   5.163   2.638   1.893  0.0909  0.3977 -0.0664
16905TIP3    H172206   5.179   2.584   1.970  0.4258  0.0430 -0.3797
16905TIP3    H272207   5.195   2.725   1.917 -2.3064  1.0141  1.1831
16906TIP3   OH272208   4.886   4.318   5.163  0.2423 -0.0945 -0.4498
16906TIP3    H172209   4.803   4.354   5.131 -0.2837 -0.1635  0.7540
16906TIP3    H272210   4.885   4.226   5.135  0.1411  0.0350 -0.8712
16907TIP3   OH272211   5.149   0.522  13.592  0.3639  0.3330 -0.5633
16907TIP3    H172212   5.174   0.490  13.679  1.2457  0.2427 -0.8371
16907TIP3    H272213   5.103   0.449  13.552 -0.2881  0.4708 -0.0720
16908TIP3   OH272214   2.190   6.116  12.789  0.6639  0.3143  0.1732
16908TIP3    H172215   2.157   6.100  12.877  1.5345  2.2005  0.8960
16908TIP3    H272216   2.116   6.098  12.732 -0.1780 -0.0877  1.3423
16909TIP3   OH272217   1.455   2.006  13.210 -0.1563  0.4008 -0.2682
16909TIP3    H172218   1.510   1.950  13.266  1.8170  0.6838 -1.7908
16909TIP3    H272219   1.365   1.981  13.232  0.5478 -0.2790  2.1742
16910TIP3   OH272220   6.611   2.622  12.076  0.0292  0.0106 -0.0268
16910TIP3    H172221   6.668   2.670  12.136  1.9490 -1.6999 -0.3607
16910TIP3    H272222   6.524   2.629  12.114  0.9768  0.0486  2.2898
16911TIP3   OH272223   3.715   1.158  13.316  0.3050  0.0361  0.1006
16911TIP3    H172224   3.775   1.084  13.303 -0.1648 -0.1386 -1.2261
16911TIP3    H272225   3.730   1.215  13.240 -0.7105  0.3350  0.1099
16912TIP3   OH272226   4.760   2.964   6.271  0.3171 -0.1231 -0.1036
16912TIP3    H172227   4.830   2.912   6.311  2.0294  1.5118 -0.8237
16912TIP3    H272228   4.682   2.909   6.280  1.2430 -1.2051  2.5103
16913TIP3   OH272229   3.855   5.851  11.779  0.2411  0.2821  0.0871
16913TIP3    H172230   3.872   5.874  11.688 -0.6414 -1.2674 -0.5030
16913TIP3    H272231   3.878   5.930  11.828  0.9366  1.0728 -1.4425
16914TIP3   OH272232   6.564   3.115   1.231 -0.2592 -0.4982  0.2819
16914TIP3    H172233   6.589   3.023   1.239  0.7338 -0.1888  0.9042
16914TIP3    H272234   6.526   3.137   1.317 -0.1962 -0.2448  0.2459
16915TIP3   OH272235   4.875   1.735   3.235 -0.0132 -0.3354 -0.1835
16915TIP3    H172236   4.929   1.772   3.165  0.4728 -1.9313 -0.7217
16915TIP3    H272237   4.823   1.667   3.190  1.7780 -2.8242  1.2802
16916TIP3   OH272238   0.087   1.890  14.092 -0.2493  0.7084 -0.4628
16916TIP3    H172239   0.163   1.924  14.045  1.8906 -0.8156  1.6777
16916TIP3    H272240   0.069   1.805  14.051  0.0297  0.4934 -0.1426
16917TIP3   OH272241   0.260   3.069   0.653  0.4280  0.6778  0.4271
16917TIP3    H172242   0.175   3.035   0.624  0.5519 -0.3405  1.1749
16917TIP3    H272243   0.271   3.032   0.741  1.4586  1.1438  0.5040
16918TIP3   OH272244   0.705   3.694   5.401  0.4574 -0.0090  0.2527
16918TIP3    H172245   0.725   3.772   5.349 -1.4774 -0.1019 -0.7223
16918TIP3    H272246   0.680   3.729   5.487  0.6286  0.3731  0.1518
16919TIP3   OH272247   5.451   1.411  10.432 -0.4005 -0.3647 -0.8966
16919TIP3    H172248   5.442   1.319  10.407  0.1646 -0.4513 -0.7761
16919TIP3    H272249   5.485   1.409  10.521 -1.4315 -0.0437 -0.4796
16920TIP3   OH272250   4.663   4.297   4.591 -0.2623 -0.3286  0.3824
16920TIP3    H172251   4.728   4.262   4.530 -0.2954 -0.3706  0.3712
16920TIP3    H272252   4.663   4.392   4.574 -0.7354 -0.4134 -0.1373
16921TIP3   OH272253   3.930   2.982  15.256 -0.3837  0.0607  0.0228
16921TIP3    H172254   3.910   2.997  15.164 -0.6923  0.1831  0.1093
16921TIP3    H272255   3.847   2.992  15.301  0.0987  1.9196  0.5644
16922TIP3   OH272256   4.193   3.017   3.344 -0.2799 -0.0739 -0.5453
16922TIP3    H172257   4.127   3.011   3.413  0.4888 -0.8725  0.1456
16922TIP3    H272258   4.203   2.926   3.314  0.2318  0.0994 -0.8966
16923TIP3   OH272259   5.184   4.647   3.428 -0.2208 -0.5451  0.4718
16923TIP3    H172260   5.179   4.554   3.450  1.5207 -0.3270  2.0792
16923TIP3    H272261   5.093   4.674   3.415 -0.7220 -2.6045 -0.7680
16924TIP3   OH272262   1.298   5.802  16.208 -0.5684 -0.4122 -0.2323
16924TIP3    H172263   1.270   5.753  16.131 -0.0926 -0.3049 -0.4768
16924TIP3    H272264   1.381   5.761  16.234 -1.2403 -1.1337  0.8619
16925TIP3   OH272265   2.630   1.544  12.293  0.0554  0.7594  0.0008
16925TIP3    H172266   2.539   1.538  12.265 -0.1876 -0.7945  1.0140
16925TIP3    H272267   2.665   1.456  12.281  1.1843  1.1212  0.4520
16926TIP3   OH272268   4.714   1.228   1.836 -0.0150 -0.6631  0.7325
16926TIP3    H172269   4.797   1.225   1.884 -0.3558  0.0551  1.4010
16926TIP3    H272270   4.648   1.212   1.903 -0.4961  0.2905  0.4971
16927TIP3   OH272271   1.036   2.737  14.379 -0.3394  0.8226  0.2056
16927TIP3    H172272   0.978   2.732  14.455 -0.9507  1.8482 -0.1780
16927TIP3    H272273   0.984   2.778  14.311  0.1873 -0.1286 -0.8044
16928TIP3   OH272274   2.216   6.788  16.918  0.3052  0.2554  0.3398
16928TIP3    H172275   2.218   6.818  17.009  0.3582  0.0810  0.3960
16928TIP3    H272276   2.220   6.693  16.924 -0.5057  0.2068  0.1832
16929TIP3   OH272277   4.555   2.819   4.389 -0.2636  0.3998 -0.0086
16929TIP3    H172278   4.527   2.910   4.378  0.0454  0.4426 -0.4523
16929TIP3    H272279   4.564   2.785   4.300 -0.6386 -0.1487  0.1547
16930TIP3   OH272280   3.079   1.602  13.956 -0.0308 -0.0881 -0.5401
16930TIP3    H172281   3.153   1.637  14.004  0.6220 -1.2583 -0.6465
16930TIP3    H272282   3.002   1.636  14.001  0.5691  0.8617 -0.2183
16931TIP3   OH272283   0.830   4.755   0.245  0.0651 -0.2267  0.0712
16931TIP3    H172284   0.828   4.823   0.178 -0.0555 -1.1247 -0.8661
16931TIP3    H272285   0.745   4.762   0.288  0.0161  0.1539 -0.0778
16932TIP3   OH272286   0.888   6.135  15.723  0.0066 -1.0338  0.1379
16932TIP3    H172287   0.823   6.073  15.692 -0.6968 -0.2977  0.0906
16932TIP3    H272288   0.837   6.204  15.767  0.7368 -0.3734 -0.0116
16933TIP3   OH272289   4.646   6.155   1.736 -0.3711 -0.0813 -0.2748
16933TIP3    H172290   4.658   6.101   1.658 -0.5832  0.6641 -0.8346
16933TIP3    H272291   4.725   6.210   1.739 -0.8937  0.6983 -0.6227
16934TIP3   OH272292   6.600   2.762  12.975 -0.1189 -0.3175  0.3201
16934TIP3    H172293   6.531   2.726  13.031  0.4397 -1.8126  0.0941
16934TIP3    H272294   6.656   2.687  12.955  1.7499  0.9055  0.7325
16935TIP3   OH272295   5.059   2.268   3.876  0.1354  0.6154  0.1073
16935TIP3    H172296   5.043   2.340   3.814 -0.7424  0.4277  0.1055
16935TIP3    H272297   4.975   2.255   3.920  0.5210  0.1623  0.7233
16936TIP3   OH272298   4.426   0.785   3.959 -0.0504 -0.0835 -0.0897
16936TIP3    H172299   4.453   0.875   3.973 -0.0572  0.2183 -1.8442
16936TIP3    H272300   4.350   0.774   4.016 -0.2558  1.1177 -0.1128
16937TIP3   OH272301   1.848   3.959   4.704 -0.0527  0.1544  0.2848
16937TIP3    H172302   1.821   4.051   4.712  0.5859  0.2643  1.4175
16937TIP3    H272303   1.786   3.911   4.759  0.3011  0.0537  0.5996
16938TIP3   OH272304   2.034   5.940   4.766 -0.2589 -0.9202 -0.0949
16938TIP3    H172305   2.087   5.996   4.823 -0.1847  1.5008 -2.3483
16938TIP3    H272306   1.954   5.924   4.817  0.5315 -0.3847  1.3822
16939TIP3   OH272307   1.834   2.331   3.090 -0.1313  0.0339 -0.0704
16939TIP3    H172308   1.868   2.292   3.171  0.3094 -1.8470 -1.1069
16939TIP3    H272309   1.882   2.414   3.082  0.5346 -0.2117  1.0872
16940TIP3   OH272310   0.810   2.895   5.883  0.0874  0.0652  0.0856
16940TIP3    H172311   0.800   2.926   5.792 -0.0451  2.3135  0.8055
16940TIP3    H272312   0.728   2.919   5.926  0.1160 -1.0617  0.7972
16941TIP3   OH272313   1.741   1.507  13.809 -0.1108 -0.7742 -0.3925
16941TIP3    H172314   1.772   1.442  13.871  2.0895  1.6542  1.2689
16941TIP3    H272315   1.815   1.519  13.748 -1.1181 -0.9683 -1.7044
16942TIP3   OH272316   2.152   5.073  15.502 -0.1306  0.4847 -0.2792
16942TIP3    H172317   2.091   5.136  15.464 -0.3161  0.4484 -0.0450
16942TIP3    H272318   2.224   5.126  15.536  0.6846  0.4354 -1.8357
16943TIP3   OH272319   1.232   1.662   2.445 -0.4663  0.3530 -0.4047
16943TIP3    H172320   1.197   1.627   2.363 -0.2827 -0.2431 -0.2310
16943TIP3    H272321   1.203   1.753   2.446 -2.1380 -0.1548 -0.1960
16944TIP3   OH272322   2.128   6.025  10.520 -0.0966  0.4284  0.3113
16944TIP3    H172323   2.120   6.118  10.537 -2.0345 -0.1076  3.0198
16944TIP3    H272324   2.038   5.995  10.508  0.5636 -0.9575 -1.8731
16945TIP3   OH272325   4.322   3.114   3.028 -0.2887 -0.1597  0.9509
16945TIP3    H172326   4.347   3.032   3.071  0.2511  0.6405  2.2265
16945TIP3    H272327   4.362   3.183   3.081 -1.0703  0.9612  0.1528
16946TIP3   OH272328   0.890   2.630  11.393  0.1234 -0.3437  0.1226
16946TIP3    H172329   0.951   2.639  11.321 -1.5535  1.4896 -1.1610
16946TIP3    H272330   0.905   2.707  11.448 -0.2174 -0.4964  0.4394
16947TIP3   OH272331   6.278   0.280   4.420 -0.4356 -0.3136 -0.3341
16947TIP3    H172332   6.245   0.194   4.394 -2.5473  0.5791 -0.8422
16947TIP3    H272333   6.240   0.295   4.507 -2.0191  0.9817 -1.1751
16948TIP3   OH272334   4.496   2.077   5.038  0.3801  0.1102  0.0664
16948TIP3    H172335   4.421   2.053   5.093 -0.3231 -1.0345 -1.2993
16948TIP3    H272336   4.532   1.993   5.010  1.2928  0.6662 -0.4567
16949TIP3   OH272337   4.804   5.804   2.293  0.5568 -0.4246  0.2635
16949TIP3    H172338   4.860   5.864   2.342  1.5390 -0.3022 -0.9412
16949TIP3    H272339   4.858   5.778   2.218 -0.2933 -1.8788  0.1241
16950TIP3   OH272340   4.525   6.302   1.021 -0.1009  0.0037  0.4147
16950TIP3    H172341   4.554   6.286   1.111  1.8122  0.4812 -0.0728
16950TIP3    H272342   4.521   6.398   1.015 -1.3306 -0.0439  0.3029
16951TIP3   OH272343   0.742   2.496   4.890 -0.2720 -0.5795 -0.4388
16951TIP3    H172344   0.809   2.565   4.891  0.2710 -1.0945 -0.4607
16951TIP3    H272345   0.663   2.540   4.860  0.4635 -0.3115 -2.1318
16952TIP3   OH272346   1.951   0.763   2.314 -0.5009 -0.5118 -0.0578
16952TIP3    H172347   1.906   0.714   2.246  1.1854 -0.6729 -1.1050
16952TIP3    H272348   2.010   0.700   2.354 -0.3587 -0.0289  0.5146
16953TIP3   OH272349   5.751   5.088  13.809  0.0259 -0.0054 -0.5575
16953TIP3    H172350   5.840   5.077  13.841 -0.2910 -0.2644  0.2595
16953TIP3    H272351   5.735   5.182  13.812  0.1162  0.0006 -0.2648
16954TIP3   OH272352   5.425   2.432  15.473 -0.0073 -0.1008  0.4718
16954TIP3    H172353   5.342   2.392  15.499 -0.6601  0.5178 -0.5743
16954TIP3    H272354   5.466   2.459  15.555 -0.8786 -0.3304  0.9951
16955TIP3   OH272355   2.028   3.000  13.226  0.3278 -0.1662  0.1780
16955TIP3    H172356   2.036   2.905  13.224  1.3562 -0.0879 -1.1454
16955TIP3    H272357   2.002   3.021  13.315  2.3913 -1.5254  1.1639
16956TIP3   OH272358   0.926   1.393   4.993  0.5268 -0.1204 -0.2313
16956TIP3    H172359   0.970   1.373   5.075  2.0838  0.4265 -0.8859
16956TIP3    H272360   0.890   1.481   5.006 -0.5326 -0.6254  0.3566
16957TIP3   OH272361   5.003   6.451  15.433  0.2805 -0.2559 -0.1726
16957TIP3    H172362   5.027   6.401  15.510  2.5710 -0.7026 -1.0736
16957TIP3    H272363   5.036   6.399  15.359 -1.3008  0.4375 -1.4446
16958TIP3   OH272364   4.386   0.090  15.638  0.0051  0.5969  0.5857
16958TIP3    H172365   4.406   0.180  15.661 -0.6904  0.3961  2.0721
16958TIP3    H272366   4.430   0.076  15.554  3.6423  1.0487  2.2422
16959TIP3   OH272367   4.022   5.472  15.902  0.4474 -0.6395  0.2820
16959TIP3    H172368   4.008   5.561  15.870  0.6086 -0.7955 -0.2399
16959TIP3    H272369   4.092   5.437  15.846  0.8346 -0.8754  0.8983
16960TIP3   OH272370   5.694   1.274   3.945  0.2192 -0.1001 -0.2764
16960TIP3    H172371   5.730   1.305   3.862 -0.1992  0.6291 -0.1951
16960TIP3    H272372   5.601   1.264   3.929 -0.0597  1.1931  0.4257
16961TIP3   OH272373   2.081   5.277   3.629 -0.2229  0.0056  0.5419
16961TIP3    H172374   2.139   5.207   3.658  1.4050  0.8168 -0.6281
16961TIP3    H272375   2.139   5.347   3.599 -1.7982  1.1273 -0.0853
16962TIP3   OH272376   2.377   4.978  16.352  0.1233 -0.1915 -0.8079
16962TIP3    H172377   2.417   5.051  16.401  1.3666 -0.0046 -2.0521
16962TIP3    H272378   2.289   5.009  16.333  0.1351  0.3722 -0.0388
16963TIP3   OH272379   0.377   5.090   0.269 -0.7178 -0.5053 -0.3784
16963TIP3    H172380   0.357   5.024   0.335 -2.2655 -0.1822 -0.4778
16963TIP3    H272381   0.373   5.173   0.317 -0.6931 -0.3540 -0.6380
16964TIP3   OH272382   3.586   3.465   0.050 -0.2237 -0.6005  0.0307
16964TIP3    H172383   3.679   3.460   0.071 -0.2300  1.0940  0.5839
16964TIP3    H272384   3.579   3.537  -0.012 -1.1515 -0.8447 -0.1595
16965TIP3   OH272385   6.199   6.754  12.028 -0.0601 -0.1014  0.2029
16965TIP3    H172386   6.219   6.846  12.010 -1.9143  0.2131 -0.4831
16965TIP3    H272387   6.176   6.752  12.121 -0.9013  0.3111  0.0099
16966TIP3   OH272388   1.010   6.134   3.113 -1.0307  0.1304  0.9592
16966TIP3    H172389   1.100   6.118   3.141 -1.1166 -0.4249  0.9347
16966TIP3    H272390   0.958   6.129   3.194 -1.0976 -0.0384  0.9070
16967TIP3   OH272391   2.560   4.315  11.932 -0.1139 -0.5857 -0.2231
16967TIP3    H172392   2.473   4.305  11.893 -0.2725 -0.0198 -0.0249
16967TIP3    H272393   2.619   4.276  11.868 -0.4283 -0.1736 -0.7747
16968TIP3   OH272394   3.621   4.566   3.957 -0.5837 -0.3083 -0.3870
16968TIP3    H172395   3.695   4.622   3.980 -1.5079  0.8140 -0.0553
16968TIP3    H272396   3.636   4.543   3.865  0.6248 -0.8424 -0.0786
16969TIP3   OH272397   1.731   0.165   1.498  0.0919 -0.3665 -0.0117
16969TIP3    H172398   1.721   0.115   1.417  0.9842  1.2299 -1.1835
16969TIP3    H272399   1.816   0.137   1.533  1.0246  0.9190 -1.1545
16970TIP3   OH272400   3.858   1.822  12.578 -0.6411 -0.1516 -0.2403
16970TIP3    H172401   3.817   1.806  12.493 -0.9852 -0.1220 -0.0831
16970TIP3    H272402   3.794   1.789  12.641 -1.0714  1.1952  0.0682
16971TIP3   OH272403   3.889   6.060  14.229 -0.5887 -0.4875 -0.1544
16971TIP3    H172404   3.797   6.083  14.237 -0.2505  1.5201 -1.4603
16971TIP3    H272405   3.912   6.080  14.138  1.3236 -0.1246  0.3532
16972TIP3   OH272406   3.855   0.852   3.173  0.1256 -0.0928 -0.2080
16972TIP3    H172407   3.867   0.827   3.081  0.5930  2.2545 -0.8825
16972TIP3    H272408   3.884   0.944   3.176 -0.5149  0.1005  2.1530
16973TIP3   OH272409   1.726   2.090  15.753  0.3410  0.1892 -0.0966
16973TIP3    H172410   1.779   2.122  15.680  1.6723  0.0101  0.7656
16973TIP3    H272411   1.713   1.997  15.736  0.3360  0.2275 -0.2936
16974TIP3   OH272412   5.536   2.248   3.133  0.0937  0.1837 -0.2693
16974TIP3    H172413   5.536   2.230   3.227 -0.7222 -0.4666 -0.3855
16974TIP3    H272414   5.551   2.342   3.127  1.8178 -0.0049  0.4510
16975TIP3   OH272415   0.688   0.265   4.947 -0.4897 -0.3249 -0.3320
16975TIP3    H172416   0.740   0.337   4.912  0.0553 -0.4262  0.2500
16975TIP3    H272417   0.753   0.204   4.982 -0.9830 -0.6871 -0.0401
16976TIP3   OH272418   1.404   2.232  16.279 -0.2719 -0.0021  0.3969
16976TIP3    H172419   1.500   2.233  16.279 -0.2686 -0.1248  0.7102
16976TIP3    H272420   1.379   2.316  16.242 -0.0396 -0.2016 -0.2186
16977TIP3   OH272421   4.587   5.383  17.218  0.1250 -0.3834 -0.6662
16977TIP3    H172422   4.556   5.440  17.147 -0.0221  0.0184 -0.2871
16977TIP3    H272423   4.519   5.317  17.227 -0.1648 -0.0632 -0.4780
16978TIP3   OH272424   2.129   1.543  14.496 -0.0097  0.2801 -0.5687
16978TIP3    H172425   2.090   1.490  14.566  0.9654 -3.1317 -2.3858
16978TIP3    H272426   2.055   1.578  14.448 -0.7793 -1.0427 -0.3938
16979TIP3   OH272427   1.536   5.072   4.377 -0.1524  0.4066 -0.3465
16979TIP3    H172428   1.522   5.151   4.326  0.5734  0.1708 -0.9269
16979TIP3    H272429   1.487   5.086   4.458  0.1869  1.5630 -0.3283
16980TIP3   OH272430   0.671   4.740  14.177  0.1508  0.2609  0.0853
16980TIP3    H172431   0.706   4.829  14.167 -0.9598  0.7725  0.5057
16980TIP3    H272432   0.643   4.735  14.269  0.5868 -0.6783  0.1770
16981TIP3   OH272433   3.065   5.804  13.777 -0.9190 -0.0927 -0.1606
16981TIP3    H172434   3.016   5.727  13.748 -1.4816 -0.2773  1.1911
16981TIP3    H272435   3.132   5.770  13.836 -1.4369  0.4823  0.7787
16982TIP3   OH272436   6.270   4.415  16.699 -0.2295 -0.1467 -0.2720
16982TIP3    H172437   6.325   4.388  16.625  0.1228 -1.3968  0.4256
16982TIP3    H272438   6.321   4.395  16.777 -0.7405  0.8367  0.3335
16983TIP3   OH272439   4.880   1.450   1.156  0.2302  0.0936 -0.4240
16983TIP3    H172440   4.864   1.383   1.223  2.3278 -1.4145 -1.3271
16983TIP3    H272441   4.866   1.533   1.202 -0.9131 -0.8996  1.1617
16984TIP3   OH272442   5.882   1.323  14.648 -0.1625 -0.2102  0.0016
16984TIP3    H172443   5.892   1.329  14.743 -1.1627 -0.0982  0.1120
16984TIP3    H272444   5.838   1.405  14.624 -1.4546 -0.9859 -0.3313
16985TIP3   OH272445   5.398   5.026  15.630 -0.2276  0.3246 -0.1362
16985TIP3    H172446   5.476   4.996  15.584 -0.1378  0.8031 -0.2954
16985TIP3    H272447   5.388   5.117  15.605 -0.4943  0.4374  0.3622
16986TIP3   OH272448   2.917   1.503   3.100 -0.2009  0.3164 -0.1547
16986TIP3    H172449   2.837   1.501   3.153  1.1610  1.3939  2.0877
16986TIP3    H272450   2.912   1.585   3.052  0.1114  1.0005  0.9505
16987TIP3   OH272451   5.703   6.099  15.174  0.4016 -0.1715  0.8962
16987TIP3    H172452   5.690   6.083  15.081 -0.5176 -1.0618  1.1635
16987TIP3    H272453   5.778   6.158  15.178  0.3920 -0.0499 -0.4062
16988TIP3   OH272454   2.658   3.301  11.470 -0.0315 -0.0010  0.2709
16988TIP3    H172455   2.580   3.355  11.459 -0.7279 -0.7389  1.4229
16988TIP3    H272456   2.634   3.215  11.434 -0.3239 -0.6935  2.0000
16989TIP3   OH272457   3.788   4.280   3.685  0.3246  0.0121  0.0322
16989TIP3    H172458   3.805   4.254   3.775  0.9064 -2.7880 -0.7964
16989TIP3    H272459   3.697   4.254   3.669 -1.0218  3.6807  0.7358
16990TIP3   OH272460   6.410   2.640  13.561  0.4165 -0.2969 -0.5812
16990TIP3    H172461   6.345   2.709  13.546  1.1670  0.4151 -0.6378
16990TIP3    H272462   6.364   2.575  13.614 -0.3898  0.1193 -0.7534
16991TIP3   OH272463   6.046   1.343  14.444 -0.1629  0.4300 -0.4070
16991TIP3    H172464   6.130   1.384  14.465 -0.3978  1.0924 -0.7387
16991TIP3    H272465   5.998   1.343  14.526 -0.5799  1.8307 -0.6296
16992TIP3   OH272466   3.882   6.356   2.438  0.5235  0.4572 -0.0307
16992TIP3    H172467   3.796   6.398   2.447  0.5755  0.5340  0.1175
16992TIP3    H272468   3.915   6.386   2.354 -0.0541 -0.4097 -0.5808
16993TIP3   OH272469   1.245   1.217   2.715  0.4029  0.6263 -0.3191
16993TIP3    H172470   1.237   1.290   2.776 -0.1225  0.5432 -0.2863
16993TIP3    H272471   1.229   1.139   2.768 -1.4628  0.6353 -0.8274
16994TIP3   OH272472   5.488   4.248  11.592  0.4741 -0.3892 -0.2193
16994TIP3    H172473   5.493   4.155  11.612 -0.3145 -0.0787  1.6384
16994TIP3    H272474   5.410   4.256  11.536  0.4224 -0.8148 -0.2131
16995TIP3   OH272475   3.520   6.693   4.108 -0.3426 -1.7139 -0.0508
16995TIP3    H172476   3.486   6.655   4.027 -1.4905 -0.6546 -0.0885
16995TIP3    H272477   3.602   6.646   4.123 -2.0066 -4.8122  0.3084
16996TIP3   OH272478   4.085   0.026  14.277  0.1074 -0.2216  0.2087
16996TIP3    H172479   4.123   0.099  14.228  1.0290 -1.9897 -1.8842
16996TIP3    H272480   4.154   0.001  14.338  0.9911 -1.1671 -1.1269
16997TIP3   OH272481   5.982   5.758   4.418 -0.3574 -0.3716 -0.0181
16997TIP3    H172482   6.047   5.752   4.488 -0.5858 -1.7846  0.1164
16997TIP3    H272483   5.989   5.674   4.372 -0.9025  0.1473 -1.0681
16998TIP3   OH272484   5.748   1.724   4.943 -0.2139 -0.3424 -0.6659
16998TIP3    H172485   5.679   1.784   4.915  0.0881  0.8727  1.0277
16998TIP3    H272486   5.702   1.646   4.973 -0.8801  0.3443  0.1844
16999TIP3   OH272487   4.236   3.011  12.132 -0.1588  0.5879  0.0900
16999TIP3    H172488   4.253   2.976  12.044  0.1727 -0.4981  0.5736
16999TIP3    H272489   4.181   2.945  12.174  0.5412  0.5942  1.0533
17000TIP3   OH272490   5.343   0.131   0.273 -0.2288  0.3400 -0.0926
17000TIP3    H172491   5.329   0.224   0.260  0.5955  0.4718 -0.1016
17000TIP3    H272492   5.390   0.102   0.194  0.0018  0.0364  0.1493
17001TIP3   OH272493   1.882   5.586   1.314  0.0809 -0.7554  0.9667
17001TIP3    H172494   1.864   5.622   1.401 -0.5214  0.1471  0.4809
17001TIP3    H272495   1.797   5.582   1.271  0.5324 -0.0206 -0.0222
17002TIP3   OH272496   4.887   1.523  16.030  0.3937  0.2786 -0.0491
17002TIP3    H172497   4.966   1.490  16.072  1.0827 -0.8516 -2.1175
17002TIP3    H272498   4.821   1.520  16.099  1.2879 -2.1612  0.8064
17003TIP3   OH272499   4.274   0.625   2.351  0.3991 -0.2492 -0.2593
17003TIP3    H172500   4.308   0.538   2.330  0.9677  0.5726 -3.2266
17003TIP3    H272501   4.266   0.669   2.266 -1.1696  2.1533  1.0052
17004TIP3   OH272502   2.677   4.300  16.595  0.3469  0.4739  0.3532
17004TIP3    H172503   2.693   4.290  16.689  1.5542 -2.8830 -0.0660
17004TIP3    H272504   2.586   4.274  16.583  1.1873 -2.9508  0.3135
17005TIP3   OH272505   2.407   3.157  11.622 -0.1086 -0.3692 -0.3886
17005TIP3    H172506   2.437   3.073  11.657  0.1853  0.2610  0.9414
17005TIP3    H272507   2.487   3.200  11.590  0.2153  0.5319  1.4697
17006TIP3   OH272508   1.336   4.985  17.237  0.2660  0.2418 -0.6677
17006TIP3    H172509   1.431   4.983  17.248  0.3304  1.1594 -0.9634
17006TIP3    H272510   1.313   5.078  17.242 -0.6377  0.0219 -0.4419
17007TIP3   OH272511   1.122   5.916   1.383 -0.6765  0.0122  0.5611
17007TIP3    H172512   1.151   6.005   1.361 -0.8063 -0.1458 -0.2862
17007TIP3    H272513   1.027   5.923   1.393 -1.0922 -0.5032 -2.1866
17008TIP3   OH272514   5.848   5.822   2.551  0.3724 -0.3464 -0.8468
17008TIP3    H172515   5.935   5.860   2.536 -0.0087  0.9102  0.0503
17008TIP3    H272516   5.827   5.779   2.468  1.4250  0.1828 -1.4115
17009TIP3   OH272517   0.572   4.509  12.631  0.3244  0.3973 -0.3200
17009TIP3    H172518   0.614   4.438  12.584  1.1577 -0.2599  1.3539
17009TIP3    H272519   0.625   4.586  12.611  0.5032  0.1866 -0.6614
17010TIP3   OH272520   1.447   1.379  16.121  0.6008  0.0371  0.3349
17010TIP3    H172521   1.440   1.336  16.205 -2.2817 -1.4381 -0.5143
17010TIP3    H272522   1.382   1.449  16.124 -0.5845 -0.9293 -1.0713
17011TIP3   OH272523   5.199   1.611   3.243 -0.3115  0.4538 -0.3123
17011TIP3    H172524   5.288   1.627   3.213  1.2592 -2.3811  2.2607
17011TIP3    H272525   5.200   1.635   3.336 -1.6129 -1.4091  0.2463
17012TIP3   OH272526   6.030   5.492   0.928 -0.0499 -0.2513  0.0710
17012TIP3    H172527   6.113   5.537   0.911 -0.8517  0.8163 -1.2196
17012TIP3    H272528   5.981   5.552   0.984 -0.3284 -0.4629  0.0547
17013TIP3   OH272529   2.516   5.527  15.232  0.1688 -0.3704  0.4680
17013TIP3    H172530   2.441   5.484  15.192  0.1714 -2.2565  2.2882
17013TIP3    H272531   2.587   5.514  15.170 -0.7553  0.6474 -0.8643
17014TIP3   OH272532   0.179   3.688   1.975 -0.5014  0.0362 -0.1381
17014TIP3    H172533   0.261   3.733   1.996  0.0237 -0.8741 -0.1877
17014TIP3    H272534   0.123   3.703   2.051  0.4306 -0.9874  0.7787
17015TIP3   OH272535   3.918   2.817   1.488  0.2328 -0.2347 -0.0407
17015TIP3    H172536   3.962   2.881   1.431  0.5127 -0.1967  0.2170
17015TIP3    H272537   3.891   2.867   1.564  0.7258 -0.4795  0.3027
17016TIP3   OH272538   6.013   1.161  15.738 -0.2106 -0.5696  0.2032
17016TIP3    H172539   5.965   1.079  15.725  1.9665 -1.9377  0.2857
17016TIP3    H272540   6.020   1.171  15.833  1.3952 -1.5116  0.2194
17017TIP3   OH272541   1.884   0.445  16.889  0.9686  0.2810  0.0726
17017TIP3    H172542   1.977   0.463  16.904  0.9762 -0.6017  1.2080
17017TIP3    H272543   1.878   0.428  16.795  1.6754  1.8261 -0.2816
17018TIP3   OH272544   2.504   6.770   7.028 -0.4707  0.5335  0.6408
17018TIP3    H172545   2.581   6.733   7.071  0.9455  1.3531 -1.0646
17018TIP3    H272546   2.491   6.716   6.951  0.3805  2.2478 -0.7780
17019TIP3   OH272547   5.460   1.380  13.409 -0.2223 -0.1289  0.1157
17019TIP3    H172548   5.423   1.440  13.474  0.8959 -0.1397  0.7933
17019TIP3    H272549   5.438   1.293  13.442 -1.1726 -0.1284 -0.4641
17020TIP3   OH272550   5.141   3.088   0.670 -0.5503 -0.1772 -0.1138
17020TIP3    H172551   5.082   3.157   0.640 -0.4832  0.1609  0.5229
17020TIP3    H272552   5.200   3.131   0.732 -0.0356 -0.6483 -0.2673
17021TIP3   OH272553   0.386   6.387   3.671 -0.4472  0.0946 -0.1461
17021TIP3    H172554   0.433   6.452   3.617  0.9558 -0.9450 -0.2375
17021TIP3    H272555   0.329   6.342   3.609 -0.5957  0.4880 -0.3007
17022TIP3   OH272556   6.179   4.676   1.266 -0.2706  0.8940 -0.4816
17022TIP3    H172557   6.131   4.596   1.289 -1.0989  1.5237  0.0440
17022TIP3    H272558   6.251   4.645   1.211 -0.3352 -0.2602  0.0358
17023TIP3   OH272559   1.897   2.027  13.293 -0.6415  0.5122  0.4702
17023TIP3    H172560   1.901   1.932  13.288 -1.4903  0.4897 -0.0283
17023TIP3    H272561   1.987   2.054  13.314  0.1200 -0.2754 -1.4951
17024TIP3   OH272562   3.317   0.245   1.211  0.5152 -0.0024 -0.5564
17024TIP3    H172563   3.381   0.291   1.157  1.6565  0.0101  0.7452
17024TIP3    H272564   3.233   0.262   1.168  1.4364 -0.7645 -2.8330
17025TIP3   OH272565   5.643   2.006  13.217 -0.1908  0.5831 -0.1255
17025TIP3    H172566   5.606   2.083  13.173  0.2191 -0.1903 -1.9213
17025TIP3    H272567   5.682   1.955  13.146 -0.6012 -1.3839  1.0022
17026TIP3   OH272568   2.976   5.552   3.786 -0.1500  0.3935  0.5293
17026TIP3    H172569   3.067   5.542   3.758 -1.0751 -1.0274 -2.4203
17026TIP3    H272570   2.958   5.646   3.779  0.7179  0.5179 -0.1677
17027TIP3   OH272571   3.743   6.591   4.195  0.3463  0.3242 -0.2569
17027TIP3    H172572   3.815   6.639   4.155 -0.0328  1.0665 -0.0750
17027TIP3    H272573   3.780   6.506   4.217  1.1326  0.6520 -0.2752
17028TIP3   OH272574   2.743   3.561  10.983 -0.8075 -0.2251  0.3247
17028TIP3    H172575   2.738   3.644  11.031  0.6547 -0.1470  0.3937
17028TIP3    H272576   2.659   3.554  10.938 -1.3699  0.7640  1.1693
17029TIP3   OH272577   6.534   1.517  13.774  0.1816 -0.3235 -0.1618
17029TIP3    H172578   6.596   1.446  13.792  1.6033  0.9652  0.2056
17029TIP3    H272579   6.501   1.543  13.861  0.4119  0.1085 -0.2011
17030TIP3   OH272580   1.253   3.832   0.626  0.2927 -0.1005 -0.0468
17030TIP3    H172581   1.203   3.845   0.707  1.1631 -0.2160  0.5239
17030TIP3    H272582   1.336   3.794   0.656  1.2048  1.1998 -0.8607
17031TIP3   OH272583   4.891   3.052  12.637 -0.4736 -0.0817 -0.4416
17031TIP3    H172584   4.962   3.050  12.573 -0.7716 -0.0331 -0.7792
17031TIP3    H272585   4.868   2.960  12.651 -0.1400 -0.1143 -0.0993
17032TIP3   OH272586   4.868   1.050   1.595  0.2244 -0.3028 -0.2253
17032TIP3    H172587   4.802   1.037   1.663  0.7173  1.0689  0.5503
17032TIP3    H272588   4.844   0.988   1.526 -0.5890 -1.3516  0.9621
17033TIP3   OH272589   3.502   1.572  16.693  0.0541 -0.0951  0.1380
17033TIP3    H172590   3.586   1.587  16.649 -0.2058  1.9690  0.2371
17033TIP3    H272591   3.524   1.520  16.770  1.4249  1.1321  0.6251
17034TIP3   OH272592   4.974   5.424   5.638 -0.3038  0.1250  0.3081
17034TIP3    H172593   4.904   5.393   5.695 -0.1824 -0.5360  0.0992
17034TIP3    H272594   5.036   5.352   5.634 -0.6545 -0.1314 -1.2331
17035TIP3   OH272595   4.216   5.663  10.840 -0.1837 -0.2140 -0.4956
17035TIP3    H172596   4.176   5.750  10.828 -0.2521 -0.0457  0.7691
17035TIP3    H272597   4.265   5.648  10.760  0.1943  1.1970 -0.5599
17036TIP3   OH272598   4.052   5.179   4.577 -0.1234 -0.2151  0.4261
17036TIP3    H172599   4.130   5.234   4.572 -0.1184 -0.2469  0.1726
17036TIP3    H272600   4.046   5.154   4.670  0.7783 -1.0935  0.2662
17037TIP3   OH272601   0.195   1.027   1.545 -0.3992  0.3302  0.1125
17037TIP3    H172602   0.152   0.964   1.603 -1.4860  2.0814  1.3117
17037TIP3    H272603   0.286   0.997   1.540 -0.8247 -1.1920  0.8081
17038TIP3   OH272604   1.293   1.297  17.136 -0.0324 -0.0290 -0.1367
17038TIP3    H172605   1.240   1.234  17.185  0.7178 -0.4402  0.1571
17038TIP3    H272606   1.280   1.380  17.182 -1.4777  0.1855 -0.8595
17039TIP3   OH272607   6.328   3.973  14.076  0.2929 -0.8964 -0.2837
17039TIP3    H172608   6.393   3.942  14.138 -0.0767 -0.0576  0.5477
17039TIP3    H272609   6.373   3.974  13.992  1.0575 -1.2319  0.1162
17040TIP3   OH272610   0.561   6.040  14.329 -0.0657  0.4000 -0.1640
17040TIP3    H172611   0.512   6.107  14.281  2.8595  1.1204 -2.5082
17040TIP3    H272612   0.583   5.975  14.262 -0.1110 -1.2986  1.3960
17041TIP3   OH272613   5.612   6.272   5.093  0.9654 -0.3699  0.2659
17041TIP3    H172614   5.658   6.199   5.051  2.0895  0.7619 -0.5324
17041TIP3    H272615   5.519   6.250   5.083  1.2778 -1.8125  0.2838
17042TIP3   OH272616   1.515   5.622  15.185 -0.1478 -0.4078 -0.0198
17042TIP3    H172617   1.435   5.574  15.166 -0.0147 -0.4376 -0.5230
17042TIP3    H272618   1.490   5.714  15.178  0.0116 -0.4187 -0.8570
17043TIP3   OH272619   6.638   5.745  15.647  0.2011  0.2159  0.7456
17043TIP3    H172620   6.670   5.658  15.669 -0.0581  0.3226  1.5477
17043TIP3    H272621   6.547   5.732  15.622  0.7392 -0.0473 -1.2763
17044TIP3   OH272622   3.461   4.064   3.434 -0.2040  0.2907  0.5291
17044TIP3    H172623   3.502   4.150   3.420 -1.8988  0.7719 -2.0528
17044TIP3    H272624   3.478   4.045   3.526  4.8836  0.8526 -0.0188
17045TIP3   OH272625   4.886   0.932  17.234  0.3287  0.3879 -0.1849
17045TIP3    H172626   4.852   1.019  17.210  1.5842  1.0122  0.2240
17045TIP3    H272627   4.811   0.874  17.224 -0.4784  1.4784 -0.7118
17046TIP3   OH272628   1.383   5.176  15.305 -0.1733 -0.2121  0.1246
17046TIP3    H172629   1.361   5.083  15.292 -1.0875  0.1640 -1.2757
17046TIP3    H272630   1.377   5.214  15.217  2.2087  0.7790  0.3313
17047TIP3   OH272631   6.600   1.214  12.651 -0.0444  0.2361 -0.1103
17047TIP3    H172632   6.576   1.124  12.630 -1.9657  1.0178 -1.5785
17047TIP3    H272633   6.684   1.227  12.606  1.6711 -1.5132  2.2822
17048TIP3   OH272634   3.151   0.245   5.812 -0.1249 -0.1076 -0.0706
17048TIP3    H172635   3.059   0.256   5.787  0.2230 -1.5962 -2.2691
17048TIP3    H272636   3.148   0.192   5.892 -1.1799  1.0024  0.6576
17049TIP3   OH272637   5.808   4.238  12.877  0.9716 -0.9457 -0.7179
17049TIP3    H172638   5.742   4.181  12.839  0.8483 -0.2597 -1.5653
17049TIP3    H272639   5.776   4.256  12.965  0.8337 -1.8790 -0.5662
17050TIP3   OH272640   5.867   3.155  16.065  0.3686  0.3365 -0.2541
17050TIP3    H172641   5.952   3.176  16.104  0.8241  1.3058 -1.6760
17050TIP3    H272642   5.803   3.172  16.134  1.3726 -1.7111  1.2973
17051TIP3   OH272643   6.644   0.577   5.281 -0.0405  0.1439  0.7842
17051TIP3    H172644   6.680   0.665   5.295  0.3892  0.1120 -0.0747
17051TIP3    H272645   6.589   0.562   5.358 -1.2411  1.7366  0.3155
17052TIP3   OH272646   5.952   5.094  15.118 -0.4339  0.1710 -0.4641
17052TIP3    H172647   5.984   5.033  15.052 -1.4062 -2.8538  1.6908
17052TIP3    H272648   6.030   5.115  15.170 -0.1194  0.7936 -1.1522
17053TIP3   OH272649   5.897   1.585   4.752  0.1776  0.3905 -0.0085
17053TIP3    H172650   5.838   1.612   4.822  0.6623  1.9717 -0.1720
17053TIP3    H272651   5.982   1.622   4.776  0.6040  0.0090 -0.8740
17054TIP3   OH272652   4.529   0.761   1.074  0.0202  0.1683  0.0978
17054TIP3    H172653   4.563   0.704   1.142  0.3962 -0.3867 -0.5460
17054TIP3    H272654   4.492   0.836   1.122 -1.4001 -1.0620  1.0089
17055TIP3   OH272655   1.877   1.200   3.612 -0.1233  0.1505 -0.6619
17055TIP3    H172656   1.831   1.276   3.574 -1.1398 -0.0730  0.0825
17055TIP3    H272657   1.898   1.227   3.701  0.9910  0.1462 -0.9099
17056TIP3   OH272658   2.517   3.607  13.836 -0.0588  0.5226 -0.2630
17056TIP3    H172659   2.437   3.629  13.790  0.2867  0.5650 -0.8500
17056TIP3    H272660   2.587   3.631  13.776  0.3607 -1.2346 -0.5391
17057TIP3   OH272661   2.168   3.819   2.091 -0.0354  0.3598  0.1526
17057TIP3    H172662   2.083   3.798   2.053  0.8383 -0.7938 -1.2239
17057TIP3    H272663   2.231   3.806   2.020  1.4839 -0.3769  1.5683
17058TIP3   OH272664   2.420   1.870  16.068 -0.4050  0.0282  0.4988
17058TIP3    H172665   2.489   1.873  16.002 -1.8206  0.9078 -1.0239
17058TIP3    H272666   2.428   1.783  16.107  1.4003  0.0314  0.2321
17059TIP3   OH272667   5.954   4.080   2.790  0.4875 -0.1811  0.0628
17059TIP3    H172668   5.874   4.119   2.826  0.9629  0.4026  0.5147
17059TIP3    H272669   5.932   4.060   2.699 -0.0508  0.3214  0.0771
17060TIP3   OH272670   2.420   0.289  15.915  0.5612  0.3312 -0.1952
17060TIP3    H172671   2.396   0.382  15.923 -1.3328  0.0568 -1.8045
17060TIP3    H272672   2.441   0.278  15.822  1.1101 -0.7963  0.0474
17061TIP3   OH272673   1.863   3.288  13.844  0.8518 -0.3704  0.3883
17061TIP3    H172674   1.907   3.216  13.798  0.0030 -0.4435 -0.3346
17061TIP3    H272675   1.918   3.364  13.828  0.3838 -0.3090 -1.1166
17062TIP3   OH272676   3.114   2.810   4.069  0.0631  0.1490 -0.3426
17062TIP3    H172677   3.054   2.742   4.100  0.6275 -0.3622 -0.3381
17062TIP3    H272678   3.128   2.866   4.145  0.7379 -0.5813  0.0903
17063TIP3   OH272679   5.569   3.077   1.658 -0.0213  0.4737  0.0293
17063TIP3    H172680   5.611   3.056   1.741  1.6199  1.7458 -0.4134
17063TIP3    H272681   5.639   3.067   1.593 -0.7821  1.2583 -0.9373
17064TIP3   OH272682   1.431   2.285   4.183 -0.6454 -0.0920 -0.3217
17064TIP3    H172683   1.420   2.222   4.255  0.8374 -1.0391 -0.8952
17064TIP3    H272684   1.504   2.340   4.210  0.6192 -1.1173 -1.5243
17065TIP3   OH272685   6.802   2.924  15.777 -0.9439 -0.3169  0.0996
17065TIP3    H172686   6.848   2.942  15.859 -0.0774  1.6592 -0.7548
17065TIP3    H272687   6.752   3.004  15.759 -1.6332 -0.9604 -0.9937
17066TIP3   OH272688   3.721   5.028  12.579 -0.2123  0.6990  0.2750
17066TIP3    H172689   3.728   4.970  12.503 -0.9091 -0.1806  0.8620
17066TIP3    H272690   3.638   5.075  12.567 -0.6889  0.0243  0.8348
17067TIP3   OH272691   0.922   2.158  14.872 -1.1785 -0.1432 -0.4276
17067TIP3    H172692   0.987   2.106  14.920 -0.5069 -1.0274 -2.1900
17067TIP3    H272693   0.842   2.106  14.875 -1.2706  0.0249  0.1070
17068TIP3   OH272694   0.795   0.311   4.514  0.2413  0.2941  0.1429
17068TIP3    H172695   0.851   0.255   4.461 -0.4235  3.6415 -4.8170
17068TIP3    H272696   0.713   0.262   4.523  0.8906 -0.9904 -0.7051
17069TIP3   OH272697   0.222   1.223   2.858  0.0435 -0.0091  0.4728
17069TIP3    H172698   0.130   1.247   2.863  0.0210  0.6530 -1.8787
17069TIP3    H272699   0.222   1.128   2.844 -0.3264  0.0794 -0.1574
17070TIP3   OH272700   1.690   4.277  12.579 -0.0418 -0.1758  0.4459
17070TIP3    H172701   1.769   4.307  12.533 -0.1118 -2.0120 -0.9697
17070TIP3    H272702   1.669   4.349  12.639  3.2303 -0.0106  1.5801
17071TIP3   OH272703   1.383   5.452   1.442  0.2515 -0.2605  0.2199
17071TIP3    H172704   1.432   5.406   1.510 -0.2628 -2.3871 -0.7320
17071TIP3    H272705   1.321   5.507   1.489  0.2574 -1.2819  1.4859
17072TIP3   OH272706   0.255   6.701  16.154  0.3561 -0.0818  0.0675
17072TIP3    H172707   0.348   6.679  16.163  0.6952  1.2909  0.2177
17072TIP3    H272708   0.238   6.761  16.227 -0.6831 -0.3955  0.0973
17073TIP3   OH272709   5.380   3.492  13.076 -0.1846 -0.5378 -0.5000
17073TIP3    H172710   5.427   3.441  13.010 -0.6224 -0.9806 -0.4697
17073TIP3    H272711   5.288   3.472  13.062 -0.3051 -0.3712  0.0253
17074TIP3   OH272712   0.601   2.442   0.270  0.3599 -0.2333  0.2409
17074TIP3    H172713   0.646   2.376   0.322  1.0939 -0.9125 -1.2133
17074TIP3    H272714   0.627   2.424   0.180 -0.6297  1.1047 -0.3466
17075TIP3   OH272715   4.107   5.369  14.514  0.0181  0.7528 -0.3643
17075TIP3    H172716   4.158   5.310  14.458 -1.2115 -0.3146 -0.4416
17075TIP3    H272717   4.046   5.310  14.559  0.6251  1.6518  1.7220
17076TIP3   OH272718   2.966   5.350  14.668  0.5195 -0.1744  0.3041
17076TIP3    H172719   3.006   5.426  14.626 -1.7685  1.8170  1.4797
17076TIP3    H272720   2.888   5.333  14.617  0.6040 -1.2687  0.5178
17077TIP3   OH272721   5.487   1.887  11.218  0.1540  0.1948  0.0600
17077TIP3    H172722   5.520   1.904  11.130 -2.6257  1.1301 -0.9355
17077TIP3    H272723   5.446   1.801  11.212  1.8600 -0.7291  1.1115
17078TIP3   OH272724   4.079   2.984  13.880  0.0471  0.1994  0.0912
17078TIP3    H172725   4.124   3.006  13.799 -0.1560 -1.9754 -0.6784
17078TIP3    H272726   3.995   2.947  13.851 -0.5664  0.5362  1.3543
17079TIP3   OH272727   3.614   4.364   3.118 -0.6522 -0.2441  0.4564
17079TIP3    H172728   3.550   4.425   3.155 -0.1964 -0.1771  1.1484
17079TIP3    H272729   3.694   4.379   3.169  0.0683  0.0168 -0.7182
17080TIP3   OH272730   5.709   1.862  10.238 -0.0733 -0.8972  0.1050
17080TIP3    H172731   5.732   1.902  10.322 -1.0406  1.8425 -0.8286
17080TIP3    H272732   5.682   1.773  10.261  0.1071 -0.3820  2.6427
17081TIP3   OH272733   3.005   1.111  14.568  0.0707  0.3454 -0.3255
17081TIP3    H172734   2.942   1.138  14.501 -2.9576 -3.8900  0.4227
17081TIP3    H272735   2.964   1.134  14.651  1.6441  1.4313  0.1898
17082TIP3   OH272736   5.867   4.591  14.222 -0.0542  0.4006  0.3463
17082TIP3    H172737   5.870   4.556  14.311 -0.1759  0.4698  0.3786
17082TIP3    H272738   5.889   4.684  14.232 -1.2071  0.6780  0.4600
17083TIP3   OH272739   3.775   3.558   1.802  0.4204  0.3684 -0.2927
17083TIP3    H172740   3.687   3.571   1.839  0.1001 -1.4406 -0.3410
17083TIP3    H272741   3.834   3.583   1.874 -0.1600  0.1352  0.2811
17084TIP3   OH272742   5.555   4.749   6.241  0.2441 -0.0724  0.2802
17084TIP3    H172743   5.496   4.780   6.311 -2.5029  0.7035 -2.1668
17084TIP3    H272744   5.635   4.799   6.253 -1.4944  2.8336  0.7359
17085TIP3   OH272745   2.463   6.490  14.199  0.9933  0.6391  0.5893
17085TIP3    H172746   2.469   6.465  14.106  0.0879  0.4402  0.5801
17085TIP3    H272747   2.421   6.416  14.241  2.0482  0.4301  1.2982
17086TIP3   OH272748   4.058   0.890   0.599 -0.8475  0.3421  0.1436
17086TIP3    H172749   4.070   0.935   0.683  0.1415  1.0412 -0.3476
17086TIP3    H272750   3.964   0.895   0.582 -0.9124  1.1823  0.6777
17087TIP3   OH272751   0.029   0.105   3.532  0.2302 -0.4225  0.7834
17087TIP3    H172752   0.107   0.051   3.515  0.2243 -0.0109 -0.7154
17087TIP3    H272753   0.043   0.185   3.482 -1.7457 -0.9003 -0.6905
17088TIP3   OH272754   1.091   1.731  16.015 -0.2607  0.0015  0.3115
17088TIP3    H172755   1.169   1.733  16.072 -1.2756 -1.1778  1.8335
17088TIP3    H272756   1.098   1.647  15.969  0.5645  0.9591 -1.3952
17089TIP3   OH272757   2.718   3.757  11.190  0.3817  0.0131 -0.4912
17089TIP3    H172758   2.722   3.706  11.271 -0.3362 -0.3085 -0.6508
17089TIP3    H272759   2.747   3.845  11.215  1.7207 -0.4883 -0.2296
17090TIP3   OH272760   0.280   2.453  13.780  0.0771  0.0071  0.1154
17090TIP3    H172761   0.256   2.474  13.870  1.7321  0.4564  0.4865
17090TIP3    H272762   0.336   2.525  13.752 -0.5868 -0.0075 -1.3852
17091TIP3   OH272763   3.099   5.650  11.201  0.0022 -0.8678  0.1942
17091TIP3    H172764   3.089   5.570  11.149  0.5372  0.1216 -1.5046
17091TIP3    H272765   3.027   5.706  11.172  1.2806  0.3481 -0.7672
17092TIP3   OH272766   3.019   0.722   4.454 -0.8647 -0.0001  1.0373
17092TIP3    H172767   2.972   0.724   4.371 -0.9048 -0.2225  1.0542
17092TIP3    H272768   2.957   0.686   4.516 -0.6375 -0.4102  1.0336
17093TIP3   OH272769   0.976   5.214  12.489  0.1655 -0.3701  0.9887
17093TIP3    H172770   0.890   5.175  12.504 -0.5396  1.1820  1.2213
17093TIP3    H272771   0.965   5.305  12.515  0.8142  0.8329 -2.4425
17094TIP3   OH272772   4.766   4.862  13.769  0.3908  0.6783  0.2813
17094TIP3    H172773   4.809   4.840  13.686 -0.1339  1.1098 -0.1169
17094TIP3    H272774   4.832   4.910  13.818  0.0270  2.3802 -0.8000
17095TIP3   OH272775   3.620   0.581  12.519  0.4468  0.1158 -0.3547
17095TIP3    H172776   3.629   0.664  12.568  1.7274  0.4764 -1.1678
17095TIP3    H272777   3.525   0.572  12.506  0.2965  1.6258 -0.5264
17096TIP3   OH272778   0.130   2.010   1.229 -0.2520 -0.0216 -0.6468
17096TIP3    H172779   0.035   1.997   1.231 -0.6627  2.4765  0.7423
17096TIP3    H272780   0.163   1.956   1.300 -0.5460 -1.2696 -1.4357
17097TIP3   OH272781   5.690   0.905   4.387 -0.6998  0.3262  0.1623
17097TIP3    H172782   5.723   0.903   4.477 -1.2459 -0.3661  0.3509
17097TIP3    H272783   5.669   0.997   4.371  2.5486  1.1125 -0.4281
17098TIP3   OH272784   0.313   0.856  14.947  0.2620  0.3655  0.2860
17098TIP3    H172785   0.311   0.940  14.901  2.3475 -0.3492 -1.2442
17098TIP3    H272786   0.237   0.809  14.914  0.6849  0.5809 -1.0542
17099TIP3   OH272787   0.094   2.775  12.694  0.6180  0.0885  0.2770
17099TIP3    H172788   0.180   2.769  12.652 -0.5047 -3.0631 -1.9384
17099TIP3    H272789   0.101   2.719  12.771  0.0927 -1.6836 -0.9242
17100TIP3   OH272790   4.627   3.129  16.267 -0.0693 -0.5846 -0.0401
17100TIP3    H172791   4.679   3.119  16.346  1.1145  0.1316 -0.6900
17100TIP3    H272792   4.544   3.165  16.297  1.3241  2.2979  0.6551
17101TIP3   OH272793   6.450   4.770  14.521 -0.0048 -0.3567 -0.1744
17101TIP3    H172794   6.369   4.757  14.471  0.2853  0.5398 -0.9042
17101TIP3    H272795   6.425   4.827  14.593 -0.2193 -0.8636  0.1576
17102TIP3   OH272796   0.755   4.014   1.073  0.1638 -0.2119 -0.4396
17102TIP3    H172797   0.675   3.992   1.120 -1.3691  0.6239 -2.4970
17102TIP3    H272798   0.801   3.931   1.063  0.9361 -0.3631  2.9699
17103TIP3   OH272799   3.358   0.345  14.168 -0.2146 -0.5696 -0.2082
17103TIP3    H172800   3.285   0.288  14.192  1.6119 -1.3908  4.5618
17103TIP3    H272801   3.421   0.288  14.125  0.1063 -1.4564  1.3435
17104TIP3   OH272802   4.625   5.212   1.955  0.1544 -0.0453 -0.1906
17104TIP3    H172803   4.574   5.146   2.002  0.5503 -0.9602 -1.0040
17104TIP3    H272804   4.633   5.177   1.866 -1.7265  2.2444 -1.3811
17105TIP3   OH272805   4.814   0.733  16.897  0.4095 -0.0679  0.4427
17105TIP3    H172806   4.818   0.822  16.932  1.8144 -0.0179  0.2215
17105TIP3    H272807   4.787   0.679  16.971  1.0730  0.3378  0.9901
17106TIP3   OH272808   3.980   0.888   4.844  0.2913 -0.5444 -0.1820
17106TIP3    H172809   3.893   0.905   4.880  0.3023  1.2825 -0.9557
17106TIP3    H272810   4.030   0.852   4.918 -0.5523  0.2591  0.8037
17107TIP3   OH272811   0.558   5.741  15.123 -0.3417 -0.1969 -0.3447
17107TIP3    H172812   0.483   5.682  15.112 -1.5322  1.1379  0.2803
17107TIP3    H272813   0.567   5.749  15.218  1.0474 -0.8538 -0.3959
17108TIP3   OH272814   5.513   5.457   2.646 -0.0245  0.1380  0.1131
17108TIP3    H172815   5.508   5.445   2.551 -0.4177  2.0920 -0.1611
17108TIP3    H272816   5.606   5.462   2.665  0.0762 -0.9551 -0.0580
17109TIP3   OH272817   5.973   1.161   5.726 -0.1044 -0.4462 -0.0290
17109TIP3    H172818   6.026   1.100   5.675 -0.7201 -1.7472  0.8495
17109TIP3    H272819   5.964   1.120   5.812 -0.1075  1.1317  0.7592
17110TIP3   OH272820   5.160   4.425  16.168  0.3647 -0.2576  0.2509
17110TIP3    H172821   5.223   4.354  16.154 -0.6050 -1.0532 -0.1403
17110TIP3    H272822   5.127   4.411  16.256 -1.7041 -1.8693 -0.6833
17111TIP3   OH272823   3.880   3.709   2.038  0.0139  0.0323 -0.4368
17111TIP3    H172824   3.844   3.698   2.126 -3.0231  0.4217 -1.5091
17111TIP3    H272825   3.844   3.792   2.008 -0.9380 -1.1804 -2.8582
17112TIP3   OH272826   4.882   0.877  14.369 -0.8848  0.4487 -0.0306
17112TIP3    H172827   4.879   0.890  14.464  1.3498  0.6590  0.0542
17112TIP3    H272828   4.794   0.845  14.346 -1.0892 -0.8446  2.2832
17113TIP3   OH272829   1.555   0.844   4.857  0.4392  0.2703  0.4180
17113TIP3    H172830   1.612   0.781   4.902  0.5953 -0.4748 -0.7757
17113TIP3    H272831   1.475   0.795   4.840  0.0371  0.8329  0.7048
17114TIP3   OH272832   3.984   5.452  12.534 -0.3770  0.4862 -0.1961
17114TIP3    H172833   3.998   5.512  12.461 -0.9183  3.3063  1.8446
17114TIP3    H272834   3.909   5.399  12.508 -0.2706  1.1018 -1.8670
17115TIP3   OH272835   5.587   1.598  15.017  0.4033  0.5773 -0.0334
17115TIP3    H172836   5.576   1.675  14.962  4.0049  0.7503 -0.7068
17115TIP3    H272837   5.551   1.525  14.965  1.9461  1.0291 -1.8222
17116TIP3   OH272838   6.155   2.269  16.904  0.4059 -0.2372  0.1240
17116TIP3    H172839   6.067   2.243  16.933  0.0788  1.2649  0.5495
17116TIP3    H272840   6.187   2.193  16.854 -1.8741 -0.1257 -1.6597
17117TIP3   OH272841   5.570   5.837  14.316 -0.3108 -0.6346  0.0938
17117TIP3    H172842   5.617   5.920  14.308 -1.3225  0.1793  2.0035
17117TIP3    H272843   5.619   5.788  14.382 -0.4427 -1.0281 -0.0991
17118TIP3   OH272844   0.155   4.326  14.161  0.1014  0.1628 -0.8921
17118TIP3    H172845   0.199   4.294  14.082  3.5167  1.0016  0.4835
17118TIP3    H272846   0.162   4.421  14.155  0.6971  0.2219  0.5258
17119TIP3   OH272847   2.840   5.828   6.213 -0.0686 -0.2283 -0.0915
17119TIP3    H172848   2.813   5.891   6.146  0.1888 -0.9659 -0.9052
17119TIP3    H272849   2.922   5.792   6.180  1.1891  0.9218  1.6483
17120TIP3   OH272850   4.222   1.183   3.135  0.1032  0.3129 -0.0392
17120TIP3    H172851   4.140   1.222   3.166 -0.4872  0.0108 -1.1492
17120TIP3    H272852   4.242   1.231   3.054  1.4413  0.9003  0.6058
17121TIP3   OH272853   0.121   5.856   5.155 -0.0587 -0.0679 -0.0262
17121TIP3    H172854   0.057   5.805   5.105  0.7081 -0.0496 -1.0531
17121TIP3    H272855   0.203   5.808   5.145  0.2783  0.3679  0.5647
17122TIP3   OH272856   1.926   2.397  15.242 -0.4666 -0.0191  0.0531
17122TIP3    H172857   1.993   2.452  15.200  0.1946 -0.7028  0.1900
17122TIP3    H272858   1.889   2.346  15.171 -0.0998 -0.3989  0.1299
17123TIP3   OH272859   0.526   6.219   2.387 -0.4415  0.7131  0.0477
17123TIP3    H172860   0.553   6.131   2.416 -0.1836  1.2300  1.4760
17123TIP3    H272861   0.430   6.214   2.385 -0.4055  0.1516 -0.7576
17124TIP3   OH272862   6.656   4.936  16.302  0.0105  0.0058 -0.0779
17124TIP3    H172863   6.714   4.996  16.256 -1.4682  2.1620  0.6797
17124TIP3    H272864   6.589   4.914  16.237 -1.0870  1.6278  0.4371
17125TIP3   OH272865   5.141   0.290  16.970 -0.1912 -0.2619  0.3221
17125TIP3    H172866   5.165   0.383  16.971 -1.0764 -0.0089  2.1157
17125TIP3    H272867   5.071   0.284  16.905 -2.1011  0.9191  2.1416
17126TIP3   OH272868   4.476   0.781   5.239  1.3044  0.0519 -0.2246
17126TIP3    H172869   4.470   0.857   5.182  0.9708 -0.9151 -1.5504
17126TIP3    H272870   4.405   0.724   5.209  0.2995  0.0346  2.0264
17127TIP3   OH272871   6.249   3.451   0.783  0.2797  0.0701 -0.4758
17127TIP3    H172872   6.272   3.384   0.848  2.4811  3.1231  2.2716
17127TIP3    H272873   6.162   3.480   0.809  0.8851  0.8200  0.8395
17128TIP3   OH272874   0.453   1.998  12.882  0.1877  0.1933 -0.1345
17128TIP3    H172875   0.370   1.980  12.926  0.1204  0.8454  0.0129
17128TIP3    H272876   0.428   2.038  12.799  0.3222 -0.8289 -0.6758
17129TIP3   OH272877   6.021   1.009   1.960  0.0804 -0.4835  0.2002
17129TIP3    H172878   6.033   1.023   1.866  1.1435  0.1777  0.4254
17129TIP3    H272879   6.078   0.935   1.981 -0.1246 -0.6043  0.3321
17130TIP3   OH272880   3.181   1.730  11.018 -0.1158 -0.0110 -0.8074
17130TIP3    H172881   3.222   1.658  11.065  0.5670 -0.4018 -1.9414
17130TIP3    H272882   3.098   1.695  10.985 -1.5935  0.8674  1.7356
17131TIP3   OH272883   1.039   1.103   5.724 -0.0287 -0.2045  0.6430
17131TIP3    H172884   0.976   1.088   5.794 -1.4905 -0.9581 -0.7745
17131TIP3    H272885   1.036   1.023   5.671  2.6372 -0.5692  0.8649
17132TIP3   OH272886   0.782   4.712  12.570  0.4847  0.5731  0.0509
17132TIP3    H172887   0.802   4.728  12.478  2.0261  0.0595  0.2713
17132TIP3    H272888   0.704   4.765  12.587  0.5088  1.1191 -1.3935
17133TIP3   OH272889   2.429   6.376  16.514  0.6729  0.5898 -0.7599
17133TIP3    H172890   2.408   6.394  16.422  0.5226 -2.7626 -1.5285
17133TIP3    H272891   2.484   6.298  16.510  1.7862  1.1584  1.9731
17134TIP3   OH272892   2.297   2.326  15.652 -0.4988 -0.8423  0.1629
17134TIP3    H172893   2.356   2.282  15.713  0.4945 -1.1673 -0.9945
17134TIP3    H272894   2.241   2.379  15.708  1.1761 -0.1767  1.3055
17135TIP3   OH272895   4.499   4.528   3.244  0.0206  0.2537  0.5110
17135TIP3    H172896   4.580   4.489   3.276 -0.1213 -1.4741 -1.0232
17135TIP3    H272897   4.446   4.453   3.218 -1.7864  1.3885  0.8039
17136TIP3   OH272898   2.526   1.837   1.706  0.3318  0.0215  0.1509
17136TIP3    H172899   2.536   1.929   1.733  0.9303 -0.1661  0.6032
17136TIP3    H272900   2.607   1.818   1.658  0.3251 -0.3430  0.2862
17137TIP3   OH272901   3.402   3.937  13.583 -0.5389 -0.6293  0.2963
17137TIP3    H172902   3.486   3.932  13.628 -0.9805 -1.5927  1.0470
17137TIP3    H272903   3.401   4.025  13.545  1.7817 -1.3418 -1.7255
17138TIP3   OH272904   5.510   6.563  11.884  0.1181 -0.2911  0.3045
17138TIP3    H172905   5.601   6.570  11.855  0.1519  1.2282  0.6957
17138TIP3    H272906   5.462   6.620  11.825 -0.5119 -0.6760  0.4356
17139TIP3   OH272907   5.812   6.488  11.858  0.1308 -0.5118  0.3739
17139TIP3    H172908   5.786   6.456  11.771  2.5206 -1.2528 -0.1463
17139TIP3    H272909   5.837   6.409  11.905  0.7914  0.0804  1.0316
17140TIP3   OH272910   4.514   5.538   5.258 -0.4968  0.0822 -0.6511
17140TIP3    H172911   4.489   5.446   5.266 -1.4933  0.5127  2.9085
17140TIP3    H272912   4.597   5.545   5.304  0.0655  0.8457 -1.7202
17141TIP3   OH272913   5.207   2.431   0.761 -0.5568 -0.1652 -0.0375
17141TIP3    H172914   5.212   2.430   0.856  0.1419 -3.0766 -0.0039
17141TIP3    H272915   5.114   2.425   0.741 -0.7189  0.6718  0.4355
17142TIP3   OH272916   0.071   2.714   2.336 -0.3888 -0.9642  0.1220
17142TIP3    H172917   0.163   2.718   2.362  0.3438 -0.2258 -2.3569
17142TIP3    H272918   0.028   2.781   2.390  1.4217  1.9210 -1.7243
17143TIP3   OH272919   1.102   4.446   1.233 -0.8064  0.3153  0.2645
17143TIP3    H172920   1.066   4.369   1.276  1.9144 -2.0825 -1.3909
17143TIP3    H272921   1.112   4.510   1.304 -1.6951 -1.4091  2.0456
17144TIP3   OH272922   4.271   6.494   4.567  0.0110 -0.0418 -0.3332
17144TIP3    H172923   4.276   6.401   4.546  0.3229 -0.4546  1.3967
17144TIP3    H272924   4.280   6.498   4.662  0.4302  1.7952 -0.3988
17145TIP3   OH272925   1.203   4.723   1.017 -0.0513  0.7771 -0.1387
17145TIP3    H172926   1.255   4.657   1.063 -0.3780 -0.3956 -1.4119
17145TIP3    H272927   1.266   4.792   0.997  0.3088  0.8640  1.1516
17146TIP3   OH272928   4.815   0.225  13.879  0.3592  0.0657 -0.3116
17146TIP3    H172929   4.816   0.187  13.792 -3.2977  0.0471 -0.5131
17146TIP3    H272930   4.816   0.320  13.864  1.2485  0.0732 -0.2559
17147TIP3   OH272931   6.040   3.930  14.054 -0.0939  0.5318  0.0187
17147TIP3    H172932   6.135   3.936  14.069  0.0029  1.1360 -0.7364
17147TIP3    H272933   6.019   3.838  14.071  0.7431  0.2487 -0.3908
17148TIP3   OH272934   2.641   4.846   2.315  0.1696  0.3999 -0.6924
17148TIP3    H172935   2.560   4.796   2.325  0.1310  0.8450  2.4698
17148TIP3    H272936   2.711   4.784   2.339  0.2651  1.2683  1.5004
17149TIP3   OH272937   1.639   5.658   5.859 -0.1489  0.0919 -0.6500
17149TIP3    H172938   1.719   5.711   5.861  0.0938 -0.2751 -0.5015
17149TIP3    H272939   1.647   5.606   5.778  0.4983 -1.0569  0.1200
17150TIP3   OH272940   2.847   1.453   4.632  0.1314  0.5564 -0.1619
17150TIP3    H172941   2.782   1.435   4.700 -1.3516  0.0340 -1.6432
17150TIP3    H272942   2.920   1.394   4.652  0.0491  0.9346  1.3675
17151TIP3   OH272943   3.685   6.121   3.854  0.4364 -0.3499  0.6755
17151TIP3    H172944   3.601   6.082   3.876 -0.4712  1.1168 -0.0711
17151TIP3    H272945   3.703   6.181   3.926  0.8511 -0.6251  0.8108
17152TIP3   OH272946   4.095   6.421  16.249 -0.3186 -0.1706 -0.0276
17152TIP3    H172947   4.035   6.400  16.321 -0.4624 -0.6689 -0.2867
17152TIP3    H272948   4.144   6.340  16.234  1.0152  0.4686  0.7332
17153TIP3   OH272949   3.177   0.354  12.230 -0.2567 -0.0186  0.0565
17153TIP3    H172950   3.262   0.392  12.210  0.3347  0.7025  3.2822
17153TIP3    H272951   3.190   0.260  12.220  0.9476  0.0776  0.5102
17154TIP3   OH272952   1.760   0.562  15.129 -0.5828  0.0689 -0.4342
17154TIP3    H172953   1.832   0.516  15.085 -0.2536  0.4024 -0.2470
17154TIP3    H272954   1.682   0.515  15.102 -0.1896 -1.0853  0.3661
17155TIP3   OH272955   1.080   1.290   3.499 -0.1459 -0.4890  0.9957
17155TIP3    H172956   1.156   1.288   3.441  0.4436 -2.0341  1.7713
17155TIP3    H272957   1.047   1.380   3.493  0.1406 -0.4981 -1.3685
17156TIP3   OH272958   6.116   4.001  11.097  0.1924 -0.0065 -0.2100
17156TIP3    H172959   6.059   3.969  11.026 -0.8702 -1.6726  1.2952
17156TIP3    H272960   6.076   4.084  11.123 -1.4932 -1.0310  0.6631
17157TIP3   OH272961   4.554   2.012   3.057 -0.2458 -0.8718 -0.1177
17157TIP3    H172962   4.642   2.049   3.046  0.6228 -2.8690 -0.5218
17157TIP3    H272963   4.519   2.053   3.136  0.8898  0.2717 -0.1893
17158TIP3   OH272964   1.974   4.174   0.294 -0.4898 -0.0974 -0.6356
17158TIP3    H172965   1.956   4.136   0.380 -1.8648 -1.1498 -1.3395
17158TIP3    H272966   2.043   4.119   0.257  1.1247  1.2086  0.3002
17159TIP3   OH272967   6.763   1.923  16.051 -0.3195 -0.2697 -0.0889
17159TIP3    H172968   6.698   1.944  15.984  0.6991  0.5543 -0.8325
17159TIP3    H272969   6.716   1.933  16.134 -1.8395 -2.1115 -0.6442
17160TIP3   OH272970   5.245   6.288   1.157 -0.1126 -0.0539 -0.3231
17160TIP3    H172971   5.325   6.308   1.109  0.7507 -2.3525  0.0063
17160TIP3    H272972   5.203   6.372   1.171  0.4254  0.8736 -3.6023
17161TIP3   OH272973   0.475   3.139   4.533  0.1582  0.1544  0.0147
17161TIP3    H172974   0.392   3.128   4.487 -1.6016  0.1502  2.9407
17161TIP3    H272975   0.496   3.051   4.566  1.0144  0.2679 -0.2147
17162TIP3   OH272976   4.852   4.988   5.560  0.2848  0.1370  0.0075
17162TIP3    H172977   4.760   4.989   5.534  0.3868 -1.5873 -0.5225
17162TIP3    H272978   4.853   4.937   5.642  0.9612 -1.5402 -0.9947
17163TIP3   OH272979   0.428   3.956  13.671 -0.1242 -0.1942 -0.3160
17163TIP3    H172980   0.401   3.901  13.598 -1.0357  1.1271 -1.0257
17163TIP3    H272981   0.397   3.910  13.749 -0.6392 -0.8064 -0.8738
17164TIP3   OH272982   1.698   4.302  16.510  0.2465  0.5726  0.0112
17164TIP3    H172983   1.661   4.359  16.443 -1.6066  1.1376  1.4444
17164TIP3    H272984   1.639   4.309  16.584  2.9331  1.0535  2.2835
17165TIP3   OH272985   5.347   2.658   1.527 -0.2089  0.2479  0.3444
17165TIP3    H172986   5.283   2.644   1.457  0.6226  0.0012 -0.3762
17165TIP3    H272987   5.326   2.745   1.561 -0.4331  0.4997 -0.4144
17166TIP3   OH272988   4.010   6.421  15.473  0.1565 -0.3481 -0.2771
17166TIP3    H172989   3.985   6.472  15.550  0.4684  0.8626 -0.9379
17166TIP3    H272990   4.081   6.364  15.503  1.4306  1.2866 -0.0102
17167TIP3   OH272991   0.057   6.010   1.744 -0.2482 -0.0526  0.4132
17167TIP3    H172992   0.037   6.100   1.718 -3.6207 -0.5798  0.7516
17167TIP3    H272993   0.055   5.961   1.661  1.4735  0.0900  0.2442
17168TIP3   OH272994   0.727   3.615  16.629 -0.1655 -0.1710  0.1013
17168TIP3    H172995   0.810   3.597  16.674  0.3444  2.2625  0.2535
17168TIP3    H272996   0.665   3.633  16.700 -0.8599 -1.8567 -0.0194
17169TIP3   OH272997   4.313   2.993  14.713 -0.1204  0.0138  0.0170
17169TIP3    H172998   4.229   2.955  14.689 -0.5236 -0.4433  1.9156
17169TIP3    H272999   4.335   3.053  14.642 -1.3658 -0.8936 -1.1723
17170TIP3   OH273000   3.042   5.440   3.416 -0.4761  0.0284  0.0416
17170TIP3    H173001   2.949   5.417   3.425 -0.7340  0.7003 -0.6914
17170TIP3    H273002   3.072   5.391   3.340 -0.5672  0.7391 -0.4651
17171TIP3   OH273003   1.242   6.149   1.039 -0.4779 -0.3269  0.3456
17171TIP3    H173004   1.335   6.142   1.059 -1.0196 -2.5816  2.6958
17171TIP3    H273005   1.222   6.072   0.987 -0.9290  0.5024 -0.7390
17172TIP3   OH273006   2.649   2.229  15.597  0.2723 -0.4371  0.2405
17172TIP3    H173007   2.699   2.194  15.523  0.3290  1.9246 -0.9400
17172TIP3    H273008   2.689   2.189  15.674  1.7265 -1.2272 -0.8803
17173TIP3   OH273009   4.762   3.475   5.244  0.7751  0.2333 -0.1004
17173TIP3    H173010   4.677   3.483   5.201  1.1308 -1.7495 -1.3099
17173TIP3    H273011   4.741   3.446   5.333  0.1799 -0.6848 -0.5252
17174TIP3   OH273012   3.967   0.275  15.013 -0.2815 -1.4800 -0.5941
17174TIP3    H173013   3.923   0.322  15.083 -1.0891 -3.4773  0.3298
17174TIP3    H273014   4.053   0.315  15.006 -0.3049 -1.0431  1.3521
17175TIP3   OH273015   4.571   6.410   4.088 -0.6136 -0.0710 -0.2722
17175TIP3    H173016   4.571   6.468   4.012  1.1970  0.4462  0.0885
17175TIP3    H273017   4.564   6.322   4.050 -2.7269  0.3021 -0.8502
17176TIP3   OH273018   6.158   1.831  14.704 -0.8087  0.6593 -0.0548
17176TIP3    H173019   6.100   1.839  14.628 -1.0597 -0.9339 -0.0658
17176TIP3    H273020   6.246   1.833  14.666 -0.9461 -1.0791 -0.5280
17177TIP3   OH273021   3.093   1.665   1.916  0.3368 -0.6618 -0.3331
17177TIP3    H173022   3.069   1.689   2.006  1.1014 -0.3382 -0.2095
17177TIP3    H273023   3.012   1.631   1.878 -0.2909  0.2942  0.1128
17178TIP3   OH273024   3.213   5.104  15.089  0.2012  0.2022  0.2361
17178TIP3    H173025   3.208   5.199  15.097 -3.0902  0.2097 -0.1489
17178TIP3    H273026   3.248   5.089  15.001  1.7789  0.9972  0.7121
17179TIP3   OH273027   2.061   3.611   0.439  1.0104  0.0626 -0.1055
17179TIP3    H173028   2.066   3.524   0.479 -1.0011  0.0241  0.1672
17179TIP3    H273029   2.024   3.667   0.508 -0.5019  0.4603 -1.1844
17180TIP3   OH273030   3.687   6.254   2.033  0.7017  0.3678 -0.5422
17180TIP3    H173031   3.662   6.345   2.049  0.5229 -0.0019  1.5053
17180TIP3    H273032   3.667   6.209   2.114  0.2676 -1.6455 -1.7016
17181TIP3   OH273033   0.998   4.245  13.011 -0.1645  0.4247  0.4293
17181TIP3    H173034   1.045   4.297  12.947  0.7143  0.6405  1.2308
17181TIP3    H273035   0.905   4.260  12.991  0.0569 -0.5013 -1.5550
17182TIP3   OH273036   0.009   5.078  16.121 -0.1498  0.0469  0.1965
17182TIP3    H173037  -0.023   5.166  16.098 -0.4574  0.0955  0.7711
17182TIP3    H273038   0.071   5.056  16.053 -0.9054  0.2534 -0.5778
17183TIP3   OH273039   6.070   0.852   0.939 -0.0830  0.5980 -0.5381
17183TIP3    H173040   6.139   0.804   0.894 -0.2752 -0.6049  0.4044
17183TIP3    H273041   6.086   0.836   1.032 -1.5514  0.3984 -0.2964
17184TIP3   OH273042   2.352   6.033  16.172  0.2044  0.5461  0.1429
17184TIP3    H173043   2.273   6.079  16.202  0.8044  1.0131  1.0469
17184TIP3    H273044   2.322   5.943  16.157 -0.0010  0.0035  3.1064
17185TIP3   OH273045   3.649   0.853   4.912  0.2677 -0.4304 -0.4750
17185TIP3    H173046   3.619   0.940   4.884 -2.8014 -1.7661 -1.7322
17185TIP3    H273047   3.619   0.846   5.003 -1.2116 -0.8698 -0.9845
17186TIP3   OH273048   1.886   6.171   2.793 -0.1620  0.3662  0.1852
17186TIP3    H173049   1.806   6.125   2.817  0.6596 -0.5999  1.1307
17186TIP3    H273050   1.869   6.202   2.704 -1.1197 -0.9053 -0.1051
17187TIP3   OH273051   6.340   2.930  12.123 -0.3048  0.7134  0.5301
17187TIP3    H173052   6.312   2.844  12.091  0.0123  0.1591  1.6985
17187TIP3    H273053   6.286   2.992  12.075  0.1381 -0.0755 -1.0565
17188TIP3   OH273054   0.617   6.408  15.090  0.4584  0.2987 -0.4384
17188TIP3    H173055   0.533   6.402  15.134  1.3504 -1.7457  1.2029
17188TIP3    H273056   0.678   6.436  15.158  1.5801 -1.2343 -0.7388
17189TIP3   OH273057   5.071   6.522  11.148 -0.2852 -0.2255 -0.2243
17189TIP3    H173058   5.146   6.488  11.196  2.7569  1.5330 -3.3103
17189TIP3    H273059   5.061   6.463  11.074 -0.8140  0.5421 -0.7839
17190TIP3   OH273060   6.202   5.381  13.082 -0.2240  0.0517 -0.2908
17190TIP3    H173061   6.228   5.467  13.116 -2.1397  0.7249 -0.3487
17190TIP3    H273062   6.161   5.401  12.998  0.6251 -1.1114 -0.9995
17191TIP3   OH273063   4.090   2.473  15.688  0.6711 -0.5815 -0.0231
17191TIP3    H173064   4.087   2.462  15.783  1.2703 -0.0028  0.0684
17191TIP3    H273065   3.998   2.477  15.662  0.4684  1.5583  0.8227
17192TIP3   OH273066   1.439   5.398  10.815  0.2132 -1.0464 -0.1100
17192TIP3    H173067   1.519   5.440  10.784  0.4902 -2.2574 -1.0793
17192TIP3    H273068   1.459   5.373  10.905  0.1702  0.5270  0.3658
17193TIP3   OH273069   1.705   4.416  16.912 -1.1972  0.0359 -0.2771
17193TIP3    H173070   1.759   4.423  16.990 -0.2762  0.0840 -0.9062
17193TIP3    H273071   1.631   4.360  16.939 -0.4003 -0.7481  0.3549
17194TIP3   OH273072   0.902   1.511  14.342 -0.1178 -0.0558 -0.1585
17194TIP3    H173073   0.936   1.546  14.425  0.3458 -3.2117  1.1257
17194TIP3    H273074   0.979   1.509  14.284  0.3946 -0.9660  0.5188
17195TIP3   OH273075   5.553   1.221  12.445 -0.5493  0.7182 -0.4419
17195TIP3    H173076   5.459   1.237  12.458 -0.6764  0.2209 -0.6836
17195TIP3    H273077   5.555   1.155  12.375  0.0231  1.7584 -1.4373
17196TIP3   OH273078   1.975   2.314   2.705  0.1207 -0.2791 -0.2539
17196TIP3    H173079   2.030   2.248   2.663 -1.8729 -0.7955 -2.2314
17196TIP3    H273080   1.889   2.303   2.665 -1.0964  1.4558  1.6523
17197TIP3   OH273081   5.749   1.536   2.101 -0.0740  0.6619  0.5003
17197TIP3    H173082   5.748   1.593   2.023 -0.3483  1.0110  0.7523
17197TIP3    H273083   5.809   1.580   2.161  1.3089 -0.3795 -0.0621
17198TIP3   OH273084   3.408   3.490   3.701 -0.3997 -0.3710  0.1923
17198TIP3    H173085   3.462   3.569   3.704  0.3533 -0.8458 -0.2698
17198TIP3    H273086   3.452   3.434   3.636 -1.4489 -0.7817 -0.1833
17199TIP3   OH273087   2.824   5.914   1.620  0.5632 -0.2317  0.0964
17199TIP3    H173088   2.783   6.001   1.619 -0.3915 -0.6565 -0.9991
17199TIP3    H273089   2.804   5.878   1.533  3.1826 -0.5493 -0.4385
17200TIP3   OH273090   1.495   3.159  13.922  0.5225 -0.6227 -0.2861
17200TIP3    H173091   1.438   3.236  13.916  1.9870  0.4084 -1.6920
17200TIP3    H273092   1.525   3.159  14.013 -0.1853 -0.0516 -0.0435
17201TIP3   OH273093   1.745   5.211  11.069 -0.2997 -0.1363 -0.4208
17201TIP3    H173094   1.765   5.228  10.977  0.3402  1.0229 -0.0914
17201TIP3    H273095   1.677   5.275  11.090  0.2123  0.2356  0.1420
17202TIP3   OH273096   5.097   1.222   2.462 -0.0557 -0.6611  0.0159
17202TIP3    H173097   5.135   1.297   2.416  0.9678 -1.1171  0.0729
17202TIP3    H273098   5.027   1.259   2.516  0.2406  0.2064 -0.1797
17203TIP3   OH273099   2.574   2.399   0.651  0.4945 -0.5007  0.3232
17203TIP3    H173100   2.582   2.329   0.716  0.3387  0.0295  0.9175
17203TIP3    H273101   2.497   2.376   0.599 -0.6759  0.1682  1.6870
17204TIP3   OH273102   2.050   4.577   5.215 -0.1456 -0.1524  0.0142
17204TIP3    H173103   2.029   4.605   5.126  2.5986  1.1851 -0.3078
17204TIP3    H273104   1.965   4.560   5.256 -1.6665  2.3459 -1.8631
17205TIP3   OH273105   6.459   3.009   3.818  0.0517 -0.2573 -0.2926
17205TIP3    H173106   6.436   3.021   3.726 -0.1413 -0.3662 -0.2578
17205TIP3    H273107   6.550   3.039   3.824 -0.2203  0.5908 -0.3330
17206TIP3   OH273108   5.083   6.405   5.817  0.2182 -0.0186  0.0830
17206TIP3    H173109   5.140   6.378   5.889  0.0683 -3.4507 -0.9357
17206TIP3    H273110   5.021   6.466   5.858  1.6980  0.1524  2.2478
17207TIP3   OH273111   0.291   5.830  16.061 -0.0772 -0.2690 -0.5280
17207TIP3    H173112   0.293   5.862  15.970 -1.5439 -1.0688 -0.8881
17207TIP3    H273113   0.334   5.745  16.057  2.6110  0.9435  0.1717
17208TIP3   OH273114   3.790   3.588   4.874 -0.0736  0.1260  0.1590
17208TIP3    H173115   3.848   3.516   4.850  1.4963  1.3848  0.0003
17208TIP3    H273116   3.728   3.550   4.936 -1.4225 -2.1588 -2.3738
17209TIP3   OH273117   1.622   0.395   1.140  0.3674 -0.7092  0.6209
17209TIP3    H173118   1.665   0.367   1.059  1.2008  0.2364  0.7182
17209TIP3    H273119   1.675   0.357   1.210  0.9368  0.2676  0.7387
17210TIP3   OH273120   5.287   5.487  12.481  0.4832 -0.2574 -0.5590
17210TIP3    H173121   5.325   5.499  12.568  1.1414 -3.1026 -0.3470
17210TIP3    H273122   5.316   5.563  12.431 -0.0085  1.5061  1.7128
17211TIP3   OH273123   5.007   3.749  12.711  0.2926  0.7213 -0.5875
17211TIP3    H173124   5.043   3.819  12.657  0.7061  0.7025 -0.3436
17211TIP3    H273125   5.077   3.684  12.716  1.1663  1.7277  1.8329
17212TIP3   OH273126   0.021   5.833  16.064  0.5186 -0.6491 -0.7012
17212TIP3    H173127   0.114   5.847  16.046  0.4275  0.8618 -0.1304
17212TIP3    H273128  -0.011   5.787  15.987  1.7489 -1.2324 -0.8880
17213TIP3   OH273129   2.088   0.728  14.030  0.0769 -0.0816  0.1069
17213TIP3    H173130   2.114   0.709  14.120 -2.6979  0.2624  1.1024
17213TIP3    H273131   2.037   0.809  14.037  1.6896  1.2157 -2.1678
17214TIP3   OH273132   0.070   3.800  12.221  0.3329  0.5056  0.0089
17214TIP3    H173133   0.062   3.855  12.298 -1.1831  0.0151  0.2395
17214TIP3    H273134   0.056   3.711  12.254 -0.2508  0.2834 -0.8058
17215TIP3   OH273135   5.222   6.736  15.397 -0.2063 -0.2760 -0.4075
17215TIP3    H173136   5.310   6.723  15.433 -0.2849 -1.3137 -0.5399
17215TIP3    H273137   5.195   6.648  15.371 -1.6285 -0.0945  0.4162
17216TIP3   OH273138   3.456   5.161  15.855  0.5861  0.3876  0.2933
17216TIP3    H173139   3.513   5.203  15.791  1.0218 -1.0737 -0.3031
17216TIP3    H273140   3.504   5.083  15.884 -0.8127 -0.5208  0.2624
17217TIP3   OH273141   1.812   4.458   4.659  0.1672 -0.3771 -0.1644
17217TIP3    H173142   1.905   4.471   4.679 -0.0698 -0.5320  1.2032
17217TIP3    H273143   1.811   4.397   4.585  1.1678 -1.5664  0.7488
17218TIP3   OH273144   1.129   1.229   3.160 -0.4686 -0.0729 -0.3349
17218TIP3    H173145   1.205   1.246   3.216 -0.8731 -0.8296  0.4848
17218TIP3    H273146   1.110   1.313   3.119  1.6453 -0.1560 -1.6590
17219TIP3   OH273147   1.288   4.956   0.858  0.6080 -0.3706  0.2365
17219TIP3    H173148   1.354   4.962   0.928 -1.0533 -0.2026  1.8558
17219TIP3    H273149   1.205   4.976   0.902 -0.5247 -0.5002 -1.7607
17220TIP3   OH273150   3.526   4.542   5.417  0.0757  0.0631  0.5378
17220TIP3    H173151   3.616   4.574   5.428 -0.2179  0.8675  0.6393
17220TIP3    H273152   3.535   4.464   5.363  0.8503  0.0828  0.6298
17221TIP3   OH273153   2.573   3.095  16.255 -0.0208 -0.0219 -0.6748
17221TIP3    H173154   2.491   3.096  16.206 -0.1126  0.4260 -0.5123
17221TIP3    H273155   2.640   3.118  16.190 -0.1207  0.3973 -0.6302
17222TIP3   OH273156   6.514   4.251  11.359 -0.3071 -0.2323  0.1257
17222TIP3    H173157   6.419   4.245  11.355 -0.4641  1.7294 -0.4773
17222TIP3    H273158   6.534   4.250  11.452 -1.0960  0.9274  0.3341
17223TIP3   OH273159   0.532   1.020  13.470  0.3054 -0.3863 -0.2231
17223TIP3    H173160   0.460   1.037  13.532  0.4854  0.4642 -0.2425
17223TIP3    H273161   0.491   1.025  13.384  0.0537 -1.5751 -0.1893
17224TIP3   OH273162   1.101   5.104  11.462  0.0316  0.1346  0.6170
17224TIP3    H173163   1.085   5.138  11.374 -3.0298  0.7196  1.3136
17224TIP3    H273164   1.015   5.096  11.502  1.1398 -2.1421  2.8792
17225TIP3   OH273165   6.272   5.417  15.681  0.3840  0.0935  0.3266
17225TIP3    H173166   6.253   5.324  15.666  1.5256 -0.2361  0.7631
17225TIP3    H273167   6.200   5.463  15.639  0.0086 -0.9780 -0.2654
17226TIP3   OH273168   2.873   5.893   2.209  0.0473  0.0893 -0.4115
17226TIP3    H173169   2.858   5.899   2.114 -2.7985  0.2379 -0.0418
17226TIP3    H273170   2.878   5.799   2.226  0.6206  0.0618 -0.7097
17227TIP3   OH273171   0.469   5.715   4.728 -0.0782 -0.1886  0.2143
17227TIP3    H173172   0.485   5.695   4.636  0.0835 -1.3524  0.4832
17227TIP3    H273173   0.401   5.782   4.727  1.2844  1.2730 -0.8138
17228TIP3   OH273174   1.075   0.134  12.626  0.1105  0.6307  0.4063
17228TIP3    H173175   1.153   0.175  12.663  1.0490 -1.6798  1.1669
17228TIP3    H273176   1.003   0.190  12.655  1.2657  1.4352  1.8687
17229TIP3   OH273177   0.829   6.154   2.611 -0.1390  0.4456 -0.8480
17229TIP3    H173178   0.789   6.075   2.574 -1.5588  1.7962 -2.3537
17229TIP3    H273179   0.914   6.160   2.567  1.0187 -1.4274  0.9764
17230TIP3   OH273180   0.763   6.745  12.641  0.2713 -0.1250 -0.2314
17230TIP3    H173181   0.730   6.656  12.628  0.1723 -0.3527  1.3314
17230TIP3    H273182   0.856   6.734  12.658  0.3439  0.1131 -0.4732
17231TIP3   OH273183   4.096   5.415   4.389  0.0870 -0.0881 -0.0616
17231TIP3    H173184   4.142   5.385   4.312 -0.9571  1.0923 -1.2009
17231TIP3    H273185   4.003   5.401   4.369 -0.2152  0.4889  0.8491
17232TIP3   OH273186   0.350   2.889   0.134 -0.0388  0.0566 -0.2261
17232TIP3    H173187   0.381   2.937   0.210 -3.1771  0.7643  0.7777
17232TIP3    H273188   0.373   2.797   0.152  0.7783  0.4333  0.7386
17233TIP3   OH273189   1.931   0.912  14.753 -0.0386  0.2023  0.2140
17233TIP3    H173190   1.877   0.919  14.674  0.3378 -2.9578 -0.4478
17233TIP3    H273191   1.868   0.908  14.825 -0.4593  1.3533 -0.0783
17234TIP3   OH273192   4.430   3.130   0.728  0.2349  0.0642  0.2098
17234TIP3    H173193   4.476   3.152   0.647 -0.1671  1.5096  0.3616
17234TIP3    H273194   4.457   3.039   0.746  0.9124 -0.0272 -1.1264
17235TIP3   OH273195   5.199   6.275   0.764  0.0658  0.0354 -0.2343
17235TIP3    H173196   5.250   6.287   0.684  0.1550 -1.3774 -0.4113
17235TIP3    H273197   5.265   6.260   0.832  0.0644  2.3861  0.3900
17236TIP3   OH273198   1.245   4.543  13.639 -0.0100 -0.6336 -0.3051
17236TIP3    H173199   1.179   4.613  13.636  0.2908 -0.2938  0.7614
17236TIP3    H273200   1.301   4.560  13.563 -2.7810 -2.6345 -3.0848
17237TIP3   OH273201   1.936   6.434   3.284  0.1207  0.4160 -0.3291
17237TIP3    H173202   1.876   6.413   3.212  0.0961  0.9910 -0.4846
17237TIP3    H273203   1.972   6.520   3.261 -0.3524  0.8928  0.6468
17238TIP3   OH273204   2.943   6.640   2.666  0.0083  0.3358  0.9667
17238TIP3    H173205   2.850   6.664   2.674  0.2159  1.3776  0.4972
17238TIP3    H273206   2.985   6.683   2.741  0.2377  0.5895  0.6930
17239TIP3   OH273207   6.123   4.258  13.061 -0.2251 -0.0909 -0.1304
17239TIP3    H173208   6.122   4.170  13.022 -1.2083  0.1863 -0.7798
17239TIP3    H273209   6.192   4.305  13.015  0.5292 -0.6097  0.4466
17240TIP3   OH273210   2.185   0.983  13.066  0.0205  0.2331  0.2065
17240TIP3    H173211   2.218   0.897  13.090  1.3636  0.9977  1.2549
17240TIP3    H273212   2.158   0.974  12.974 -2.1793 -1.9119  0.9498
17241TIP3   OH273213   1.558   1.598  17.140  0.1227 -0.1747  0.3376
17241TIP3    H173214   1.571   1.679  17.090  1.8188  0.1207  1.1686
17241TIP3    H273215   1.468   1.604  17.173 -0.2692  0.6705 -0.8190
17242TIP3   OH273216   3.325   5.367  11.401  0.2071 -1.2446  0.0709
17242TIP3    H173217   3.402   5.422  11.393  0.1970 -1.4567 -2.4664
17242TIP3    H273218   3.251   5.427  11.390  0.1313 -1.4129 -0.4006
17243TIP3   OH273219   1.932   3.127  15.887  0.1547  0.1141  0.3839
17243TIP3    H173220   1.854   3.156  15.840 -0.4506 -1.9735 -0.0034
17243TIP3    H273221   1.972   3.061  15.830  0.4077 -1.1590  1.9461
17244TIP3   OH273222   0.624   5.876  12.340 -0.5115  0.5104  0.0776
17244TIP3    H173223   0.685   5.915  12.277 -1.1539  1.8847  0.2633
17244TIP3    H273224   0.680   5.836  12.407  0.1719 -0.3838 -0.9980
17245TIP3   OH273225   3.174   1.688  14.523  0.5909 -0.3578 -0.0620
17245TIP3    H173226   3.222   1.676  14.605  1.6765 -0.9369 -0.7512
17245TIP3    H273227   3.204   1.617  14.467 -0.7057 -0.4297 -0.7187
17246TIP3   OH273228   6.431   0.631   4.110  0.2591 -0.3727 -0.4845
17246TIP3    H173229   6.424   0.721   4.076 -1.4019 -1.0416 -2.1100
17246TIP3    H273230   6.494   0.589   4.052 -0.5455 -0.7877 -1.0866
17247TIP3   OH273231   1.465   1.050   2.357  0.2655  0.0260 -0.2846
17247TIP3    H173232   1.407   1.008   2.421 -0.1014 -0.1138 -0.7038
17247TIP3    H273233   1.553   1.030   2.388  0.1241 -1.9812 -1.0394
17248TIP3   OH273234   3.377   0.751  16.491 -0.1646  0.2996  0.4130
17248TIP3    H173235   3.402   0.659  16.482 -0.5159  0.1141  1.2375
17248TIP3    H273236   3.288   0.756  16.458  0.1104  0.4913 -0.3077
17249TIP3   OH273237   5.922   0.614   0.630 -0.0114  0.5486  0.2483
17249TIP3    H173238   5.922   0.702   0.669  0.7905  0.4151  0.5749
17249TIP3    H273239   6.009   0.605   0.591 -0.8207  0.7158 -1.7101
17250TIP3   OH273240   0.275   1.039   0.489  0.2602  0.0252  0.0606
17250TIP3    H173241   0.281   0.965   0.429  0.5063 -0.2015  0.3622
17250TIP3    H273242   0.353   1.092   0.469  0.1675  0.1191 -0.0480
17251TIP3   OH273243   6.362   3.842  14.909 -0.0509 -0.2566 -0.7986
17251TIP3    H173244   6.392   3.770  14.965  0.8183  2.0336  1.8587
17251TIP3    H273245   6.267   3.845  14.924  0.1725  0.3224  0.5717
17252TIP3   OH273246   5.540   0.047  16.222 -0.3443 -0.5068  0.2599
17252TIP3    H173247   5.449   0.028  16.244 -1.0922 -0.0823 -2.1540
17252TIP3    H273248   5.558   0.131  16.264 -0.4559 -1.3988  2.1855
17253TIP3   OH273249   1.556   3.884  15.501 -0.0723 -0.0035 -0.5712
17253TIP3    H173250   1.463   3.875  15.480 -0.3067 -0.2755  0.5067
17253TIP3    H273251   1.565   3.975  15.531 -0.5881 -0.7087  1.9551
17254TIP3   OH273252   0.107   5.288  14.761  0.9617  0.4798  0.5827
17254TIP3    H173253   0.021   5.329  14.758  1.1177  0.8604  1.0479
17254TIP3    H273254   0.136   5.300  14.852  0.9481 -0.8054  0.7703
17255TIP3   OH273255   1.053   1.156   1.387  0.1193  0.2774  0.3052
17255TIP3    H173256   1.011   1.091   1.443 -0.3683 -0.0646 -0.4290
17255TIP3    H273257   1.102   1.213   1.447  0.0263 -0.3795  1.0117
17256TIP3   OH273258   6.327   3.530  15.436 -0.6069 -0.0852 -0.0536
17256TIP3    H173259   6.414   3.495  15.416 -0.5338  0.6520 -1.0660
17256TIP3    H273260   6.276   3.514  15.357 -1.5554 -0.9646  0.7050
17257TIP3   OH273261   2.455   4.303  15.465 -0.1625 -0.4381 -0.3919
17257TIP3    H173262   2.540   4.266  15.486  0.0983 -0.4598 -1.4524
17257TIP3    H273263   2.406   4.298  15.547  0.8843 -0.3224  0.2537
17258TIP3   OH273264   2.917   4.322   4.490 -0.9643 -0.7252  0.7688
17258TIP3    H173265   2.868   4.279   4.419  1.6356  1.3771 -2.6614
17258TIP3    H273266   2.980   4.256   4.519  0.0512 -0.7683 -1.2920
17259TIP3   OH273267   2.708   1.819   5.074  0.1439  0.0775  0.0722
17259TIP3    H173268   2.705   1.911   5.100 -1.5275  0.1023 -0.0631
17259TIP3    H273269   2.727   1.771   5.155 -2.8545  0.3103  1.0422
17260TIP3   OH273270   0.101   4.869   1.199  0.2410 -0.2137  0.3296
17260TIP3    H173271   0.173   4.896   1.142  1.6787  0.4302  2.3590
17260TIP3    H273272   0.064   4.951   1.231  0.3212 -0.5747  1.3680
17261TIP3   OH273273   5.807   1.748   1.663 -0.6428 -0.1541  0.2137
17261TIP3    H173274   5.874   1.705   1.611 -2.4498 -2.2545 -0.5446
17261TIP3    H273275   5.840   1.837   1.676  2.0234 -0.9442 -0.4787
17262TIP3   OH273276   5.241   3.231  15.980  0.3573  0.1328  0.2620
17262TIP3    H173277   5.258   3.325  15.981 -0.5884  0.3564 -1.5259
17262TIP3    H273278   5.324   3.192  16.008  0.9522  1.4638  0.4411
17263TIP3   OH273279   4.016   3.923  14.946  0.2446  0.2551  0.0589
17263TIP3    H173280   4.053   3.865  15.013  0.6253 -0.1428 -0.4800
17263TIP3    H273281   3.978   3.995  14.995  2.5079  1.1525  0.6545
17264TIP3   OH273282   0.741   2.706  12.809  0.1084 -0.0072  0.5150
17264TIP3    H173283   0.761   2.764  12.882  2.9015 -0.5052  0.2592
17264TIP3    H273284   0.690   2.759  12.748  0.7866  1.5168  1.2395
17265TIP3   OH273285   6.096   4.838   3.541  0.3426 -0.0837 -0.2464
17265TIP3    H173286   6.009   4.838   3.501 -0.8564 -0.9467  2.1730
17265TIP3    H273287   6.138   4.917   3.507 -1.7363  0.8626 -0.7832
17266TIP3   OH273288   6.097   1.467  16.016 -0.1168  0.1822 -0.5313
17266TIP3    H173289   6.022   1.444  15.962  0.1593 -1.7992 -0.1320
17266TIP3    H273290   6.166   1.487  15.953  0.0398 -1.5545 -0.9585
17267TIP3   OH273291   0.436   4.240   4.380  0.0822 -0.4245  0.2061
17267TIP3    H173292   0.386   4.317   4.405  1.2152  0.0848  0.9463
17267TIP3    H273293   0.501   4.272   4.317  0.6465 -0.7326  0.6175
17268TIP3   OH273294   6.695   2.221  10.571 -0.1499  0.2013  0.0547
17268TIP3    H173295   6.619   2.212  10.630  1.0179  2.1319  2.0141
17268TIP3    H273296   6.726   2.131  10.559 -1.5680 -0.4411  0.8275
17269TIP3   OH273297   0.227   4.602   1.193  0.0690  0.2217  0.8481
17269TIP3    H173298   0.305   4.623   1.142  0.0481  0.9631  1.1076
17269TIP3    H273299   0.178   4.684   1.197 -0.4414 -0.0918  1.1697
17270TIP3   OH273300   6.176   2.980  14.840  0.1728  0.5618 -0.5350
17270TIP3    H173301   6.210   3.066  14.865 -0.6523  0.5773  0.6086
17270TIP3    H273302   6.082   2.993  14.832 -0.0065 -0.3042  0.0275
17271TIP3   OH273303   4.675   0.815  11.278 -0.0928 -0.2683  0.5815
17271TIP3    H173304   4.738   0.765  11.227 -1.5030 -2.2283  0.6518
17271TIP3    H273305   4.601   0.828  11.219 -1.1452 -1.3041  1.6201
17272TIP3   OH273306   1.072   1.745  13.707  0.0125 -0.5054  0.4153
17272TIP3    H173307   1.004   1.812  13.708  1.2582  0.8542  2.6924
17272TIP3    H273308   1.057   1.694  13.787  0.9684 -0.9097  0.3511
17273TIP3   OH273309   4.390   1.149   1.115  0.3734 -0.0660 -0.4046
17273TIP3    H173310   4.436   1.178   1.194  0.7777  0.6838 -0.9081
17273TIP3    H273311   4.339   1.074   1.144 -0.2364  0.7823  0.7976
17274TIP3   OH273312   5.878   4.880  11.240 -0.0482 -0.4223 -0.2285
17274TIP3    H173313   5.941   4.938  11.283 -1.5686  0.5415  0.8150
17274TIP3    H273314   5.871   4.913  11.151 -0.7012  0.8997  0.2799
17275TIP3   OH273315   2.406   3.247   6.061 -0.3001  0.7320  0.0960
17275TIP3    H173316   2.382   3.324   6.114  0.8966 -0.5592  2.6920
17275TIP3    H273317   2.338   3.183   6.082 -0.0085  0.3144 -0.2457
17276TIP3   OH273318   2.161   3.711  12.898 -0.4278  0.0841  0.4281
17276TIP3    H173319   2.232   3.705  12.963  1.3366  2.4775 -1.1087
17276TIP3    H273320   2.093   3.763  12.941 -1.1346 -1.7882  1.7299
17277TIP3   OH273321   1.648   0.269  11.065 -0.7716  0.2540  0.5797
17277TIP3    H173322   1.692   0.220  10.995 -2.7855 -0.9551  0.0722
17277TIP3    H273323   1.637   0.205  11.135 -0.4478  0.9481  1.2768
17278TIP3   OH273324   5.102   0.958  13.304  0.5381 -0.4334  0.4584
17278TIP3    H173325   5.114   0.866  13.329  1.2053 -1.0221 -1.8348
17278TIP3    H273326   5.122   0.961  13.211  0.0178  1.9694  0.3527
17279TIP3   OH273327   3.172   4.732   4.114  0.8025 -0.2389  0.0148
17279TIP3    H173328   3.102   4.670   4.095  1.6139 -1.0046 -0.5723
17279TIP3    H273329   3.127   4.814   4.133 -0.2145 -0.2606 -2.0236
17280TIP3   OH273330   5.892   4.087   5.484 -0.7294 -0.0551 -0.2746
17280TIP3    H173331   5.932   4.145   5.548 -0.5367 -1.5745  1.0426
17280TIP3    H273332   5.945   4.099   5.405  1.1312 -0.5303  0.8322
17281TIP3   OH273333   3.849   5.996   3.014 -0.0307 -0.5377  0.0021
17281TIP3    H173334   3.923   6.055   2.997 -0.6527  0.1820 -0.2730
17281TIP3    H273335   3.830   5.957   2.929  1.4515 -2.4654  0.4849
17282TIP3   OH273336   2.214   4.439   1.196 -0.1642 -0.3304 -0.5665
17282TIP3    H173337   2.170   4.386   1.263  0.2681 -0.1258 -0.1102
17282TIP3    H273338   2.298   4.396   1.183  0.9041  1.1301  1.0357
17283TIP3   OH273339   3.686   1.984  13.118 -0.1775  0.7863 -0.0702
17283TIP3    H173340   3.604   2.012  13.076 -1.0165  0.7633  1.4743
17283TIP3    H273341   3.664   1.901  13.161  1.7268 -1.3528 -2.8505
17284TIP3   OH273342   4.191   0.751   5.908 -0.4027 -0.5190 -0.7432
17284TIP3    H173343   4.132   0.725   5.979 -0.0759 -1.4484 -0.7998
17284TIP3    H273344   4.279   0.740   5.944 -0.1562  3.2168  0.2067
17285TIP3   OH273345   0.884   2.716   1.832 -0.3472 -0.3152 -0.5349
17285TIP3    H173346   0.799   2.750   1.857 -0.5860 -0.0110 -1.6976
17285TIP3    H273347   0.932   2.707   1.914 -1.1240  0.5175  0.0213
17286TIP3   OH273348   6.524   6.480  13.154 -0.2084 -0.2218 -0.3196
17286TIP3    H173349   6.581   6.495  13.230 -0.3623 -1.5802  0.0825
17286TIP3    H273350   6.536   6.388  13.133 -1.4515 -0.2690 -0.9002
17287TIP3   OH273351   0.199   5.639  12.947 -0.0551  0.6266  0.1192
17287TIP3    H173352   0.276   5.681  12.985 -1.1649  1.6417  1.3543
17287TIP3    H273353   0.183   5.563  13.002  0.7447 -0.2854 -0.8709
17288TIP3   OH273354   6.075   1.260  13.474 -0.3028  0.0144 -0.5358
17288TIP3    H173355   6.117   1.208  13.542  0.0923 -1.6126 -1.9561
17288TIP3    H273356   6.008   1.311  13.521  0.0855 -0.8922  1.0814
17289TIP3   OH273357   2.776   5.162  16.515  0.1037  0.2732  0.3416
17289TIP3    H173358   2.710   5.230  16.502 -0.1536  0.4972  2.5147
17289TIP3    H273359   2.726   5.081  16.528  0.3784 -0.1316 -0.9140
17290TIP3   OH273360   5.425   0.902   3.177  0.1600 -0.3571 -0.1574
17290TIP3    H173361   5.367   0.894   3.101  0.4336  1.6643 -0.6445
17290TIP3    H273362   5.367   0.921   3.250 -0.0378 -1.5471  0.0125
17291TIP3   OH273363   2.902   0.839  14.601  0.1018  0.5069  0.0267
17291TIP3    H173364   2.947   0.923  14.603  0.4583  0.3058  0.6118
17291TIP3    H273365   2.914   0.802  14.688  0.9973 -0.6913 -0.5700
17292TIP3   OH273366   4.213   0.700   3.527 -0.4080  0.1971  0.1875
17292TIP3    H173367   4.283   0.694   3.462  0.1371 -0.0046  0.7791
17292TIP3    H273368   4.172   0.613   3.527 -2.1742  0.9566 -1.7825
17293TIP3   OH273369   6.043   2.712   5.442  0.0260  0.1644  0.6672
17293TIP3    H173370   6.024   2.623   5.412 -0.9348  0.3206  0.7510
17293TIP3    H273371   5.958   2.745   5.471  0.7433  0.3018  2.8100
17294TIP3   OH273372   4.539   2.293  16.914  0.0683 -0.3381 -0.1038
17294TIP3    H173373   4.455   2.252  16.933 -0.1157  0.1221  0.0753
17294TIP3    H273374   4.521   2.355  16.843  0.0711  0.4032  0.5311
17295TIP3   OH273375   1.273   3.260  14.884  0.5104  0.0293 -0.2417
17295TIP3    H173376   1.212   3.193  14.915  0.9829 -1.0521 -1.5494
17295TIP3    H273377   1.219   3.319  14.831 -0.2787  1.8232  2.3850
17296TIP3   OH273378   6.357   4.990   5.542  0.4322 -0.1155 -0.2417
17296TIP3    H173379   6.294   5.058   5.568  0.1742 -0.3955 -0.1311
17296TIP3    H273380   6.378   4.945   5.624  0.4760 -0.2751 -0.3413
17297TIP3   OH273381   6.333   6.077   4.002 -0.1206 -0.2009 -0.1052
17297TIP3    H173382   6.426   6.058   3.986 -0.1315 -0.4370  0.1165
17297TIP3    H273383   6.306   6.013   4.067 -0.0367  0.8851  1.0427
17298TIP3   OH273384   0.183   2.989   2.633 -0.3192  0.6372  0.1149
17298TIP3    H173385   0.276   2.976   2.653 -0.4298  0.8738  0.8190
17298TIP3    H273386   0.143   2.903   2.648 -0.3923  0.8010  0.8792
17299TIP3   OH273387   1.415   2.736   2.530  0.0340  0.2185  0.4552
17299TIP3    H173388   1.335   2.781   2.504 -1.0397 -1.8351 -0.0065
17299TIP3    H273389   1.419   2.745   2.625  0.1080  1.6474  0.3250
17300TIP3   OH273390   6.446   0.704   6.931 -0.0551  0.2104  0.3802
17300TIP3    H173391   6.521   0.758   6.957  0.1908  0.6397 -1.1521
17300TIP3    H273392   6.383   0.716   7.002  0.1681  2.1971  0.3152
17301TIP3   OH273393   2.547   1.814   5.413  0.2743  0.6766 -0.9903
17301TIP3    H173394   2.562   1.909   5.410 -0.0681  0.7354 -0.8216
17301TIP3    H273395   2.481   1.802   5.480  1.0590  0.2240 -0.2718
17302TIP3   OH273396   3.752   4.394  11.941  0.1300  0.6517 -0.1454
17302TIP3    H173397   3.787   4.308  11.962  0.2429  0.5996 -0.5397
17302TIP3    H273398   3.766   4.403  11.847  2.2785  2.0492  0.2258
17303TIP3   OH273399   4.892   5.762  13.858 -0.2288  0.3509 -0.3135
17303TIP3    H173400   4.939   5.726  13.934  0.0525 -3.1508 -1.9554
17303TIP3    H273401   4.959   5.772  13.791 -0.9503  0.5553 -1.0148
17304TIP3   OH273402   1.438   2.832   4.597  0.2956 -0.7247 -0.5713
17304TIP3    H173403   1.476   2.744   4.603  0.2303 -0.8065 -1.3005
17304TIP3    H273404   1.511   2.888   4.570  0.1590 -0.6939 -0.8854
17305TIP3   OH273405   2.425   4.828   4.598  0.0416 -0.2630  0.0630
17305TIP3    H173406   2.482   4.905   4.597 -0.2424 -0.0423  0.3456
17305TIP3    H273407   2.429   4.793   4.509  1.1690 -0.6741  0.2675
17306TIP3   OH273408   6.347   4.570   0.649 -0.3730 -0.3892  0.0997
17306TIP3    H173409   6.262   4.526   0.644 -1.0849  0.9936 -0.6045
17306TIP3    H273410   6.406   4.515   0.597 -1.4097 -0.1631 -1.3864
17307TIP3   OH273411   4.060   6.792  13.973  0.0415 -0.0724 -0.5757
17307TIP3    H173412   4.085   6.872  14.020  0.0267 -0.5054  0.1774
17307TIP3    H273413   3.964   6.798  13.967  0.0152 -0.1750 -0.2624
17308TIP3   OH273414   2.218   0.599  13.243 -0.3712  0.5823 -0.2887
17308TIP3    H173415   2.263   0.515  13.237 -0.7654  0.4588 -1.7525
17308TIP3    H273416   2.217   0.633  13.154 -1.1763  1.6407  0.0990
17309TIP3   OH273417   3.122   0.158   5.489  0.2569  0.6289 -0.1316
17309TIP3    H173418   3.088   0.077   5.451  1.7159  0.3098 -0.8218
17309TIP3    H273419   3.139   0.136   5.581  0.5250  0.1946 -0.2837
17310TIP3   OH273420   5.722   3.900   0.708  0.7887 -0.5373  0.1494
17310TIP3    H173421   5.632   3.868   0.697  1.1287 -1.7651  0.8124
17310TIP3    H273422   5.725   3.934   0.797  0.8431  0.0061 -0.0550
17311TIP3   OH273423   3.959   3.401   5.186 -0.5630  0.1224  0.0160
17311TIP3    H173424   3.948   3.350   5.267 -1.9623  0.7843  0.2741
17311TIP3    H273425   3.883   3.378   5.133  0.4311 -0.4310 -1.2109
17312TIP3   OH273426   4.456   6.055  15.336 -0.5889 -0.2934  0.1980
17312TIP3    H173427   4.410   6.077  15.255  0.8779  0.6455 -0.4176
17312TIP3    H273428   4.408   5.980  15.371 -1.6861 -0.2664 -1.1637
17313TIP3   OH273429   2.402   0.878  10.912 -0.1876  0.2380  1.0267
17313TIP3    H173430   2.413   0.921  10.828  0.1965 -0.5123  0.6776
17313TIP3    H273431   2.310   0.851  10.914 -0.0800 -0.1631  0.6355
17314TIP3   OH273432   5.542   1.734   1.852 -0.3826 -0.2868 -0.2539
17314TIP3    H173433   5.499   1.761   1.771 -2.6975 -1.1749  0.6023
17314TIP3    H273434   5.472   1.699   1.907  1.5193 -2.3176  1.0790
17315TIP3   OH273435   4.072   4.561   2.148  0.2331 -0.5544 -0.2600
17315TIP3    H173436   4.082   4.629   2.081 -1.0666  0.4196  0.4790
17315TIP3    H273437   4.062   4.610   2.229 -1.1685 -1.6187  0.2336
17316TIP3   OH273438   5.648   2.838   3.427 -0.3892 -0.1307 -0.1110
17316TIP3    H173439   5.655   2.846   3.522 -2.8715 -2.2722  0.3510
17316TIP3    H273440   5.626   2.746   3.411  0.0380  0.1312 -2.7879
17317TIP3   OH273441   5.120   2.485  12.801 -0.0003  0.1125  0.2734
17317TIP3    H173442   5.074   2.449  12.725  3.3252 -1.0380 -1.4069
17317TIP3    H273443   5.137   2.409  12.857 -1.0091  0.7088  1.4569
17318TIP3   OH273444   2.194   5.832  11.360  0.1290 -0.3313 -0.6685
17318TIP3    H173445   2.215   5.871  11.275  0.1433  0.9480 -0.0960
17318TIP3    H273446   2.263   5.767  11.373  1.2303  0.7590 -0.8131
17319TIP3   OH273447   3.758   2.988  13.536  0.1065  0.2272 -0.0233
17319TIP3    H173448   3.763   2.997  13.441 -2.7826  2.1598 -0.1329
17319TIP3    H273449   3.784   3.074  13.569  0.1974 -0.1371  0.8814
17320TIP3   OH273450   4.646   3.046  11.266  0.4000  0.3354 -0.4708
17320TIP3    H173451   4.558   3.038  11.230  0.2305  0.9926 -0.2081
17320TIP3    H273452   4.695   2.974  11.225 -0.4958 -0.6330  0.1336
17321TIP3   OH273453   4.476   3.167   5.105 -0.4325 -0.5309 -0.3755
17321TIP3    H173454   4.508   3.257   5.111 -2.2949  0.5984 -4.4023
17321TIP3    H273455   4.395   3.167   5.157 -0.2787 -0.0037 -0.1271
17322TIP3   OH273456   1.038   2.513   5.121 -0.1242  0.4832 -0.2611
17322TIP3    H173457   1.055   2.560   5.203 -0.5591  1.2271 -0.5939
17322TIP3    H273458   0.993   2.576   5.065 -0.3024 -0.1831 -0.8895
17323TIP3   OH273459   4.014   5.533  11.401 -0.2376 -0.5642  0.4075
17323TIP3    H173460   3.932   5.567  11.436 -0.3951 -0.5030 -0.0194
17323TIP3    H273461   4.065   5.612  11.380  0.4526 -0.5864  1.8623
17324TIP3   OH273462   3.412   4.945  16.616 -0.7578  0.3138 -0.2109
17324TIP3    H173463   3.378   4.856  16.608 -0.4866  0.3686 -2.3862
17324TIP3    H273464   3.484   4.950  16.553 -1.0984  2.2158 -0.5215
17325TIP3   OH273465   2.693   5.763  16.989  0.0991  0.5605  0.0852
17325TIP3    H173466   2.768   5.717  17.028 -0.7316  0.6024  1.8038
17325TIP3    H273467   2.652   5.697  16.933  0.3693 -0.0256  0.5584
17326TIP3   OH273468   3.500   6.737  10.832  0.1225  0.5026  0.1686
17326TIP3    H173469   3.467   6.751  10.743 -0.1881  1.5997  0.4403
17326TIP3    H273470   3.580   6.789  10.836 -1.0028  2.2669  1.1750
17327TIP3   OH273471   3.677   1.346   4.987  0.2487  1.0949 -0.5701
17327TIP3    H173472   3.605   1.291   5.017  1.4303 -0.7729 -0.9586
17327TIP3    H273473   3.670   1.344   4.891 -0.2313  2.4349 -0.5867
17328TIP3   OH273474   6.551   1.186  15.857  0.8338  0.1502  0.1314
17328TIP3    H173475   6.519   1.208  15.944  0.0539  1.0480 -0.3712
17328TIP3    H273476   6.645   1.174  15.868  0.4208 -2.3727  1.5967
17329TIP3   OH273477   4.054   4.258   5.350 -0.4568 -0.9727 -0.5795
17329TIP3    H173478   3.988   4.189   5.344 -1.5783  0.0648 -0.5902
17329TIP3    H273479   4.078   4.261   5.443  1.6094 -3.1285 -0.9232
17330TIP3   OH273480   5.959   5.736  11.465 -0.3300  0.3437 -0.4212
17330TIP3    H173481   5.926   5.699  11.383  0.0120  0.1639 -0.4812
17330TIP3    H273482   5.910   5.692  11.534  1.8115 -2.1589 -0.3330
17331TIP3   OH273483   3.220   4.410  10.806  0.2093  0.2453 -0.2341
17331TIP3    H173484   3.278   4.414  10.730  1.9205 -0.6433  0.9675
17331TIP3    H273485   3.151   4.348  10.781  0.5847  0.1823 -1.1448
17332TIP3   OH273486   6.044   4.366   5.063 -0.2493  0.6032  0.1754
17332TIP3    H173487   6.130   4.398   5.038 -0.1840 -0.1100 -0.5371
17332TIP3    H273488   5.983   4.428   5.025 -0.0388  1.9688  1.9355
17333TIP3   OH273489   6.017   0.797  10.676  0.2331  0.1222 -0.4404
17333TIP3    H173490   6.111   0.789  10.692  0.3852  1.8224 -0.2889
17333TIP3    H273491   6.006   0.887  10.646 -1.3223 -0.1340 -0.6920
17334TIP3   OH273492   2.909   5.611   2.230  0.5152  0.1750  0.1905
17334TIP3    H173493   3.000   5.593   2.256  0.4186  0.3882  0.6875
17334TIP3    H273494   2.902   5.574   2.142  1.0334 -0.0042  0.2179
17335TIP3   OH273495   4.430   3.649  15.374 -1.1171  0.0572  0.8974
17335TIP3    H173496   4.432   3.598  15.294 -0.3789  0.6290  0.5380
17335TIP3    H273497   4.364   3.717  15.358  0.0123  1.0193  0.2282
17336TIP3   OH273498   5.740   5.976  14.104 -0.2780 -0.4389 -0.0944
17336TIP3    H173499   5.722   5.883  14.090 -0.2848 -0.2485 -1.4468
17336TIP3    H273500   5.836   5.983  14.099 -0.1042 -0.6328  1.8964
17337TIP3   OH273501   5.302   5.439   0.233 -0.3469 -0.2876  0.1676
17337TIP3    H173502   5.354   5.471   0.307  0.6083  0.5773 -0.8400
17337TIP3    H273503   5.280   5.349   0.257  0.3233 -0.1735  1.3065
17338TIP3   OH273504   0.044   3.824   0.274  0.2127  0.5923 -0.4366
17338TIP3    H173505   0.131   3.791   0.253 -0.1258 -2.2233  2.0547
17338TIP3    H273506  -0.016   3.764   0.230 -0.4302 -0.2116  1.4543
17339TIP3   OH273507   5.486   6.302  10.406  0.6941 -0.0288  0.6923
17339TIP3    H173508   5.552   6.361  10.442  1.4869 -1.0787  0.9823
17339TIP3    H273509   5.426   6.360  10.358  0.9672  1.1065  1.6727
17340TIP3   OH273510   5.791   3.425   6.596  0.3047  0.3287  0.1387
17340TIP3    H173511   5.806   3.330   6.593 -0.8767  0.0295  2.0670
17340TIP3    H273512   5.850   3.457   6.664 -0.3475  0.7494  0.5101
17341TIP3   OH273513   4.318   5.581  12.235  0.0317 -0.0297 -0.3162
17341TIP3    H173514   4.224   5.562  12.240  0.2395 -0.6852  1.9814
17341TIP3    H273515   4.335   5.638  12.309  1.4480  0.1915 -0.7824
17342TIP3   OH273516   3.411   2.417   5.015  0.1161 -0.0884 -0.4608
17342TIP3    H173517   3.344   2.362   4.976  0.9640 -1.6676  0.2364
17342TIP3    H273518   3.382   2.431   5.106 -1.0276  2.2245 -1.0941
17343TIP3   OH273519   2.727   4.048   4.936  0.4101 -0.8577 -0.3422
17343TIP3    H173520   2.725   4.115   5.004  1.8985 -1.2082  0.0773
17343TIP3    H273521   2.657   4.072   4.876  2.1969  2.3033 -1.3793
17344TIP3   OH273522   2.190   4.718   1.346  0.4556  0.1130  0.1592
17344TIP3    H173523   2.097   4.711   1.328  0.1085  0.0088  1.8273
17344TIP3    H273524   2.208   4.648   1.409  1.6366  0.1971 -0.0585
17345TIP3   OH273525   2.151   6.098   4.982 -0.0436 -0.1087 -0.0498
17345TIP3    H173526   2.165   6.096   5.076 -0.3616  0.6164  0.0185
17345TIP3    H273527   2.193   6.179   4.953 -0.6581  0.0889 -0.4140
17346TIP3   OH273528   0.390   5.552  12.469 -0.4640 -0.8564  0.1446
17346TIP3    H173529   0.390   5.602  12.551  1.3027 -2.5570  1.2868
17346TIP3    H273530   0.340   5.473  12.489  0.4142 -1.5261 -0.2134
17347TIP3   OH273531   2.055   4.321  11.749  0.3259 -0.2670 -0.3577
17347TIP3    H173532   1.966   4.293  11.767 -0.4726  0.9701 -2.1085
17347TIP3    H273533   2.058   4.333  11.654  2.3759 -0.2981 -0.3546
17348TIP3   OH273534   5.450   3.389  14.379  0.7263  0.2061 -0.0113
17348TIP3    H173535   5.391   3.352  14.444  0.3756  0.8505  0.0445
17348TIP3    H273536   5.453   3.324  14.309 -0.1788  0.2305 -0.0837
17349TIP3   OH273537   3.556   4.930   4.037  0.3755 -0.2659  0.2479
17349TIP3    H173538   3.500   4.982   4.096  0.8844  1.3263 -0.6080
17349TIP3    H273539   3.494   4.876   3.988 -0.0597 -1.6669  2.2175
17350TIP3   OH273540   0.636   0.585   5.025 -0.2452 -0.4694 -0.1265
17350TIP3    H173541   0.677   0.534   4.955  1.8268  0.3413  0.4388
17350TIP3    H273542   0.709   0.617   5.078 -1.3934  3.1772 -0.4830
17351TIP3   OH273543   6.046   3.336   1.802 -0.5493  0.8264 -0.0071
17351TIP3    H173544   6.026   3.286   1.881  0.0909  2.2027  1.0818
17351TIP3    H273545   6.137   3.317   1.784 -1.0648 -0.5749 -1.2734
17352TIP3   OH273546   1.771   1.698  10.932  1.0347  0.2708 -0.9592
17352TIP3    H173547   1.799   1.788  10.920 -3.2960  2.3818  1.9248
17352TIP3    H273548   1.708   1.683  10.861  0.7272  0.0982 -0.6579
17353TIP3   OH273549   0.604   4.638   3.377  0.5233  0.2926  0.1032
17353TIP3    H173550   0.646   4.574   3.318  2.3227  0.1929  1.4073
17353TIP3    H273551   0.573   4.585   3.450 -0.8836  0.5383 -0.2896
17354TIP3   OH273552   0.770   4.929  12.328  0.2993  0.2365 -0.2998
17354TIP3    H173553   0.843   4.900  12.272 -1.3832  0.3484 -2.6978
17354TIP3    H273554   0.717   4.984  12.271 -1.9813 -0.2812  1.2072
17355TIP3   OH273555   2.093   6.750   3.939 -0.1161  0.3176 -0.2644
17355TIP3    H173556   2.022   6.686   3.948 -0.3396  0.5130 -0.6051
17355TIP3    H273557   2.166   6.712   3.988 -0.4373  0.0858  0.0388
17356TIP3   OH273558   5.804   5.729  11.238 -0.0219  0.1441  0.2198
17356TIP3    H173559   5.763   5.719  11.152  1.7994  1.8803 -0.9443
17356TIP3    H273560   5.773   5.815  11.269  1.8023  1.0264 -0.2399
17357TIP3   OH273561   3.503   0.282  15.400 -0.5632  0.4115  0.3580
17357TIP3    H173562   3.588   0.265  15.440  1.6199  3.3886 -2.4369
17357TIP3    H273563   3.459   0.339  15.463  0.3901  0.4354  1.0324
17358TIP3   OH273564   6.325   3.193  13.312 -0.2401  0.0573  0.2060
17358TIP3    H173565   6.371   3.272  13.285  0.2028  0.2584  1.4577
17358TIP3    H273566   6.369   3.167  13.394 -1.8431 -0.2091  1.0114
17359TIP3   OH273567   4.708   2.389   3.433 -0.1933  0.3687  0.0297
17359TIP3    H173568   4.695   2.466   3.489  0.9116 -0.4106  1.4299
17359TIP3    H273569   4.681   2.315   3.487 -2.3614 -0.2187 -1.7056
17360TIP3   OH273570   2.917   6.072   3.470  0.0267 -0.1317  0.2373
17360TIP3    H173571   2.998   6.077   3.420 -0.3355 -0.6078 -0.4132
17360TIP3    H273572   2.848   6.081   3.404 -0.5414 -3.8616  0.1070
17361TIP3   OH273573   4.208   0.048   0.202  0.1706  0.1079  0.3652
17361TIP3    H173574   4.128   0.039   0.254 -0.1359 -0.9195 -0.2436
17361TIP3    H273575   4.264   0.106   0.254 -0.8665  0.6460  0.9186
17362TIP3   OH273576   0.866   3.913  11.198  0.4967 -0.3689  0.4940
17362TIP3    H173577   0.854   3.877  11.110  1.4343  0.6747 -0.0998
17362TIP3    H273578   0.781   3.902  11.241  0.2254 -1.5327 -0.2918
17363TIP3   OH273579   0.154   6.308   1.048 -0.3988 -0.1280  0.3237
17363TIP3    H173580   0.208   6.347   1.117  1.6204  1.1286 -1.8111
17363TIP3    H273581   0.099   6.380   1.018 -0.8580 -0.5187  0.2129
17364TIP3   OH273582   0.230   0.177   5.718 -0.0246 -0.6968  0.0559
17364TIP3    H173583   0.316   0.149   5.749  0.5330 -0.6666 -1.3862
17364TIP3    H273584   0.248   0.226   5.638 -1.2593  0.7795  0.6357
17365TIP3   OH273585   4.479   6.258   2.357 -0.2812  0.8941 -0.5306
17365TIP3    H173586   4.463   6.298   2.442  0.2480 -0.4681  0.2270
17365TIP3    H273587   4.444   6.322   2.294  0.4493  2.5033  0.6277
17366TIP3   OH273588   2.036   1.359  14.674  0.6115  0.5795  0.3610
17366TIP3    H173589   2.061   1.276  14.713 -1.1332  0.1423  0.6315
17366TIP3    H273590   1.962   1.338  14.617  0.4944  1.8581  0.0064
17367TIP3   OH273591   1.032   2.628   3.116  0.3256  1.1648  0.3622
17367TIP3    H173592   0.953   2.627   3.170  0.9881  1.3603  1.3755
17367TIP3    H273593   1.028   2.547   3.065 -0.1447  0.7868  0.9881
17368TIP3   OH273594   5.925   6.489  14.313  0.0629 -0.2697 -0.3202
17368TIP3    H173595   5.863   6.543  14.263  0.5101 -0.2154 -0.8184
17368TIP3    H273596   5.935   6.536  14.396 -0.2674 -0.0766 -0.3876
17369TIP3   OH273597   2.603   3.360   1.803 -0.3387 -0.1727  0.1293
17369TIP3    H173598   2.657   3.288   1.835 -0.5303 -0.3910 -0.0382
17369TIP3    H273599   2.625   3.368   1.710 -0.8155 -0.4642 -0.0139
17370TIP3   OH273600   0.569   2.460   5.656 -0.0461  0.1434 -0.0400
17370TIP3    H173601   0.583   2.550   5.687  1.4517  0.2069 -0.8083
17370TIP3    H273602   0.645   2.412   5.688 -0.8363 -0.8555  0.3526
17371TIP3   OH273603   6.668   6.594  15.565 -0.1186  0.1314  0.0844
17371TIP3    H173604   6.749   6.606  15.615  0.2459  0.4335 -0.5661
17371TIP3    H273605   6.670   6.502  15.539 -0.6633 -0.2193  1.2112
17372TIP3   OH273606   2.684   4.989   5.258 -0.0316  0.0581  0.1809
17372TIP3    H173607   2.617   5.058   5.251 -0.2635 -0.0251  1.3974
17372TIP3    H273608   2.760   5.034   5.294  1.1939  0.5188 -2.6482
17373TIP3   OH273609   1.007   2.251   5.848 -0.3532 -0.4114 -0.4215
17373TIP3    H173610   0.929   2.272   5.899 -0.0198 -0.6862  0.2231
17373TIP3    H273611   0.996   2.297   5.765 -1.4501 -0.8997 -0.5537
17374TIP3   OH273612   4.080   0.987  11.064 -0.0131 -0.1921  0.1054
17374TIP3    H173613   4.028   1.043  11.007  0.2578 -0.0384  0.0088
17374TIP3    H273614   4.126   0.927  11.005  0.8490  0.4558  0.1007
17375TIP3   OH273615   1.208   1.889   0.103 -0.2890  0.6131 -0.2297
17375TIP3    H173616   1.160   1.915   0.024 -0.9796 -2.1352 -0.8004
17375TIP3    H273617   1.224   1.795   0.092  1.3253  0.5440  2.0275
17376TIP3   OH273618   3.932   1.914  16.677  0.2623  0.0368  0.2457
17376TIP3    H173619   3.996   1.922  16.606 -0.6112  0.6542 -0.4962
17376TIP3    H273620   3.876   1.841  16.650  0.0255  0.1689  0.3769
17377TIP3   OH273621   5.557   5.017   5.133 -0.3436 -0.3572  1.0465
17377TIP3    H173622   5.564   4.949   5.066  1.3157  0.8606 -0.0836
17377TIP3    H273623   5.466   5.013   5.162 -0.9598 -1.2934 -0.8679
17378TIP3   OH273624   6.352   3.939  12.641  0.1521  0.5027 -0.2475
17378TIP3    H173625   6.425   3.967  12.587  1.0719  0.0481  0.7197
17378TIP3    H273626   6.274   3.975  12.598  1.1144  3.0790  0.0236
17379TIP3   OH273627   0.417   3.102  13.916 -0.5553  0.4861  0.0563
17379TIP3    H173628   0.449   3.029  13.968  0.4350 -0.4265 -1.7394
17379TIP3    H273629   0.337   3.070  13.876  0.2421  0.1050 -1.2773
17380TIP3   OH273630   3.410   2.062  11.717  0.0840 -0.3794 -0.3553
17380TIP3    H173631   3.327   2.080  11.760 -0.2976  1.6154 -1.8131
17380TIP3    H273632   3.476   2.086  11.782 -0.4812 -0.1154  0.1290
17381TIP3   OH273633   0.199   0.292  14.991 -0.1796 -0.4121  0.1775
17381TIP3    H173634   0.199   0.255  15.080 -0.2525 -1.3162 -0.1921
17381TIP3    H273635   0.257   0.368  14.997  1.2950 -1.5154  0.5850
17382TIP3   OH273636   5.844   6.639  12.955  0.2214  0.1581 -0.0589
17382TIP3    H173637   5.770   6.622  13.013  0.3517 -1.3165 -0.2919
17382TIP3    H273638   5.905   6.568  12.972  0.6197  0.1420 -1.4317
17383TIP3   OH273639   3.598   0.521  16.997  0.0082  0.5843 -0.1202
17383TIP3    H173640   3.679   0.494  16.954 -1.0241 -0.5753 -1.4521
17383TIP3    H273641   3.550   0.569  16.929 -1.6382 -1.2343 -0.3226
17384TIP3   OH273642   6.224   0.854   5.947  0.6369 -0.1043 -0.5140
17384TIP3    H173643   6.241   0.764   5.976  0.0853  0.0094  0.2059
17384TIP3    H273644   6.208   0.902   6.028 -0.1633  0.4089 -0.9684
17385TIP3   OH273645   3.552   1.529   4.753  0.0138  0.5716 -0.3288
17385TIP3    H173646   3.609   1.600   4.783  0.4529 -0.6732  2.0232
17385TIP3    H273647   3.595   1.495   4.675  2.0461  0.2805  0.8442
17386TIP3   OH273648   6.463   0.889  14.399  0.2006  0.4998  0.0001
17386TIP3    H173649   6.442   0.977  14.367  0.5748  0.9539  0.9700
17386TIP3    H273650   6.395   0.833  14.361 -0.3870  1.2965 -0.1452
17387TIP3   OH273651   6.738   5.903   4.201 -0.1909  0.3728 -0.2994
17387TIP3    H173652   6.800   5.927   4.132 -1.7439 -1.8230 -2.6571
17387TIP3    H273653   6.780   5.830   4.247 -0.2739  0.0203 -0.7704
17388TIP3   OH273654   0.712   6.350  14.257 -0.0022  0.1310  0.2269
17388TIP3    H173655   0.714   6.437  14.216  1.6004  0.5297  1.0665
17388TIP3    H273656   0.632   6.350  14.308 -0.2186  0.9803 -0.0884
17389TIP3   OH273657   1.132   0.345  14.638 -0.4179 -0.0869 -0.2292
17389TIP3    H173658   1.165   0.264  14.601  0.6909  0.7536 -1.1297
17389TIP3    H273659   1.045   0.323  14.671  0.4630 -2.0150  0.9460
17390TIP3   OH273660   1.868   6.526   5.984 -0.0599  0.9017  0.8171
17390TIP3    H173661   1.793   6.585   5.977 -0.7653 -0.0232  0.3746
17390TIP3    H273662   1.893   6.531   6.076 -0.7950  1.0719  1.0204
17391TIP3   OH273663   4.827   0.002   1.377  0.2085 -0.1401 -0.2567
17391TIP3    H173664   4.810   0.022   1.285 -2.3461 -1.4704 -0.1406
17391TIP3    H273665   4.830  -0.094   1.381 -1.1116 -0.1546  1.2372
17392TIP3   OH273666   5.967   1.902  14.885  1.0345 -0.5988 -0.1617
17392TIP3    H173667   5.882   1.936  14.858 -0.0443 -0.8125  2.6636
17392TIP3    H273668   6.009   1.876  14.803 -1.8623 -1.0897 -1.6323
17393TIP3   OH273669   6.277   0.405  13.649  0.6820 -0.3791 -0.3550
17393TIP3    H173670   6.342   0.387  13.717  0.8998 -1.5652 -0.8491
17393TIP3    H273671   6.318   0.471  13.593  0.2809  1.0375  0.9286
17394TIP3   OH273672   3.723   2.416   3.830  0.0201 -0.2170  0.6478
17394TIP3    H173673   3.630   2.440   3.834  0.3492  1.2173  0.2098
17394TIP3    H273674   3.726   2.327   3.866 -1.5648 -0.4294  0.3437
17395TIP3   OH273675   3.083   1.301   6.307 -0.1709 -0.3287  0.0920
17395TIP3    H173676   3.118   1.302   6.218  2.0554  1.5385  0.8926
17395TIP3    H273677   3.058   1.391   6.324 -3.2479 -1.1317  0.4824
17396TIP3   OH273678   0.840   0.172   1.546  0.3891  0.4772 -0.6933
17396TIP3    H173679   0.845   0.121   1.465  0.5430 -1.8746  0.7117
17396TIP3    H273680   0.746   0.177   1.566  0.2517  2.0326 -1.5262
17397TIP3   OH273681   1.903   5.877   3.401  0.7539  0.3805 -0.2358
17397TIP3    H173682   1.857   5.942   3.455  1.7134  1.0349 -0.1861
17397TIP3    H273683   1.839   5.806   3.391  0.7223 -0.0425  2.2511
17398TIP3   OH273684   0.013   3.219  15.442 -0.3777 -0.1935  0.5935
17398TIP3    H173685  -0.053   3.211  15.374  0.6239 -1.1799 -0.2937
17398TIP3    H273686   0.095   3.236  15.395  0.1403  0.2999  1.6296
17399TIP3   OH273687   4.934   2.914   5.578  0.1131 -0.4419  0.0031
17399TIP3    H173688   4.890   2.999   5.579 -0.9693 -0.9507 -1.2818
17399TIP3    H273689   5.026   2.935   5.558 -0.2836  0.3901 -1.1067
17400TIP3   OH273690   3.273   4.074  16.792  0.3490  0.4046  0.5167
17400TIP3    H173691   3.337   4.099  16.859 -0.2646  0.8795  0.9451
17400TIP3    H273692   3.197   4.045  16.841  0.0133  0.4319  0.0243
17401TIP3   OH273693   3.865   2.682  11.366 -0.6101 -0.2827 -0.1458
17401TIP3    H173694   3.951   2.675  11.406 -1.0172 -0.1360  0.7895
17401TIP3    H273695   3.815   2.737  11.426 -1.9920 -2.1084  0.4757
17402TIP3   OH273696   4.353   4.404  12.411 -0.3877  0.3056 -0.0771
17402TIP3    H173697   4.260   4.386  12.397 -0.3264 -0.9500  0.9861
17402TIP3    H273698   4.396   4.371  12.333 -1.0243  3.5962 -2.0504
17403TIP3   OH273699   1.400   0.835  16.035 -0.1788 -0.5691  0.3485
17403TIP3    H173700   1.338   0.762  16.037  0.3986 -1.0578  1.0474
17403TIP3    H273701   1.348   0.909  16.004 -0.5387 -1.4815 -1.3436
17404TIP3   OH273702   1.071   2.604   3.425  0.1311 -0.3009 -0.2742
17404TIP3    H173703   1.142   2.575   3.368 -0.1732 -1.7143  0.0072
17404TIP3    H273704   0.995   2.612   3.367  0.4756  1.1606 -0.5658
17405TIP3   OH273705   5.026   6.215   4.551  0.0591  0.4399  0.1569
17405TIP3    H173706   5.029   6.293   4.496 -3.3283 -0.0821 -0.9882
17405TIP3    H273707   5.101   6.162   4.523  0.2200  1.6071 -1.7358
17406TIP3   OH273708   3.073   5.462  15.035  0.4636 -0.0828 -0.4552
17406TIP3    H173709   3.100   5.545  14.997  1.2074 -1.1503 -2.4305
17406TIP3    H273710   3.146   5.436  15.091  1.1060 -0.2990 -1.3683
17407TIP3   OH273711   0.655   2.424   0.002  0.4774  0.0031 -0.3596
17407TIP3    H173712   0.612   2.509  -0.007 -0.1164 -0.2504 -0.0178
17407TIP3    H273713   0.675   2.397  -0.087 -1.5660 -0.6109 -0.6970
17408TIP3   OH273714   6.013   4.884  16.301  0.4972  0.0665  0.4911
17408TIP3    H173715   5.930   4.929  16.317  0.3169 -0.0976  0.0353
17408TIP3    H273716   5.988   4.793  16.285  0.7972 -0.0548  0.7074
17409TIP3   OH273717   5.279   6.271   5.397  0.1045 -0.1899 -0.1715
17409TIP3    H173718   5.275   6.310   5.484 -3.2580  1.1089 -0.7193
17409TIP3    H273719   5.331   6.333   5.345  1.2670 -0.4570  0.6458
17410TIP3   OH273720   1.868   3.762  16.085  0.2251 -0.0813 -0.0704
17410TIP3    H173721   1.821   3.730  16.162  1.5730 -0.4763  0.6104
17410TIP3    H273722   1.931   3.693  16.064  1.2800  0.8965 -0.2552
17411TIP3   OH273723   6.708   6.723  16.019 -0.2682  0.4628  0.4538
17411TIP3    H173724   6.630   6.730  16.073 -0.3674  2.0177  0.1709
17411TIP3    H273725   6.751   6.808  16.028  0.4708  0.2473 -0.7483
17412TIP3   OH273726   2.907   3.554   6.124 -0.5369  0.0642 -0.3627
17412TIP3    H173727   2.944   3.470   6.151 -1.2002 -0.0673  0.1637
17412TIP3    H273728   2.936   3.616   6.192 -0.3070  0.1998 -0.5833
17413TIP3   OH273729   0.999   5.098   2.660  0.1996 -0.1074  0.0251
17413TIP3    H173730   0.992   5.193   2.670  0.5242 -0.0230 -0.5699
17413TIP3    H273731   0.908   5.069   2.650  0.2057  0.3625 -1.7559
17414TIP3   OH273732   1.099   2.270   1.928 -0.2725  0.0473  0.3104
17414TIP3    H173733   1.109   2.227   2.014  0.6771  2.1832  1.3311
17414TIP3    H273734   1.013   2.312   1.933 -1.4065 -1.9574 -0.8642
17415TIP3   OH273735   2.360   4.903  15.412  0.0134  0.0386  0.7184
17415TIP3    H173736   2.276   4.941  15.434 -1.1074 -1.6034 -0.4913
17415TIP3    H273737   2.363   4.821  15.461  0.5038 -0.3467  0.0697
17416TIP3   OH273738   0.004   1.957   4.335 -0.1628 -0.0866 -0.5901
17416TIP3    H173739   0.052   1.925   4.412 -0.5666  1.6287  0.4274
17416TIP3    H273740  -0.078   1.907   4.337  0.0297 -0.3980 -0.1848
17417TIP3   OH273741   2.228   6.527  16.775  0.1052 -0.3343  0.4461
17417TIP3    H173742   2.158   6.582  16.741 -1.6721 -3.2235 -0.9848
17417TIP3    H273743   2.193   6.493  16.858  1.1620  0.5478  1.2939
17418TIP3   OH273744   5.838   3.975   1.249  0.1830 -0.2838  0.1029
17418TIP3    H173745   5.841   3.893   1.298  0.2899 -0.9244 -0.9502
17418TIP3    H273746   5.827   4.043   1.316 -0.2548 -1.1801  0.9571
17419TIP3   OH273747   0.052   0.921   0.931  0.5665  0.3814 -0.0821
17419TIP3    H173748   0.073   0.937   1.024  0.9037 -1.2105  0.1435
17419TIP3    H273749   0.005   1.000   0.904  1.2672  1.2848  1.1845
17420TIP3   OH273750   3.171   5.103   6.344 -0.5515 -0.0161  0.1864
17420TIP3    H173751   3.148   5.010   6.353  1.2577 -0.4666  0.3934
17420TIP3    H273752   3.198   5.112   6.253  0.4619  0.0037  0.4759
17421TIP3   OH273753   4.308   0.348   2.297  0.3355  0.0358  0.4432
17421TIP3    H173754   4.221   0.309   2.291  0.1149  0.5034  0.5487
17421TIP3    H273755   4.350   0.326   2.214 -0.1969  0.5444  0.0261
17422TIP3   OH273756   2.692   5.833  12.538 -0.1814 -0.2748 -0.1369
17422TIP3    H173757   2.696   5.747  12.495  0.4230  0.1092 -0.8785
17422TIP3    H273758   2.750   5.888  12.485 -1.5172  0.9191 -0.4155
17423TIP3   OH273759   3.303   6.518   0.706 -0.0106 -0.3143 -0.0061
17423TIP3    H173760   3.315   6.429   0.739  0.7498  0.2788  1.3953
17423TIP3    H273761   3.278   6.569   0.782 -0.2413  0.7254 -0.7510
17424TIP3   OH273762   5.285   0.255  13.213 -0.4076  0.3775  0.4302
17424TIP3    H173763   5.225   0.210  13.273 -2.2647  1.2855 -0.6201
17424TIP3    H273764   5.268   0.215  13.128 -0.5656  1.5957 -0.1372
17425TIP3   OH273765   6.078   0.307   2.165  0.2411  0.1098  0.1115
17425TIP3    H173766   6.068   0.386   2.218  0.8884  0.7650 -0.7123
17425TIP3    H273767   6.069   0.337   2.075  2.7985 -0.3383 -0.3638
17426TIP3   OH273768   3.446   6.800  11.428 -0.1197 -0.1017  0.2299
17426TIP3    H173769   3.459   6.710  11.459 -1.2799  0.4470  2.4825
17426TIP3    H273770   3.444   6.792  11.333  1.2092 -2.2492  0.3113
17427TIP3   OH273771   5.731   3.903   3.070  0.5006 -0.8468  0.2679
17427TIP3    H173772   5.653   3.914   3.015 -0.4934 -0.6089  1.6556
17427TIP3    H273773   5.803   3.937   3.017 -0.5655  0.3237 -0.4782
17428TIP3   OH273774   1.048   6.241  15.509 -0.6414  0.5833 -0.1942
17428TIP3    H173775   0.977   6.224  15.570  0.8249 -1.3615  1.1070
17428TIP3    H273776   1.061   6.158  15.463  2.2872  0.0322  1.3655
17429TIP3   OH273777   5.326   6.577   2.134 -0.0588 -0.1901  0.2716
17429TIP3    H173778   5.359   6.641   2.197  0.1422 -0.0476  0.0176
17429TIP3    H273779   5.343   6.492   2.175  0.6191 -0.1198  0.1405
17430TIP3   OH273780   4.424   2.278  13.813  0.5668  0.0572  0.0921
17430TIP3    H173781   4.491   2.314  13.754  0.5036  0.1469  0.0771
17430TIP3    H273782   4.445   2.314  13.899 -0.1668  1.0284 -0.1238
17431TIP3   OH273783   5.183   3.461   5.829 -0.2336  0.4476 -0.1172
17431TIP3    H173784   5.115   3.394   5.828 -0.3519  0.4590  2.0622
17431TIP3    H273785   5.263   3.413   5.851 -0.2412  0.9403  1.0332
17432TIP3   OH273786   3.524   4.722   5.679  0.4243 -0.0780 -0.0429
17432TIP3    H173787   3.453   4.764   5.729  1.5297 -0.9291  2.4096
17432TIP3    H273788   3.479   4.660   5.621 -0.9042  0.3723  0.4585
17433TIP3   OH273789   2.883   3.558   2.027 -0.0025 -0.0774 -0.0339
17433TIP3    H173790   2.902   3.516   2.111 -2.1944 -2.2419 -0.5080
17433TIP3    H273791   2.958   3.537   1.972  1.4128  1.2802  1.2650
17434TIP3   OH273792   4.210   5.898   6.018  0.2314  0.3409  0.4861
17434TIP3    H173793   4.182   5.989   6.005  1.0428  0.5761  0.3261
17434TIP3    H273794   4.176   5.875   6.105 -0.0306  0.7772  0.5033
17435TIP3   OH273795   6.220   6.808   0.374  0.2880 -0.3485 -0.3670
17435TIP3    H173796   6.283   6.827   0.304  1.0535 -0.3693  0.3053
17435TIP3    H273797   6.142   6.777   0.328  0.0732  1.4657 -1.3179
17436TIP3   OH273798   0.783   3.830  11.713 -0.0424 -0.0019  0.3063
17436TIP3    H173799   0.829   3.896  11.660 -0.6386 -0.5550 -0.9464
17436TIP3    H273800   0.821   3.838  11.800  0.4485  1.4588 -0.0157
17437TIP3   OH273801   3.142   4.094   0.132 -0.3359  0.2919  0.5112
17437TIP3    H173802   3.072   4.112   0.069  2.6901 -0.6009 -3.5627
17437TIP3    H273803   3.198   4.171   0.129 -0.7730  0.8446  3.4094
17438TIP3   OH273804   3.023   0.571  10.763 -0.5691  0.8073 -0.2001
17438TIP3    H173805   3.053   0.486  10.732 -0.5611  0.5408  0.5187
17438TIP3    H273806   3.087   0.597  10.829 -0.1912  1.6943 -0.9021
17439TIP3   OH273807   2.543   6.460   4.534 -0.3659 -0.6610 -0.4736
17439TIP3    H173808   2.606   6.527   4.507 -1.9447  2.5105  2.8740
17439TIP3    H273809   2.472   6.468   4.470  0.5322 -0.9892 -1.5527
17440TIP3   OH273810   3.117   6.088   4.373 -0.3123 -0.0049 -0.3224
17440TIP3    H173811   3.092   6.104   4.282 -0.4962  0.8498 -0.1274
17440TIP3    H273812   3.213   6.093   4.372 -0.2733 -0.5979 -0.5669
17441TIP3   OH273813   0.759   6.809   0.263 -0.4929 -0.1660  0.3980
17441TIP3    H173814   0.677   6.781   0.305  0.7654 -3.5043  0.9189
17441TIP3    H273815   0.763   6.758   0.183  0.9794  0.1156  0.2728
17442TIP3   OH273816   1.860   3.892   3.400  0.0024  0.0374 -0.4633
17442TIP3    H173817   1.854   3.800   3.425 -0.7217  0.6409  1.7482
17442TIP3    H273818   1.848   3.891   3.305 -1.9954 -1.9757 -0.2799
17443TIP3   OH273819   1.911   5.782  14.532 -0.0806  0.1118  0.9340
17443TIP3    H173820   1.935   5.815  14.445 -1.9703 -0.0234  0.3111
17443TIP3    H273821   1.982   5.723  14.555 -0.6285 -1.7494 -1.6438
17444TIP3   OH273822   2.582   2.088   0.031  0.5047 -0.2316  0.0203
17444TIP3    H173823   2.594   2.073   0.125 -1.1623 -0.9546  0.1603
17444TIP3    H273824   2.508   2.032   0.007  0.1277  0.8315 -1.4701
17445TIP3   OH273825   4.384   1.931  11.191  0.2799  0.1419  0.0409
17445TIP3    H173826   4.474   1.958  11.179  0.1712  0.4054 -0.1829
17445TIP3    H273827   4.339   2.009  11.223  0.5413 -0.5057  2.1609
17446TIP3   OH273828   1.842   3.944  17.260 -0.2466 -0.4327 -0.3218
17446TIP3    H173829   1.917   3.920  17.205 -0.4146 -1.6435 -0.0657
17446TIP3    H273830   1.818   3.862  17.304 -0.4251  0.3903  1.1864
17447TIP3   OH273831   3.793   0.724  16.872 -0.0393 -0.5101 -0.5108
17447TIP3    H173832   3.714   0.714  16.924  0.3079  2.2424  0.7704
17447TIP3    H273833   3.829   0.636  16.864 -2.5745 -1.6554 -0.1465
17448TIP3   OH273834   3.142   2.782   0.248 -0.0341 -0.0827 -0.3221
17448TIP3    H173835   3.214   2.796   0.309  0.7434 -1.0674 -0.9697
17448TIP3    H273836   3.095   2.706   0.282 -1.0959  0.8446  0.3646
17449TIP3   OH273837   3.645   4.601  14.056 -0.1650 -0.5749 -0.0964
17449TIP3    H173838   3.624   4.628  13.967 -1.6165 -0.5362  0.2247
17449TIP3    H273839   3.654   4.682  14.105 -1.4072 -0.5893  0.2006
17450TIP3   OH273840   4.518   2.329   3.733  0.4482 -0.0584 -0.4015
17450TIP3    H173841   4.532   2.286   3.648  1.0453 -1.7703  0.5109
17450TIP3    H273842   4.469   2.264   3.784 -0.7395  1.3236  0.2629
17451TIP3   OH273843   0.858   4.761   4.041 -0.0853 -0.3796 -0.2413
17451TIP3    H173844   0.880   4.798   3.956  1.6818 -2.0078 -0.5457
17451TIP3    H273845   0.941   4.733   4.078 -0.7644  0.5422  2.2030
17452TIP3   OH273846   1.403   6.512   4.420  0.0639 -0.0823  0.2563
17452TIP3    H173847   1.492   6.526   4.388 -0.0249  0.7853  0.3577
17452TIP3    H273848   1.406   6.425   4.461  1.4172  0.7559  2.1048
17453TIP3   OH273849   2.750   2.164  10.841 -0.5240  0.2137  0.1605
17453TIP3    H173850   2.805   2.191  10.767  2.4338 -0.6951  1.8694
17453TIP3    H273851   2.735   2.245  10.890  0.9499  0.1978  0.6713
17454TIP3   OH273852   5.118   6.589   1.083  0.1900  0.5261 -0.5667
17454TIP3    H173853   5.163   6.633   1.155  0.0894 -0.0768 -0.1315
17454TIP3    H273854   5.171   6.610   1.006  1.9398 -1.1426  0.0899
17455TIP3   OH273855   0.217   4.625   5.640  0.0314 -0.1572  0.2727
17455TIP3    H173856   0.209   4.674   5.722  0.9175 -1.2681  1.0605
17455TIP3    H273857   0.128   4.623   5.604 -0.0580  1.8329  0.2977
17456TIP3   OH273858   4.812   6.416  11.510 -0.3870  0.2145  0.0752
17456TIP3    H173859   4.895   6.368  11.514  0.7813  1.9793 -1.4773
17456TIP3    H273860   4.799   6.449  11.599 -0.0331 -1.0022  0.6009
17457TIP3   OH273861   1.378   5.398  12.214  0.0197  0.4011 -0.0676
17457TIP3    H173862   1.300   5.343  12.227  0.5699 -0.2173  0.7187
17457TIP3    H273863   1.366   5.435  12.127 -0.9532 -0.0191 -0.1327
17458TIP3   OH273864   1.556   3.174   2.097 -0.3372  0.0774  0.4141
17458TIP3    H173865   1.549   3.096   2.152  0.2546  1.2438  2.2060
17458TIP3    H273866   1.618   3.231   2.143 -1.9704  2.3107 -0.0149
17459TIP3   OH273867   0.459   2.909  14.091 -0.2374 -0.3853  0.0381
17459TIP3    H173868   0.382   2.856  14.111  0.5723 -1.0089  1.8236
17459TIP3    H273869   0.529   2.869  14.143  0.6726  1.7670  0.5913
17460TIP3   OH273870   6.257   5.366  14.571 -0.3460 -0.1378 -0.9496
17460TIP3    H173871   6.284   5.288  14.522  1.2309 -0.4202  0.2882
17460TIP3    H273872   6.318   5.434  14.543  1.5933 -0.6754  1.5900
17461TIP3   OH273873   0.558   6.625  13.834  0.1817  0.6580  0.1001
17461TIP3    H173874   0.634   6.619  13.776  0.1267  1.2198 -0.0326
17461TIP3    H273875   0.503   6.552  13.809 -0.6028  1.7891 -1.6556
17462TIP3   OH273876   6.286   4.001   3.966  0.3244  0.0816  0.3254
17462TIP3    H173877   6.287   4.018   4.060 -0.6204 -1.0079  0.5595
17462TIP3    H273878   6.290   4.088   3.925  0.0938  0.5964  1.3800
17463TIP3   OH273879   1.092   5.407   3.061  0.2755 -0.3422  0.0872
17463TIP3    H173880   1.009   5.364   3.078  1.1081 -1.6264  1.1355
17463TIP3    H273881   1.077   5.499   3.079 -0.7753 -0.6438  0.8037
17464TIP3   OH273882   2.088   5.525   1.926 -0.3327 -0.5918  0.2380
17464TIP3    H173883   2.056   5.530   1.836 -2.9368 -0.6943  1.0978
17464TIP3    H273884   2.089   5.432   1.946  0.4549 -0.5846  0.2875
17465TIP3   OH273885   2.821   4.699  15.304 -0.3522 -0.1599 -0.4561
17465TIP3    H173886   2.822   4.794  15.294 -0.0071 -0.3195 -2.3637
17465TIP3    H273887   2.741   4.672  15.259 -0.8110 -0.7500  0.6678
17466TIP3   OH273888   2.773   4.740   0.390  0.1308 -0.2404  0.1280
17466TIP3    H173889   2.744   4.816   0.441  0.2779  0.8461 -1.3387
17466TIP3    H273890   2.768   4.667   0.451  1.0187  1.1164  1.9068
17467TIP3   OH273891   5.089   6.660  17.076 -0.4273 -0.8227 -0.5044
17467TIP3    H173892   5.007   6.683  17.120 -0.0071 -0.6147  0.1933
17467TIP3    H273893   5.091   6.564  17.079 -1.5070 -0.9307 -2.1607
17468TIP3   OH273894   1.674   5.450  15.061 -0.4462  0.0265 -0.1466
17468TIP3    H173895   1.653   5.433  14.969 -2.2694 -0.6579  0.3580
17468TIP3    H273896   1.603   5.507  15.092  1.8801  3.0870  0.0369
17469TIP3   OH273897   1.412   2.068  12.576 -0.2854 -0.2483 -0.2499
17469TIP3    H173898   1.403   2.123  12.498 -1.2914 -0.3076 -0.1806
17469TIP3    H273899   1.357   1.992  12.557  0.9737 -1.2017 -0.2948
17470TIP3   OH273900   4.792   2.273  12.419  0.4648  0.2348  0.1560
17470TIP3    H173901   4.748   2.261  12.335  2.1132 -1.3079 -0.5340
17470TIP3    H273902   4.865   2.212  12.417  0.6609  0.2916  2.6482
17471TIP3   OH273903   1.413   6.558   5.773 -0.1394 -0.3621  0.1924
17471TIP3    H173904   1.366   6.619   5.830  0.3965  0.9708 -0.7283
17471TIP3    H273905   1.346   6.500   5.739 -0.5609 -0.7585  1.6382
17472TIP3   OH273906   0.454   6.612  11.547 -0.1576  0.6912 -0.3529
17472TIP3    H173907   0.514   6.679  11.514  0.1655  1.2500  1.2736
17472TIP3    H273908   0.507   6.559  11.606 -0.3316 -1.2370 -1.8059
17473TIP3   OH273909   3.594   4.637  11.367 -0.2826  0.3388  0.0196
17473TIP3    H173910   3.531   4.581  11.322  0.3982 -0.0538 -0.4716
17473TIP3    H273911   3.547   4.719  11.383  0.3983  1.8455 -4.4917
17474TIP3   OH273912   3.947   6.248   1.543 -0.3147  0.2510 -0.0533
17474TIP3    H173913   3.968   6.330   1.499  0.5502  1.1390  1.8693
17474TIP3    H273914   3.975   6.180   1.482  1.4386  1.4042 -0.6139
17475TIP3   OH273915   1.502   3.773  13.208  0.3198  0.3944 -0.4529
17475TIP3    H173916   1.448   3.697  13.186  0.7515  0.1773 -0.7808
17475TIP3    H273917   1.457   3.815  13.281  0.8383 -1.0241  0.7393
17476TIP3   OH273918   5.943   6.567   3.629 -0.2840 -0.9312 -0.1488
17476TIP3    H173919   5.911   6.649   3.667 -0.3873 -1.1147  0.1657
17476TIP3    H273920   5.944   6.505   3.702 -0.5024 -1.2945 -0.4499
17477TIP3   OH273921   5.138   6.721   5.082  0.3137 -0.4304  0.3307
17477TIP3    H173922   5.170   6.723   4.991 -2.0912  3.9331 -0.7049
17477TIP3    H273923   5.210   6.757   5.133 -0.3700  3.3080 -1.0195
17478TIP3   OH273924   0.238   0.675  11.319  0.3488 -0.2197 -0.1777
17478TIP3    H173925   0.204   0.611  11.381  0.6784 -0.1952  0.0323
17478TIP3    H273926   0.198   0.651  11.235  1.2146 -1.3039 -0.3109
17479TIP3   OH273927   3.095   5.066  16.887  0.1277  0.2032 -0.3115
17479TIP3    H173928   3.069   5.047  16.797  1.7555  1.7514 -1.1837
17479TIP3    H273929   3.174   5.015  16.901  0.4457  0.7326 -0.1288
17480TIP3   OH273930   2.348   6.460  10.902  0.1462 -0.7042  0.0945
17480TIP3    H173931   2.341   6.520  10.828  2.0386  2.3562  2.1687
17480TIP3    H273932   2.426   6.408  10.884  0.9243  0.4195  0.1397
17481TIP3   OH273933   6.548   6.371  16.493 -0.1322 -0.3532 -0.3335
17481TIP3    H173934   6.607   6.446  16.489  0.3814 -0.7546 -0.3594
17481TIP3    H273935   6.485   6.394  16.561  1.3517 -0.8233  1.2866
17482TIP3   OH273936   5.282   4.042   3.040  0.0001  0.7824  0.1691
17482TIP3    H173937   5.355   4.054   2.980  0.2487  2.0798  0.6870
17482TIP3    H273938   5.226   3.977   2.998  1.3665 -0.1244 -0.2956
17483TIP3   OH273939   4.399   3.496   0.814 -0.2319  0.0157 -1.0516
17483TIP3    H173940   4.461   3.439   0.859 -0.3797  1.0479  0.5356
17483TIP3    H273941   4.450   3.534   0.742  1.1458  1.1329  0.4480
17484TIP3   OH273942   6.809   2.922  15.041 -0.4168  0.4817 -0.0246
17484TIP3    H173943   6.813   2.950  14.949 -0.2399 -0.2578 -0.2425
17484TIP3    H273944   6.887   2.869  15.054 -1.0222 -0.3623  0.2390
17485TIP3   OH273945   3.970   5.582   2.539  0.6351 -0.3661 -0.1958
17485TIP3    H173946   3.929   5.610   2.621  1.4137 -1.0108  0.4421
17485TIP3    H273947   4.046   5.640   2.530 -1.0885  1.7837 -2.1093
17486TIP3   OH273948   3.015   6.251   1.048 -0.3764 -0.1079 -0.9744
17486TIP3    H173949   3.006   6.187   1.120 -0.2274 -0.5680 -1.3612
17486TIP3    H273950   3.031   6.197   0.971  1.6286  0.4711 -1.0161
17487TIP3   OH273951   0.466   0.768  12.923 -0.6777 -0.5441  0.6335
17487TIP3    H173952   0.485   0.860  12.905 -0.0568 -0.7904 -0.0383
17487TIP3    H273953   0.388   0.770  12.979 -0.3874  0.3995  1.0271
17488TIP3   OH273954   1.726   4.823  14.679  0.6786 -0.5680  0.1401
17488TIP3    H173955   1.747   4.888  14.746  1.1456 -1.9810  1.4089
17488TIP3    H273956   1.692   4.748  14.727 -0.5057 -1.0420 -1.3460
17489TIP3   OH273957   5.989   3.161  15.106  0.9514  0.2381 -0.7345
17489TIP3    H173958   5.996   3.257  15.107  0.8660  0.2629  0.8151
17489TIP3    H273959   5.901   3.143  15.073  0.8641  0.7071 -0.7642
17490TIP3   OH273960   4.241   2.188   3.611  0.3000  0.5469 -0.6475
17490TIP3    H173961   4.202   2.255   3.668 -0.9628  0.6023 -1.5269
17490TIP3    H273962   4.171   2.125   3.597  1.7134 -1.5353  0.8896
17491TIP3   OH273963   5.580   5.541  13.307 -0.5797  0.0901 -0.3603
17491TIP3    H173964   5.615   5.492  13.382 -0.8170  0.5595  0.0586
17491TIP3    H273965   5.489   5.512  13.301 -0.7370  0.5165 -0.0755
17492TIP3   OH273966   3.054   1.508  12.794 -0.2883 -0.1939 -0.3314
17492TIP3    H173967   3.038   1.512  12.700 -1.0536 -0.4468 -0.2143
17492TIP3    H273968   3.073   1.599  12.819 -0.6747 -0.0296 -0.6276
17493TIP3   OH273969   2.164   0.650  12.576 -0.2851  0.2098 -0.5176
17493TIP3    H173970   2.210   0.720  12.622  0.3335 -0.5214 -0.0004
17493TIP3    H273971   2.195   0.655  12.486 -0.1287  0.4926 -0.4488
17494TIP3   OH273972   5.270   4.317   3.793 -0.0135  0.0733  0.1179
17494TIP3    H173973   5.293   4.403   3.757 -0.3153 -0.5305 -1.6025
17494TIP3    H273974   5.234   4.337   3.879  2.0379  1.4734  0.7344
17495TIP3   OH273975   6.464   2.401   3.476  0.0057  0.0559  0.1083
17495TIP3    H173976   6.377   2.372   3.451 -0.2105  0.8031 -0.0283
17495TIP3    H273977   6.450   2.482   3.525  0.5987  0.0081  0.3691
17496TIP3   OH273978   6.025   2.656   6.675  0.0918  0.0550  0.5524
17496TIP3    H173979   6.049   2.713   6.602  1.9322 -0.3459  0.7842
17496TIP3    H273980   5.939   2.620   6.650  0.7230 -0.1898 -1.5097
17497TIP3   OH273981   2.894   2.727   2.999 -0.0177 -0.0450 -0.0389
17497TIP3    H173982   2.924   2.637   2.981 -0.9588 -0.5539  0.8446
17497TIP3    H273983   2.869   2.761   2.913 -0.7227 -1.0421 -0.2481
17498TIP3   OH273984   1.022   0.501  14.961  0.0926 -0.0242  0.6322
17498TIP3    H173985   0.980   0.474  14.879  1.0398 -1.1374  0.4881
17498TIP3    H273986   0.974   0.452  15.029  1.0023 -1.1836  0.4802
17499TIP3   OH273987   5.412   0.204  12.567 -0.3173 -0.5469 -0.0911
17499TIP3    H173988   5.370   0.239  12.646 -1.4725 -0.3974 -0.7504
17499TIP3    H273989   5.480   0.146  12.600 -0.8669 -0.5866  1.0147
17500TIP3   OH273990   5.550   2.036   0.471 -0.1002  0.1672 -0.2055
17500TIP3    H173991   5.622   2.033   0.534 -0.8450 -2.4393  0.6676
17500TIP3    H273992   5.472   2.020   0.523 -0.8582 -1.0532 -1.6198
17501TIP3   OH273993   2.597   5.210  15.036  0.3854  0.5940  0.1448
17501TIP3    H173994   2.628   5.165  14.957  1.7195 -0.3706  1.1656
17501TIP3    H273995   2.675   5.219  15.090 -0.3195  2.1172  0.9544
17502TIP3   OH273996   4.275   1.914  14.051 -0.4499 -0.2255 -0.3455
17502TIP3    H173997   4.294   1.859  14.126  0.8530 -0.4111 -0.7864
17502TIP3    H273998   4.340   1.984  14.056 -0.1784 -0.3826 -1.4253
17503TIP3   OH273999   6.087   0.159   5.306  0.1773  0.5882 -0.3122
17503TIP3    H174000   6.002   0.164   5.263  0.6726  1.0371 -1.2541
17503TIP3    H274001   6.066   0.136   5.397 -0.8323 -1.2563 -0.9569
17504TIP3   OH274002   1.345   3.185   1.905  0.1999 -0.1243 -0.0179
17504TIP3    H174003   1.290   3.120   1.951  1.5755 -2.2065 -1.1323
17504TIP3    H274004   1.419   3.198   1.964 -1.0433  2.1467  1.1630
17505TIP3   OH274005   1.892   3.644   1.196 -0.6404  0.0135 -0.5552
17505TIP3    H174006   1.818   3.617   1.142 -0.4597 -0.3840 -0.6091
17505TIP3    H274007   1.921   3.727   1.158 -0.6726 -0.1380 -0.9160
17506TIP3   OH274008   4.909   0.292  12.844 -0.1412  0.0259 -0.2989
17506TIP3    H174009   4.875   0.219  12.791 -1.1975  0.8287 -0.7550
17506TIP3    H274010   4.966   0.340  12.784 -0.5953  0.3988 -0.4355
17507TIP3   OH274011   3.837   6.728   2.042  0.0865 -0.0396 -0.4058
17507TIP3    H174012   3.893   6.750   2.116 -0.3235 -0.7025  0.1106
17507TIP3    H274013   3.843   6.632   2.035 -0.1722 -0.0190 -0.9975
17508TIP3   OH274014   1.334   0.305  11.257 -1.0376  0.1599 -0.4350
17508TIP3    H174015   1.264   0.254  11.216 -2.3951  0.8829  0.8612
17508TIP3    H274016   1.368   0.361  11.188 -0.6091 -1.3478 -1.4865
17509TIP3   OH274017   1.761   2.011   5.082  0.2720  0.2124  0.6486
17509TIP3    H174018   1.693   2.041   5.143 -0.1686  0.2511  0.1499
17509TIP3    H274019   1.712   1.986   5.003  0.9369  1.4429 -0.1934
17510TIP3   OH274020   1.552   4.779  11.655 -0.0084 -0.0384  0.1130
17510TIP3    H174021   1.471   4.747  11.616 -0.5317 -1.2683  2.0626
17510TIP3    H274022   1.540   4.768  11.749  1.1122  2.9798  0.7309
17511TIP3   OH274023   4.732   0.970   3.993 -0.3454 -0.1324 -0.1554
17511TIP3    H174024   4.637   0.975   3.985 -0.3983 -1.0999 -0.3268
17511TIP3    H274025   4.765   1.000   3.909 -0.3845  2.3071  0.6155
17512TIP3   OH274026   6.232   4.288   1.828  0.1399 -0.3253  0.0384
17512TIP3    H174027   6.226   4.197   1.798 -1.0556 -0.2175 -0.0836
17512TIP3    H274028   6.141   4.319   1.831  0.4772  0.6662  0.7007
17513TIP3   OH274029   4.287   0.268  15.190 -0.2742  0.1529 -0.4284
17513TIP3    H174030   4.301   0.174  15.178  1.1343  0.3482 -0.4734
17513TIP3    H274031   4.361   0.297  15.243 -1.9599  0.8262  1.6845
17514TIP3   OH274032   0.274   4.007   2.140 -0.2774  0.2976  0.1468
17514TIP3    H174033   0.202   3.960   2.183 -1.0874 -1.5535 -2.8730
17514TIP3    H274034   0.345   3.942   2.135 -0.2671  0.3944 -1.3251
17515TIP3   OH274035   1.873   5.955   6.612  0.2409 -0.1667 -0.2739
17515TIP3    H174036   1.788   5.988   6.641 -0.0029  1.2157 -2.3389
17515TIP3    H274037   1.925   5.952   6.691 -0.7409  2.2156  0.5717
17516TIP3   OH274038   2.461   2.866   5.395 -0.0282  0.0066  0.0652
17516TIP3    H174039   2.518   2.864   5.471  1.3790 -3.4433 -0.9194
17516TIP3    H274040   2.434   2.775   5.381  1.7250 -0.0799 -4.8495
17517TIP3   OH274041   4.672   4.107  12.247  0.1320 -0.5325 -0.1963
17517TIP3    H174042   4.608   4.088  12.178 -1.1163 -1.3470  1.1339
17517TIP3    H274043   4.654   4.198  12.272 -0.8834 -0.9096  0.5147
17518TIP3   OH274044   2.284   0.113   2.715 -0.3289  0.0788  0.6917
17518TIP3    H174045   2.256   0.191   2.666  0.5803  0.1093  0.1908
17518TIP3    H274046   2.209   0.054   2.713 -0.8018  0.6820  0.5155
17519TIP3   OH274047   5.993   3.943   4.040  0.7663 -0.8370  0.2418
17519TIP3    H174048   5.988   3.858   4.085 -1.2007  0.0126  1.7660
17519TIP3    H274049   6.000   4.007   4.111 -0.9351  0.4639 -0.7055
17520TIP3   OH274050   5.858   0.399  16.564  0.5098  0.1434 -0.1486
17520TIP3    H174051   5.830   0.331  16.502  1.8696 -0.1461 -0.4814
17520TIP3    H274052   5.917   0.455  16.513 -1.8470  2.6095 -0.3619
17521TIP3   OH274053   6.504   6.343   0.712 -0.1483  0.4371 -0.4363
17521TIP3    H174054   6.462   6.426   0.688 -3.1896 -1.4927 -2.6192
17521TIP3    H274055   6.517   6.349   0.806 -1.5099  2.8959 -0.3188
17522TIP3   OH274056   4.180   4.320   1.679 -0.3781  0.1913 -0.6640
17522TIP3    H174057   4.112   4.358   1.735 -0.1395 -0.5990  0.1851
17522TIP3    H274058   4.200   4.236   1.720  0.7361  0.1831 -1.2065
17523TIP3   OH274059   0.993   6.664  17.208 -0.0396  0.5091 -0.4667
17523TIP3    H174060   1.012   6.598  17.141 -1.3167 -0.9103  0.5019
17523TIP3    H274061   1.036   6.631  17.286 -1.1118  0.5264  0.1525
17524TIP3   OH274062   6.642   4.026   0.275  0.0428  0.1536  0.0317
17524TIP3    H174063   6.692   4.100   0.240  0.5174 -0.2246 -0.1031
17524TIP3    H274064   6.620   3.974   0.197 -0.5815  0.3256  0.0875
17525TIP3   OH274065   5.263   5.230  10.593  0.4164  0.0772 -0.4105
17525TIP3    H174066   5.218   5.168  10.649  1.5818 -1.0613 -0.6946
17525TIP3    H274067   5.314   5.176  10.533  1.2790  1.2980 -0.8185
17526TIP3   OH274068   2.079   0.361   6.719 -0.6331  0.2355  0.0191
17526TIP3    H174069   2.091   0.404   6.634  0.0096 -1.8703 -1.0422
17526TIP3    H274070   2.166   0.362   6.759 -0.6733  0.1468  0.1089
17527TIP3   OH274071   4.281   6.264   4.698 -0.8055  0.2508 -0.6992
17527TIP3    H174072   4.369   6.286   4.729 -0.8056  0.6277 -0.9643
17527TIP3    H274073   4.233   6.243   4.778 -0.4932  0.1000 -0.5468
17528TIP3   OH274074   2.885   2.653   6.114 -0.4038  0.7139  0.2671
17528TIP3    H174075   2.844   2.693   6.191  0.2870  1.4088  0.2866
17528TIP3    H274076   2.858   2.562   6.118 -0.5258  0.7768  1.2429
17529TIP3   OH274077   3.050   0.577  17.003  0.1995 -0.0169 -0.3051
17529TIP3    H174078   3.123   0.529  16.963  0.2574  0.4997 -0.8281
17529TIP3    H274079   2.982   0.510  17.015  1.5174 -1.0257  2.2661
17530TIP3   OH274080   4.143   2.765   1.125 -0.1457  0.3889 -0.2854
17530TIP3    H174081   4.226   2.813   1.127  0.0882 -0.0271  1.2016
17530TIP3    H274082   4.081   2.824   1.082 -0.1562  2.5011  2.4088
17531TIP3   OH274083   1.337   1.751   1.537  0.1882  0.2374  0.2767
17531TIP3    H174084   1.362   1.838   1.506 -0.0406 -0.0419 -0.7328
17531TIP3    H274085   1.274   1.768   1.608  0.9850  0.8974  0.8402
17532TIP3   OH274086   6.389   5.749   0.427 -0.0771 -0.0478 -0.2020
17532TIP3    H174087   6.383   5.832   0.379  0.7047  0.5306  0.6611
17532TIP3    H274088   6.355   5.684   0.366 -0.2737  0.8392 -1.0750
17533TIP3   OH274089   2.562   5.270   0.785 -0.3666  0.2877 -0.3978
17533TIP3    H174090   2.605   5.247   0.868 -0.8165 -0.0905 -0.2609
17533TIP3    H274091   2.634   5.288   0.725  0.0160  2.9661  0.6921
17534TIP3   OH274092   2.607   6.148   6.233 -0.0742 -0.2148  0.0494
17534TIP3    H174093   2.605   6.086   6.306  1.2296 -1.8313 -1.2029
17534TIP3    H274094   2.589   6.233   6.273  0.9975 -0.9824  2.3120
17535TIP3   OH274095   3.333   1.012  11.606 -0.0058  0.0065 -0.4854
17535TIP3    H174096   3.348   1.104  11.584 -0.0213  0.0093 -0.4856
17535TIP3    H274097   3.400   0.991  11.671 -0.8185  0.3950  0.5090
17536TIP3   OH274098   0.593   6.408  11.371 -0.1745 -0.3808  0.1512
17536TIP3    H174099   0.678   6.446  11.348 -0.2064 -1.1832 -1.4254
17536TIP3    H274100   0.560   6.464  11.441  1.9965 -0.5212  1.3912
17537TIP3   OH274101   4.078   1.684   3.530  0.2886  0.5092 -0.2494
17537TIP3    H174102   4.108   1.775   3.536  0.0082  0.5503  0.7111
17537TIP3    H274103   4.077   1.653   3.621 -2.0600  0.3556 -0.2678
17538TIP3   OH274104   1.193   5.438  14.538 -0.8718 -0.0060 -0.1613
17538TIP3    H174105   1.222   5.360  14.490  0.6690 -0.0675  0.7988
17538TIP3    H274106   1.193   5.508  14.473 -1.0681 -0.5516 -0.7583
17539TIP3   OH274107   2.430   2.031  16.997 -0.5048  0.0652 -0.2073
17539TIP3    H174108   2.518   2.014  17.031 -0.5695 -0.4334 -0.2830
17539TIP3    H274109   2.419   1.967  16.927 -1.3510 -0.6076  0.5235
17540TIP3   OH274110   3.025   3.619   6.441 -0.3493 -0.2994  0.1431
17540TIP3    H174111   3.071   3.536   6.432 -1.0707 -1.3243  4.0982
17540TIP3    H274112   3.094   3.685   6.438  0.5253 -1.2093 -0.6479
17541TIP3   OH274113   0.106   2.856  12.405  0.3467 -0.7444  0.2447
17541TIP3    H174114   0.118   2.829  12.496  0.0052 -0.5759  0.3400
17541TIP3    H274115   0.083   2.949  12.411 -0.0049 -0.8165  0.0017
17542TIP3   OH274116   4.868   2.016  11.399 -0.1422  0.0332 -0.0828
17542TIP3    H174117   4.788   2.036  11.446  0.1585  1.1931 -0.0310
17542TIP3    H274118   4.919   2.098  11.402 -0.9250  0.8492 -4.0852
17543TIP3   OH274119   1.537   4.785   3.177 -0.2331  0.1420  0.2818
17543TIP3    H174120   1.444   4.780   3.202  0.1267  2.5547  2.4785
17543TIP3    H274121   1.538   4.841   3.100 -0.5125  1.1563  1.0032
17544TIP3   OH274122   2.959   6.157  11.762  0.3479 -0.1992 -0.3703
17544TIP3    H174123   2.956   6.064  11.784 -0.6066 -0.8306 -2.9030
17544TIP3    H274124   2.874   6.191  11.791 -1.0393 -1.0991 -3.0456
17545TIP3   OH274125   2.095   1.298  11.906  0.5026 -0.2686 -0.2508
17545TIP3    H174126   2.023   1.274  11.964  0.5201 -1.1853 -0.5984
17545TIP3    H274127   2.055   1.307  11.820  1.0097 -2.2378 -0.7401
17546TIP3   OH274128   2.450   3.373   0.605  0.9132  0.5587 -0.2337
17546TIP3    H174129   2.428   3.466   0.609 -1.5270  0.0611 -0.3497
17546TIP3    H274130   2.383   3.336   0.548  0.7389 -1.5414  1.2409
17547TIP3   OH274131   6.777   3.750   6.734 -0.4068  0.3286  0.0230
17547TIP3    H174132   6.858   3.719   6.693 -0.1104  0.6490  0.3510
17547TIP3    H274133   6.738   3.672   6.774 -0.6314  0.0397 -0.7496
17548TIP3   OH274134   2.616   3.845   3.383  0.2843 -0.8114 -0.6099
17548TIP3    H174135   2.646   3.770   3.331  0.7469 -0.3799 -0.9802
17548TIP3    H274136   2.630   3.819   3.474 -1.5648 -2.0229 -0.6098
17549TIP3   OH274137   2.756   6.503  15.968  0.0489  0.5416 -0.0815
17549TIP3    H174138   2.766   6.592  15.934  0.2416  0.9310  0.9448
17549TIP3    H274139   2.697   6.460  15.906  0.2562  1.2656 -0.7995
17550TIP3   OH274140   3.821   6.500   3.776  0.6213 -0.3486 -0.0917
17550TIP3    H174141   3.864   6.494   3.691  0.3005  3.1089 -0.6375
17550TIP3    H274142   3.875   6.447   3.834  2.0303 -1.1282 -2.0239
17551TIP3   OH274143   5.986   6.127   4.556 -0.2391  0.0353  0.0213
17551TIP3    H174144   6.053   6.061   4.538  1.1345  0.6443  2.4353
17551TIP3    H274145   6.016   6.205   4.509  0.3258  0.0685  0.4252
17552TIP3   OH274146   0.192   3.557  14.557  0.7058 -0.3762 -0.0888
17552TIP3    H174147   0.240   3.598  14.628  0.5947 -0.2885 -0.0648
17552TIP3    H274148   0.205   3.463  14.570 -0.0103 -0.3892  0.5278
17553TIP3   OH274149   5.480   2.591  12.495  0.7448  0.3186 -0.0673
17553TIP3    H174150   5.488   2.673  12.447 -0.8484 -0.7070 -2.2479
17553TIP3    H274151   5.570   2.557  12.498  1.1971  1.4308 -0.4516
17554TIP3   OH274152   2.821   3.371   1.358  0.6167 -0.1766  0.5503
17554TIP3    H174153   2.821   3.276   1.374  0.0002  0.1481  2.8893
17554TIP3    H274154   2.747   3.385   1.299  1.8895 -1.3151 -1.4392
17555TIP3   OH274155   6.805   3.396   2.162 -0.0557  0.4930  0.2680
17555TIP3    H174156   6.886   3.396   2.111 -0.6861  1.2063 -0.7788
17555TIP3    H274157   6.805   3.480   2.208  0.7754 -0.3745  1.9425
17556TIP3   OH274158   5.039   2.148  14.242 -0.5751  0.5102 -0.1540
17556TIP3    H174159   5.057   2.172  14.334 -1.4882  2.0986 -0.3466
17556TIP3    H274160   5.107   2.195  14.192 -2.3883  2.9481 -0.5376
17557TIP3   OH274161   0.719   4.792  13.508  0.4994 -0.3875 -0.4291
17557TIP3    H174162   0.651   4.820  13.571  1.1445 -0.0038  0.1130
17557TIP3    H274163   0.672   4.736  13.446 -0.2812 -0.2793  0.0406
17558TIP3   OH274164   2.619   0.542   4.230  0.8454 -0.7393  0.0644
17558TIP3    H174165   2.582   0.602   4.294  0.0778 -0.1163 -0.9236
17558TIP3    H274166   2.710   0.569   4.221  1.3199 -1.6431  1.7877
17559TIP3   OH274167   0.684   3.434   5.045 -0.0328  0.0388  0.2837
17559TIP3    H174168   0.708   3.439   4.953 -0.0123  0.0571  0.2897
17559TIP3    H274169   0.646   3.520   5.064 -4.3917 -1.3615 -0.9118
17560TIP3   OH274170   4.284   3.749  12.798 -0.1473  0.1946  0.1646
17560TIP3    H174171   4.375   3.759  12.769 -0.3733  0.0036 -0.6285
17560TIP3    H274172   4.263   3.832  12.841  0.0860  0.6208 -0.5330
17561TIP3   OH274173   2.968   2.797  14.500 -0.3222 -0.0640 -0.1754
17561TIP3    H174174   2.902   2.864  14.520 -1.1812 -0.7737 -0.5913
17561TIP3    H274175   3.021   2.835  14.430 -1.3833 -0.1716 -1.0562
17562TIP3   OH274176   3.493   3.847   5.987 -0.3094 -0.5117  0.0411
17562TIP3    H174177   3.424   3.800   6.033  0.5495 -0.3350  1.5839
17562TIP3    H274178   3.547   3.885   6.056 -0.7965  2.5502 -1.1164
17563TIP3   OH274179   5.217   6.804   4.584 -0.1789 -0.1573  0.4995
17563TIP3    H174180   5.263   6.720   4.581 -0.2757 -0.1958  0.0213
17563TIP3    H274181   5.286   6.868   4.601 -0.1248 -0.3428  1.0156
17564TIP3   OH274182   2.057   1.831  15.033 -0.1672 -0.0888 -0.4379
17564TIP3    H174183   2.041   1.850  14.940 -1.3135  0.6623 -0.1217
17564TIP3    H274184   1.987   1.771  15.057  0.9658 -1.4306 -0.3801
17565TIP3   OH274185   6.709   0.873  15.289 -0.1681 -0.1349 -0.4580
17565TIP3    H174186   6.632   0.882  15.232  0.9207 -1.4552 -2.2539
17565TIP3    H274187   6.720   0.960  15.328 -1.5467  0.5497 -1.4920
17566TIP3   OH274188   0.399   6.397  13.718 -0.2164  0.2844  0.7320
17566TIP3    H174189   0.311   6.384  13.754 -0.5664  0.4024 -0.0422
17566TIP3    H274190   0.383   6.433  13.630  0.5803 -0.5867  0.2146
17567TIP3   OH274191   1.118   5.896   6.379  0.5594  0.5064  0.4070
17567TIP3    H174192   1.205   5.891   6.340  0.9398  1.8819  1.0154
17567TIP3    H274193   1.084   5.807   6.373  2.7652 -0.5090  1.9003
17568TIP3   OH274194   0.784   3.168  16.866 -0.2142  0.0654 -0.7836
17568TIP3    H174195   0.715   3.196  16.806  0.3619  0.5663 -1.2176
17568TIP3    H274196   0.767   3.219  16.946 -2.3546 -2.2257  0.3658
17569TIP3   OH274197   4.043   4.127   0.955 -0.1440  0.2551 -0.1764
17569TIP3    H174198   4.057   4.107   0.862  0.1140  1.1068 -0.3300
17569TIP3    H274199   4.102   4.069   1.001 -1.3362 -1.2503 -0.4498
17570TIP3   OH274200   2.216   5.792  16.100 -0.4062 -0.3032 -0.6853
17570TIP3    H174201   2.199   5.720  16.161 -0.5341 -0.7554 -1.2430
17570TIP3    H274202   2.249   5.749  16.021  0.5061  0.3376 -0.6644
17571TIP3   OH274203   1.838   5.695  11.001  0.2315  0.4324 -0.1746
17571TIP3    H174204   1.876   5.672  11.086  1.5304  0.1234 -0.8110
17571TIP3    H274205   1.874   5.781  10.982 -1.9549  1.5920  0.6526
17572TIP3   OH274206   2.764   1.608   0.850 -0.5504  0.4058  0.1550
17572TIP3    H174207   2.681   1.648   0.826 -0.1790  0.8565 -0.4183
17572TIP3    H274208   2.817   1.681   0.882 -0.0372  0.3003 -0.4248
17573TIP3   OH274209   2.908   4.922   3.898 -0.3453  0.1801  0.1755
17573TIP3    H174210   2.853   4.861   3.948 -0.4087  0.8024  0.8725
17573TIP3    H274211   2.861   4.934   3.816  0.4157 -1.9017 -0.6456
17574TIP3   OH274212   6.499   6.306   0.117 -0.1397  0.0304 -0.2036
17574TIP3    H174213   6.539   6.332   0.200  0.1983 -0.6665 -0.1374
17574TIP3    H274214   6.565   6.328   0.051  0.1182 -0.5832 -0.1542
17575TIP3   OH274215   4.468   3.914  13.382  0.5277  0.2414  0.3572
17575TIP3    H174216   4.455   3.967  13.303  0.9332  0.5314  0.4842
17575TIP3    H274217   4.435   3.968  13.453  0.2431  0.0147  0.3977
17576TIP3   OH274218   3.164   2.349   3.211 -0.0957  0.2347  0.0853
17576TIP3    H174219   3.122   2.335   3.296 -1.0231 -1.2993 -0.5818
17576TIP3    H274220   3.201   2.265   3.187 -1.4619  0.0974 -1.8376
17577TIP3   OH274221   4.828   0.605  15.431 -0.0523 -0.4806 -0.0415
17577TIP3    H174222   4.790   0.693  15.431  1.4557  0.1930  0.0738
17577TIP3    H274223   4.909   0.613  15.382  0.4147 -1.6715  0.4909
17578TIP3   OH274224   5.046   3.306   0.542 -0.2253 -0.0126 -0.4934
17578TIP3    H174225   5.085   3.393   0.538 -0.8895  0.2991 -0.3637
17578TIP3    H274226   4.952   3.322   0.543 -0.4098 -0.5400  3.1791
17579TIP3   OH274227   4.920   3.443  16.133 -0.0419 -0.3103 -0.1875
17579TIP3    H174228   4.975   3.428  16.210 -0.2396  0.9759  0.2202
17579TIP3    H274229   4.981   3.476  16.067  0.0462 -0.9705 -0.4425
17580TIP3   OH274230   2.831   0.922  10.639 -0.4470  0.3813 -0.8907
17580TIP3    H174231   2.772   0.997  10.639 -0.5089  0.4410 -3.5773
17580TIP3    H274232   2.906   0.951  10.586  0.0295 -1.0635 -1.0580
17581TIP3   OH274233   2.170   2.331  14.996 -0.1277  0.1951  0.6738
17581TIP3    H174234   2.225   2.303  15.069  0.6252 -2.2214 -0.7077
17581TIP3    H274235   2.153   2.251  14.946 -1.0644  1.6552 -1.5172
17582TIP3   OH274236   4.832   5.462   4.110 -0.8364  0.0299  0.1816
17582TIP3    H174237   4.741   5.488   4.126 -0.8357 -0.2353  0.6405
17582TIP3    H274238   4.883   5.512   4.174 -0.6537  0.2327 -0.1243
17583TIP3   OH274239   1.328   5.062   3.689 -0.3616 -0.0791  0.5162
17583TIP3    H174240   1.413   5.067   3.644 -1.1737  0.7982 -0.9998
17583TIP3    H274241   1.319   4.970   3.712  1.0084 -0.1843  0.7277
17584TIP3   OH274242   3.097   6.645   2.000 -0.2762 -0.0816 -0.2159
17584TIP3    H174243   3.103   6.741   2.000 -1.1347  0.1015 -3.7392
17584TIP3    H274244   3.009   6.626   2.033 -0.9106  0.4961 -1.5365
17585TIP3   OH274245   0.803   0.860  16.226 -0.1453 -0.3765  0.0673
17585TIP3    H174246   0.887   0.814  16.215 -0.0773 -0.3318  0.3888
17585TIP3    H274247   0.816   0.915  16.304 -0.8636 -1.2707  0.8378
17586TIP3   OH274248   6.568   4.933   1.358  0.4301 -0.1752 -0.1360
17586TIP3    H174249   6.597   4.859   1.412  1.7328  0.6178  0.2870
17586TIP3    H274250   6.534   4.996   1.421 -0.6774 -0.4015 -0.4989
17587TIP3   OH274251   2.050   2.411  13.353  0.1381  0.7378 -0.0175
17587TIP3    H174252   2.137   2.420  13.392  0.0467 -4.5074  2.2719
17587TIP3    H274253   2.065   2.376  13.265  0.5547 -1.5294  0.8733
17588TIP3   OH274254   1.456   1.882   0.715 -0.2976  0.2514  0.9944
17588TIP3    H174255   1.534   1.937   0.719 -0.0834  0.0440  0.0078
17588TIP3    H274256   1.384   1.943   0.700 -0.0662  0.2899 -0.0532
17589TIP3   OH274257   4.406   5.687   1.233 -0.4463  0.3540  0.8007
17589TIP3    H174258   4.395   5.771   1.187 -0.3448 -0.9984 -1.9247
17589TIP3    H274259   4.317   5.651   1.239 -0.3245  0.0168  0.6125
17590TIP3   OH274260   5.882   0.800  12.642  0.2921 -0.1119  0.4772
17590TIP3    H174261   5.879   0.865  12.712  0.4643 -0.7482  1.0801
17590TIP3    H274262   5.951   0.832  12.583 -0.0029  0.5402  0.4778
17591TIP3   OH274263   5.912   3.632  12.022  0.4926  0.7854 -0.5314
17591TIP3    H174264   5.934   3.602  12.110 -1.4439  4.9029  1.6552
17591TIP3    H274265   5.995   3.639  11.977  1.5607 -1.3641  0.9271
17592TIP3   OH274266   4.597   5.904  14.164  0.4053  0.2179 -0.2418
17592TIP3    H174267   4.634   5.931  14.080 -0.1767 -1.3060 -1.0260
17592TIP3    H274268   4.509   5.940  14.164  1.7819  4.1729  1.7885
17593TIP3   OH274269   3.618   0.595   6.203  0.7787  0.2993  0.0268
17593TIP3    H174270   3.658   0.508   6.198 -0.4608 -0.3106  0.3881
17593TIP3    H274271   3.597   0.618   6.113  1.6979  0.5306 -0.1434
17594TIP3   OH274272   3.260   1.004   0.328 -0.3499 -0.2976 -0.4108
17594TIP3    H174273   3.288   1.083   0.374 -0.6415  0.7432 -1.9770
17594TIP3    H274274   3.195   0.964   0.387  0.5864  0.0194  0.8824
17595TIP3   OH274275   5.973   5.650   2.085 -0.1369 -0.4576  0.2372
17595TIP3    H174276   5.930   5.731   2.057  1.5523 -0.1282 -1.5988
17595TIP3    H274277   5.927   5.581   2.037 -0.9935 -0.5460  1.1332
17596TIP3   OH274278   2.765   1.807  13.745 -0.4324 -0.7072 -0.9307
17596TIP3    H174279   2.836   1.742  13.740  0.0195 -0.2447 -0.5948
17596TIP3    H274280   2.805   1.889  13.716 -0.4414 -0.1370  0.6079
17597TIP3   OH274281   6.467   5.708  16.255 -0.5199 -0.3269 -0.2928
17597TIP3    H174282   6.415   5.637  16.218 -1.6162  0.5859 -0.5594
17597TIP3    H274283   6.422   5.733  16.335 -0.1688  0.0910 -0.2198
17598TIP3   OH274284   1.275   0.016   4.914 -0.6827  0.6027 -0.3273
17598TIP3    H174285   1.193  -0.034   4.917 -0.4651  0.1728 -1.2128
17598TIP3    H274286   1.342  -0.048   4.889 -0.5714  1.4916 -2.6116
17599TIP3   OH274287   2.412   3.014   0.364  0.4315 -0.1301  0.2380
17599TIP3    H174288   2.353   3.085   0.388  0.7078 -0.3436  1.6515
17599TIP3    H274289   2.359   2.955   0.310 -0.1635  0.4894  0.1352
17600TIP3   OH274290   1.374   0.478   0.571  0.0228 -0.2778 -0.8392
17600TIP3    H174291   1.286   0.462   0.539  0.2718  1.3412 -2.5073
17600TIP3    H274292   1.368   0.561   0.619  0.2695 -1.1680  0.8022
17601TIP3   OH274293   0.735   4.107  13.797 -0.0068 -0.3084  0.2322
17601TIP3    H174294   0.783   4.183  13.831 -0.7468 -0.8560  2.7216
17601TIP3    H274295   0.775   4.089  13.712  0.1479  2.8832 -0.4923
17602TIP3   OH274296   5.928   4.550   0.243 -0.3893 -0.6610 -0.9130
17602TIP3    H174297   5.988   4.588   0.308 -0.9583 -2.8752  1.0564
17602TIP3    H274298   5.863   4.618   0.228  1.0751  0.7825 -1.0168
17603TIP3   OH274299   0.935   0.092   1.295  0.3730 -0.1427 -0.1859
17603TIP3    H174300   0.975   0.022   1.347  0.7540 -0.0221 -0.3170
17603TIP3    H274301   0.981   0.089   1.211  0.3948  0.2721 -0.1913
17604TIP3   OH274302   2.605   1.115  11.116 -0.3537  0.1072 -0.4947
17604TIP3    H174303   2.559   1.035  11.142  0.6497 -0.2960  0.0810
17604TIP3    H274304   2.576   1.130  11.025 -3.7931  1.4406  0.6415
17605TIP3   OH274305   4.818   2.604  12.426 -0.0264  0.1241 -0.8562
17605TIP3    H174306   4.894   2.562  12.465  1.4062  1.1931 -2.3676
17605TIP3    H274307   4.807   2.560  12.342 -0.7909  0.3093 -0.8596
17606TIP3   OH274308   5.748   2.479   5.001 -0.4121  0.1734  0.1395
17606TIP3    H174309   5.835   2.475   5.040 -0.1380  1.2087 -0.3534
17606TIP3    H274310   5.689   2.456   5.073  0.1169  1.5254  1.0438
17607TIP3   OH274311   2.585   3.388  14.334 -0.3387 -0.1674  0.6436
17607TIP3    H174312   2.593   3.447  14.258 -1.4734 -1.2631 -0.3767
17607TIP3    H274313   2.516   3.427  14.387 -0.9676 -0.4482  0.0565
17608TIP3   OH274314   2.630   0.064   5.373 -0.1306  0.4876 -0.1221
17608TIP3    H174315   2.617  -0.031   5.369 -1.7434  0.6961 -0.4745
17608TIP3    H274316   2.671   0.079   5.458  0.4755 -0.5422 -0.2089
17609TIP3   OH274317   2.592   5.901  13.639 -1.0022 -0.3699 -0.2404
17609TIP3    H174318   2.583   5.850  13.720 -2.1712  0.9371  0.5015
17609TIP3    H274319   2.601   5.992  13.669 -2.8639  0.3173 -1.5789
17610TIP3   OH274320   4.629   1.416   4.701  0.3304 -0.1157 -0.3291
17610TIP3    H174321   4.559   1.351   4.701  1.4663 -1.3780 -0.6538
17610TIP3    H274322   4.688   1.388   4.771  0.4365  1.0475  0.0769
17611TIP3   OH274323   3.602   4.236  10.674  0.1336  1.1756  0.0257
17611TIP3    H174324   3.695   4.219  10.664 -0.2929 -0.4855 -1.5607
17611TIP3    H274325   3.596   4.294  10.750  2.5100  2.1712 -0.4761
17612TIP3   OH274326   0.023   4.222   2.185  0.0634  0.1154  0.4615
17612TIP3    H174327   0.064   4.243   2.102 -1.2198  0.2884 -0.1580
17612TIP3    H274328   0.095   4.219   2.248  0.8990  1.2388 -0.4074
17613TIP3   OH274329   5.462   0.890  12.246 -0.0386  0.0534  0.7575
17613TIP3    H174330   5.547   0.889  12.202 -0.9981  1.2755 -1.2919
17613TIP3    H274331   5.472   0.829  12.319  1.1885 -3.4497 -2.0566
17614TIP3   OH274332   6.069   1.721   0.623 -0.5154 -0.3310  0.1947
17614TIP3    H174333   6.043   1.711   0.532  1.2974 -1.6151 -0.2370
17614TIP3    H274334   6.015   1.657   0.670 -1.0463 -0.0629 -0.0301
17615TIP3   OH274335   5.368   5.906  11.678  0.0615 -0.5850 -0.3553
17615TIP3    H174336   5.313   5.935  11.750 -0.0309 -0.7297 -0.3681
17615TIP3    H274337   5.332   5.949  11.601  1.4374  1.2833 -0.0300
17616TIP3   OH274338   3.594   1.519  11.145 -0.5342  0.1139 -0.7006
17616TIP3    H174339   3.672   1.561  11.180 -1.8934  0.7278  1.7983
17616TIP3    H274340   3.615   1.502  11.053  2.1371  1.1413 -0.3576
17617TIP3   OH274341   5.844   3.034  17.199 -0.2912 -0.8286  0.2772
17617TIP3    H174342   5.757   3.033  17.238 -0.7700 -1.8248 -0.7600
17617TIP3    H274343   5.837   3.095  17.125  1.0463  2.3587  2.5228
17618TIP3   OH274344   4.802   6.725  11.921  0.2591 -0.2543 -0.3746
17618TIP3    H174345   4.822   6.811  11.885  0.6512  0.2707  1.0186
17618TIP3    H274346   4.787   6.741  12.015 -0.5559 -1.5698 -0.2491
17619TIP3   OH274347   0.479   6.651  15.004  0.1760 -0.3750  0.2517
17619TIP3    H174348   0.465   6.614  14.917 -1.3946 -0.2007  0.4116
17619TIP3    H274349   0.540   6.590  15.046 -0.0600 -1.1666 -0.5235
17620TIP3   OH274350   0.132   3.632   3.944 -0.3848  0.1415 -0.8214
17620TIP3    H174351   0.140   3.720   3.980 -1.8926  0.1387 -0.4409
17620TIP3    H274352   0.208   3.585   3.980  0.3990  1.2412 -0.9825
17621TIP3   OH274353   6.755   4.605   1.267 -0.5877 -0.1447 -0.2879
17621TIP3    H174354   6.707   4.621   1.348 -0.0495 -2.1790  0.4939
17621TIP3    H274355   6.807   4.684   1.254 -0.9707  0.3817  1.1438
17622TIP3   OH274356   3.514   1.687   5.185  0.1679 -0.2969  0.0225
17622TIP3    H174357   3.430   1.728   5.163  0.3328  0.5617  0.9246
17622TIP3    H274358   3.580   1.747   5.148  0.4408  0.8985  2.2466
17623TIP3   OH274359   0.318   2.386   6.115 -0.1135  0.7493  0.4961
17623TIP3    H174360   0.321   2.356   6.024  0.7733 -0.0917  0.7849
17623TIP3    H274361   0.256   2.458   6.114 -1.6089 -0.4910 -0.4127
17624TIP3   OH274362   2.058   0.461  12.341  0.0729  0.3409  0.2475
17624TIP3    H174363   2.065   0.413  12.258 -0.7915  1.6912 -0.6333
17624TIP3    H274364   2.104   0.405  12.404 -0.1212 -1.2012 -0.9158
17625TIP3   OH274365   6.559   2.504  15.922  0.6824  0.4449  0.1933
17625TIP3    H174366   6.483   2.475  15.871 -0.0785 -0.7542  1.9268
17625TIP3    H274367   6.616   2.427  15.927  1.4759  0.9904 -0.0738
17626TIP3   OH274368   1.902   2.763   2.861 -0.0816 -0.1807  0.4486
17626TIP3    H174369   1.941   2.718   2.785 -0.4136 -1.3768  0.9595
17626TIP3    H274370   1.875   2.848   2.827  1.5200  0.0666 -0.3000
17627TIP3   OH274371   5.062   6.099  13.452  0.2570  0.1327 -0.6130
17627TIP3    H174372   4.972   6.071  13.468  1.4058 -2.6765  1.9153
17627TIP3    H274373   5.086   6.058  13.369 -0.6052  0.4351 -1.0185
17628TIP3   OH274374   4.511   3.730   5.539 -0.0376  0.1642  0.3099
17628TIP3    H174375   4.579   3.785   5.578  0.0151 -0.4559  1.1145
17628TIP3    H274376   4.552   3.644   5.530 -0.7717 -0.2772  1.0249
17629TIP3   OH274377   3.172   5.211   2.433 -0.7295 -0.1060 -0.4536
17629TIP3    H174378   3.083   5.244   2.442 -0.8073 -0.5391  0.4977
17629TIP3    H274379   3.215   5.233   2.516 -0.2789 -0.8546 -0.4754
17630TIP3   OH274380   5.179   5.969   5.694 -0.8237 -0.3928 -0.1400
17630TIP3    H174381   5.228   5.964   5.612  0.5290  1.1073  0.5185
17630TIP3    H274382   5.242   6.001   5.758 -2.2055 -0.1823  1.1844
17631TIP3   OH274383   5.056   4.223  12.417  0.6865 -0.4391  0.4433
17631TIP3    H174384   5.009   4.146  12.448  0.8018  0.1071  2.0974
17631TIP3    H274385   5.066   4.209  12.323 -4.5724  0.3292 -0.5545
17632TIP3   OH274386   0.052   4.476  15.807 -0.4822  0.4173  0.4587
17632TIP3    H174387   0.092   4.389  15.810 -0.4138  0.4682  1.5187
17632TIP3    H274388   0.023   4.486  15.717 -3.1846 -1.9262  0.9219
17633TIP3   OH274389   2.070   6.394  13.747 -0.3309  1.1047  0.4356
17633TIP3    H174390   2.060   6.360  13.658  0.1119  0.5540  0.5877
17633TIP3    H274391   2.109   6.321  13.796 -0.2163  1.5319  0.9911
17634TIP3   OH274392   3.546   4.076   2.763 -0.0368 -0.5696  0.0847
17634TIP3    H174393   3.508   3.990   2.779 -0.7425 -0.6137 -1.5709
17634TIP3    H274394   3.574   4.072   2.671  1.1839  0.5105  0.3866
17635TIP3   OH274395   3.813   3.636  17.272 -0.1720 -0.1777  0.3795
17635TIP3    H174396   3.757   3.670  17.203  0.4242  0.4678  0.2039
17635TIP3    H274397   3.865   3.567  17.229 -0.2891 -0.2524  0.3575
17636TIP3   OH274398   3.372   3.541   2.682  0.3686  0.1646 -0.5677
17636TIP3    H174399   3.438   3.490   2.728 -0.0674 -0.3333 -0.4787
17636TIP3    H274400   3.292   3.528   2.733 -0.1494 -0.4950 -1.5253
17637TIP3   OH274401   4.366   1.051  13.099 -0.1478  0.2697  0.2045
17637TIP3    H174402   4.271   1.064  13.097 -0.0497  0.9685 -0.0933
17637TIP3    H274403   4.401   1.134  13.131  0.5486  1.2125 -2.6345
17638TIP3   OH274404   4.422   5.625   1.713 -0.2950 -0.4033 -0.2514
17638TIP3    H174405   4.332   5.660   1.717  0.1771  0.7738  0.7969
17638TIP3    H274406   4.415   5.547   1.658 -1.9702 -0.3504 -0.1631
17639TIP3   OH274407   6.456   1.448   2.778 -0.3859  0.3237  0.0363
17639TIP3    H174408   6.449   1.358   2.746 -1.7213  0.0807  0.8997
17639TIP3    H274409   6.439   1.441   2.872 -2.7159  1.6664 -0.1895
17640TIP3   OH274410   2.730   3.236  14.908 -0.3288 -0.0564 -0.2543
17640TIP3    H174411   2.685   3.295  14.849 -1.8968 -0.9065  0.0357
17640TIP3    H274412   2.663   3.173  14.936  0.6740 -0.4830  1.3766
17641TIP3   OH274413   2.055   1.029   3.502  0.1738  0.3191 -0.0402
17641TIP3    H174414   2.093   0.967   3.564  0.2099  1.8641  1.5754
17641TIP3    H274415   2.021   1.100   3.557  1.7628  2.6272 -1.8581
17642TIP3   OH274416   5.122   5.289  10.955  0.6279 -0.8410  0.1974
17642TIP3    H174417   5.101   5.382  10.944  2.5196 -0.4542 -0.4914
17642TIP3    H274418   5.205   5.278  10.909 -0.1281 -3.1429 -0.7429
17643TIP3   OH274419   1.984   2.347  16.359  0.0924  0.2106 -0.2261
17643TIP3    H174420   1.896   2.338  16.396  0.1746 -0.2164 -0.1286
17643TIP3    H274421   2.018   2.428  16.397 -0.4482  0.6446 -0.6619
17644TIP3   OH274422   0.677   3.161  15.287  0.1340 -0.5626  0.0537
17644TIP3    H174423   0.607   3.220  15.314  0.8082  0.8113 -1.0487
17644TIP3    H274424   0.724   3.140  15.367 -2.4885 -2.9451  1.1541
17645TIP3   OH274425   0.182   4.459   2.784 -0.2903  0.3112 -0.1635
17645TIP3    H174426   0.201   4.543   2.826 -0.9644  0.0007  0.7878
17645TIP3    H274427   0.150   4.403   2.855 -2.6091  0.1246 -1.2473
17646TIP3   OH274428   4.539   3.955  12.083  0.3228  0.8000  0.6990
17646TIP3    H174429   4.518   3.941  11.991 -0.6104 -0.2618  1.0518
17646TIP3    H274430   4.615   3.899  12.100  1.1893  1.8243  0.3318
17647TIP3   OH274431   2.196   3.595  15.561 -0.2532  0.3008 -0.1694
17647TIP3    H174432   2.245   3.583  15.480  1.7584 -1.2838  1.1714
17647TIP3    H274433   2.183   3.689  15.569  2.2892  0.7615 -0.8127
17648TIP3   OH274434   5.448   0.312  10.649 -0.1405 -0.3441  0.5330
17648TIP3    H174435   5.501   0.386  10.678 -0.7022 -0.2385  1.3085
17648TIP3    H274436   5.387   0.349  10.584  1.7187 -0.7464 -1.5668
17649TIP3   OH274437   6.314   2.968  12.420 -0.4678 -0.0736  0.6462
17649TIP3    H174438   6.356   2.945  12.337  0.9628  0.1494  1.2907
17649TIP3    H274439   6.311   2.886  12.469 -0.7090 -0.0657  0.6481
17650TIP3   OH274440   0.700   5.993  12.091  0.2857  0.0215  0.2716
17650TIP3    H174441   0.678   6.046  12.014 -2.1964  0.7825  1.3749
17650TIP3    H274442   0.727   5.909  12.056 -1.7203  0.0096 -1.4653
17651TIP3   OH274443   6.014   3.230   0.699 -0.6054 -0.1173  0.1135
17651TIP3    H174444   6.108   3.213   0.701 -0.5132  0.2236 -0.9461
17651TIP3    H274445   6.000   3.282   0.620 -1.8242 -1.0624 -0.3351
17652TIP3   OH274446   3.270   4.735  13.594 -0.3360  0.1717  0.5795
17652TIP3    H174447   3.235   4.818  13.561  2.0225  0.9226 -0.2535
17652TIP3    H274448   3.277   4.748  13.689 -0.9941  0.4822  0.5938
17653TIP3   OH274449   2.745   1.314  16.333 -0.1754 -0.0934 -0.4346
17653TIP3    H174450   2.762   1.262  16.254 -1.9714 -0.4418 -0.6372
17653TIP3    H274451   2.791   1.267  16.403  1.9913  0.5786 -1.3283
17654TIP3   OH274452   5.663   3.354   5.454  0.1764  0.6085  0.2531
17654TIP3    H174453   5.631   3.385   5.369 -0.7774 -1.6997 -0.3053
17654TIP3    H274454   5.588   3.362   5.512  1.1371  3.2574  1.2728
17655TIP3   OH274455   6.513   0.867  11.595  0.2336 -0.1251  0.4603
17655TIP3    H174456   6.430   0.909  11.571  0.7721  0.6406 -0.1084
17655TIP3    H274457   6.561   0.935  11.643 -0.2509 -1.1817  2.5491
17656TIP3   OH274458   4.391   2.824   5.060 -0.1888  0.1156 -0.1580
17656TIP3    H174459   4.442   2.745   5.043 -2.1416 -2.0251  2.7981
17656TIP3    H274460   4.316   2.818   5.002 -0.2311 -0.1175 -0.0803
17657TIP3   OH274461   6.140   5.935   5.529  0.0634 -0.6859  0.3566
17657TIP3    H174462   6.187   6.018   5.520  1.0348 -1.2137  0.3610
17657TIP3    H274463   6.063   5.945   5.474 -0.8168  0.8863  1.7789
17658TIP3   OH274464   4.338   0.535  13.737  0.4211 -0.0391  0.1870
17658TIP3    H174465   4.351   0.571  13.649  1.2905 -2.6313 -0.8400
17658TIP3    H274466   4.415   0.480  13.752  0.1450  0.1125  2.4729
17659TIP3   OH274467   6.369   6.369   6.332 -0.1265 -0.7621 -0.3122
17659TIP3    H174468   6.353   6.277   6.308 -1.5033 -0.1774 -1.8786
17659TIP3    H274469   6.463   6.380   6.323  0.0234 -1.9433 -0.4245
17660TIP3   OH274470   0.109   1.462   3.845 -0.1311  0.1681 -0.0952
17660TIP3    H174471   0.138   1.464   3.753  1.1589  0.1648  0.2929
17660TIP3    H274472   0.082   1.552   3.864 -0.5473  0.1370 -0.5141
17661TIP3   OH274473   3.871   2.114  14.164  0.0014  0.2588 -0.9500
17661TIP3    H174474   3.927   2.073  14.099 -1.4853  0.0311 -2.1524
17661TIP3    H274475   3.839   2.194  14.122 -3.4969 -1.4447 -1.8957
17662TIP3   OH274476   0.537   2.241  14.504  0.0504 -0.3515  0.1910
17662TIP3    H174477   0.471   2.173  14.493 -0.0720  0.0011 -1.6683
17662TIP3    H274478   0.602   2.222  14.437  0.9769  0.2958  0.8733
17663TIP3   OH274479   0.871   0.561  12.713 -0.0065 -0.3220 -0.0463
17663TIP3    H174480   0.848   0.644  12.671  0.4047  0.1152  0.5526
17663TIP3    H274481   0.792   0.535  12.760 -0.1699 -0.3231 -0.3215
17664TIP3   OH274482   4.857   1.126  16.434  0.3906  0.3716  0.2470
17664TIP3    H174483   4.929   1.188  16.430  1.1544 -0.4189  1.3732
17664TIP3    H274484   4.871   1.067  16.359  1.9690 -0.8594  1.4395
17665TIP3   OH274485   0.010   0.736   3.114  0.2982 -0.0584 -0.0333
17665TIP3    H174486   0.040   0.694   3.195 -1.1080 -0.1373  0.4838
17665TIP3    H274487  -0.057   0.799   3.143 -0.4609 -0.3142 -1.1532
17666TIP3   OH274488   2.360   0.162  14.587 -0.0664 -0.2496  0.1363
17666TIP3    H174489   2.377   0.150  14.493  4.0588 -2.5940  0.9318
17666TIP3    H274490   2.348   0.256  14.597  1.0155  0.2656 -2.5754
17667TIP3   OH274491   5.389   6.718  11.693 -0.4754 -0.5195 -0.0019
17667TIP3    H174492   5.408   6.683  11.606 -0.1254 -0.6908  0.1408
17667TIP3    H274493   5.355   6.806  11.677  0.1228 -0.3394 -0.2785
17668TIP3   OH274494   5.472   1.665   0.227  0.1754 -0.5291  0.0078
17668TIP3    H174495   5.420   1.611   0.286 -0.5977  0.3387  0.1564
17668TIP3    H274496   5.459   1.755   0.260  1.2462 -0.2229 -0.3510
17669TIP3   OH274497   3.134   2.047  16.878  0.6530  0.8041  0.5504
17669TIP3    H174498   3.145   2.102  16.801  0.7529 -0.7466 -0.5919
17669TIP3    H274499   3.167   2.100  16.951  0.2390  2.4207 -0.4074
17670TIP3   OH274500   4.338   5.406  14.140  0.4102 -0.4360  0.0575
17670TIP3    H174501   4.386   5.484  14.115 -0.0305 -0.2714 -0.2842
17670TIP3    H274502   4.351   5.399  14.235  1.3335 -0.5561 -0.0665
17671TIP3   OH274503   0.274   4.201  11.058 -0.7883 -0.5711  0.3340
17671TIP3    H174504   0.274   4.144  10.980 -2.3167 -0.9898  0.6026
17671TIP3    H274505   0.298   4.287  11.024 -2.2163 -0.5652 -0.7899
17672TIP3   OH274506   0.077   5.453   4.566 -0.2900 -0.4464  0.3635
17672TIP3    H174507   0.114   5.540   4.552  1.5880 -0.7814  2.5277
17672TIP3    H274508  -0.014   5.469   4.590  0.4272  1.1452  2.3475
17673TIP3   OH274509   1.285   2.276  15.159  0.0901 -0.1981 -0.0057
17673TIP3    H174510   1.201   2.236  15.182 -1.3474  1.8758 -1.2845
17673TIP3    H274511   1.318   2.222  15.087  0.2144 -1.4190  0.9405
17674TIP3   OH274512   5.245   5.994   2.273 -0.3042  0.8311  0.3783
17674TIP3    H174513   5.298   5.925   2.312 -0.7062  0.7754  0.8395
17674TIP3    H274514   5.308   6.059   2.242  0.0329  0.7233  0.8390
17675TIP3   OH274515   6.101   5.246  13.301 -0.0420 -0.2548  0.6065
17675TIP3    H174516   6.113   5.323  13.357 -0.4703 -0.4492  0.9804
17675TIP3    H274517   6.127   5.275  13.214 -0.0842  0.2791  0.7665
17676TIP3   OH274518   1.700   6.522   1.519 -0.1490 -0.1808 -0.6813
17676TIP3    H174519   1.777   6.548   1.570 -0.0958 -0.5200 -0.5890
17676TIP3    H274520   1.720   6.551   1.430  1.5001 -3.0456 -1.3658
17677TIP3   OH274521   5.261   6.412   6.374  0.0554 -0.0244  0.2270
17677TIP3    H174522   5.258   6.407   6.470 -1.0732 -1.0335  0.1567
17677TIP3    H274523   5.311   6.334   6.348 -0.1851 -0.0940 -0.0322
17678TIP3   OH274524   4.568   5.168  15.642 -0.4452 -0.1958  0.8435
17678TIP3    H174525   4.515   5.247  15.650  0.0003 -0.0169  2.2518
17678TIP3    H274526   4.524   5.116  15.575 -0.2759  1.5923 -0.7474
17679TIP3   OH274527   1.503   3.739  15.178 -0.1023 -0.4413 -0.1211
17679TIP3    H174528   1.500   3.649  15.145  2.0271 -0.5024 -0.3222
17679TIP3    H274529   1.567   3.736  15.249 -0.4827  0.8036  0.3032
17680TIP3   OH274530   3.825   4.402   2.353 -0.5901  0.2299 -0.6771
17680TIP3    H174531   3.755   4.338   2.360 -0.5359  0.1668 -0.7182
17680TIP3    H274532   3.821   4.450   2.436  1.2244 -1.7089  0.6286
17681TIP3   OH274533   5.535   5.206   0.248  0.1203 -0.3085  0.5839
17681TIP3    H174534   5.444   5.193   0.274  0.0441  0.2631  0.6001
17681TIP3    H274535   5.533   5.201   0.152 -0.2808  1.8041  0.4377
17682TIP3   OH274536   4.361   4.180  13.407 -0.3678 -0.6598 -0.2937
17682TIP3    H174537   4.276   4.161  13.367 -0.8311 -0.4507  0.5657
17682TIP3    H274538   4.343   4.183  13.501  0.1201  1.6476 -0.2041
17683TIP3   OH274539   5.986   3.135  13.292  0.1518 -0.0833 -0.0881
17683TIP3    H174540   5.986   3.054  13.242 -0.6651  0.9257 -1.8185
17683TIP3    H274541   6.057   3.187  13.256  1.0725 -0.2225  1.4250
17684TIP3   OH274542   6.200   0.048  10.748 -0.0440  1.1641  0.1209
17684TIP3    H174543   6.260   0.062  10.674  1.1339 -2.6672  0.1332
17684TIP3    H274544   6.113   0.044  10.708  0.4071  0.7677 -0.8634
17685TIP3   OH274545   2.454   1.462   0.682  0.0355  0.3939 -0.0659
17685TIP3    H174546   2.432   1.400   0.612  0.0452  0.3041  0.0097
17685TIP3    H274547   2.538   1.499   0.655 -0.2404  0.7969 -0.3958
17686TIP3   OH274548   2.496   1.963   4.468  0.7480 -0.0095  0.2279
17686TIP3    H174549   2.483   1.868   4.464 -1.4520  0.0603  2.8820
17686TIP3    H274550   2.452   1.997   4.390  1.1830 -1.1084 -0.5152
17687TIP3   OH274551   5.547   6.615   0.883 -0.3808  0.4321  0.5072
17687TIP3    H174552   5.470   6.623   0.827 -0.9846  0.5302  1.3184
17687TIP3    H274553   5.571   6.705   0.905  0.6819  0.4505 -0.6672
17688TIP3   OH274554   1.810   3.183  14.096  0.5062  0.6056  0.0034
17688TIP3    H174555   1.732   3.216  14.139  0.1660  1.5170 -1.2502
17688TIP3    H274556   1.819   3.238  14.017  1.9749  0.0306 -0.2610
17689TIP3   OH274557   1.538   0.057   4.431 -0.6296  0.2637  0.0190
17689TIP3    H174558   1.470   0.061   4.498 -1.1079  2.7952 -0.5174
17689TIP3    H274559   1.498   0.096   4.353  0.8908  0.2591 -0.7981
17690TIP3   OH274560   4.645   1.819  15.691 -0.4143 -0.1191 -0.2998
17690TIP3    H174561   4.705   1.845  15.620  0.2134  0.6453  0.4847
17690TIP3    H274562   4.558   1.829  15.653 -0.1876  2.4281 -0.3464
17691TIP3   OH274563   1.209   0.866  15.440 -0.0110  0.2829  0.3185
17691TIP3    H174564   1.257   0.814  15.505  1.7127 -0.2190 -1.2747
17691TIP3    H274565   1.175   0.802  15.378 -1.2616  0.7930  0.4405
17692TIP3   OH274566   3.154   6.339  12.402 -0.2888  0.1476 -0.3770
17692TIP3    H174567   3.195   6.274  12.459  1.5441  0.8568 -0.8289
17692TIP3    H274568   3.133   6.289  12.322 -0.6238 -0.3060 -0.0087
17693TIP3   OH274569   1.888   3.996   2.783  0.3121 -0.8422 -0.0651
17693TIP3    H174570   1.803   3.999   2.739 -0.3119  1.4032  1.1553
17693TIP3    H274571   1.914   4.087   2.792  2.9996 -1.4581 -0.5679
17694TIP3   OH274572   3.272   1.495   0.571 -0.8232  0.1982 -0.0991
17694TIP3    H174573   3.257   1.434   0.499  0.1091  1.0497 -1.0525
17694TIP3    H274574   3.218   1.462   0.642 -3.0142  0.1795 -1.6631
17695TIP3   OH274575   1.491   1.803  16.918 -0.2183 -0.2256 -0.3099
17695TIP3    H174576   1.483   1.898  16.928 -0.3230 -0.3852  1.3134
17695TIP3    H274577   1.409   1.768  16.953  0.8553 -1.0202  1.5597
17696TIP3   OH274578   4.683   2.029  12.711  0.9507 -0.2618  0.0765
17696TIP3    H174579   4.681   2.049  12.805 -0.1885 -1.6937  0.3786
17696TIP3    H274580   4.612   1.967  12.698 -0.4984  1.7207 -2.1905
17697TIP3   OH274581   6.716   6.340   2.421  0.8229 -0.2836  0.4533
17697TIP3    H174582   6.702   6.426   2.382  2.3766 -0.3529 -0.3292
17697TIP3    H274583   6.679   6.279   2.357 -0.7473 -0.2073  1.2457
17698TIP3   OH274584   1.316   0.034  11.408  0.2834  0.1919  0.1278
17698TIP3    H174585   1.238   0.086  11.386 -1.1788 -1.3921  1.2887
17698TIP3    H274586   1.352   0.077  11.486 -1.6838 -1.1331  1.8981
17699TIP3   OH274587   1.618   2.752   1.215  0.1604  0.0039  0.0179
17699TIP3    H174588   1.525   2.761   1.191  0.3732  1.5038 -0.3060
17699TIP3    H274589   1.621   2.777   1.307 -0.0108 -1.8454  0.5790
17700TIP3   OH274590   5.122   1.977  15.145 -0.0051  0.2073 -0.2937
17700TIP3    H174591   5.098   2.040  15.213  0.1414 -0.2422  0.1835
17700TIP3    H274592   5.061   1.904  15.156  0.2036  0.0031 -0.4558
17701TIP3   OH274593   4.470   0.159  13.636 -0.5547 -0.4189 -0.3474
17701TIP3    H174594   4.502   0.137  13.724  1.8335 -0.7751 -1.2259
17701TIP3    H274595   4.376   0.172  13.647 -0.0700  1.5310  2.6330
17702TIP3   OH274596   3.972   4.544   4.051  0.1933  0.0444 -0.1728
17702TIP3    H174597   4.018   4.469   4.013  1.3845  0.8654 -0.3947
17702TIP3    H274598   3.986   4.535   4.146  2.3728  1.2218 -0.3246
17703TIP3   OH274599   2.664   4.947  16.665 -0.4004  0.0835  0.4164
17703TIP3    H174600   2.739   4.892  16.687  0.1106  0.4968 -0.2295
17703TIP3    H274601   2.597   4.885  16.634 -0.1954 -0.2559  0.6446
17704TIP3   OH274602   3.448   5.644  12.451 -0.1409 -0.0528 -0.5527
17704TIP3    H174603   3.362   5.612  12.422 -0.2615  1.2711 -1.7871
17704TIP3    H274604   3.477   5.701  12.380  1.7578 -0.4379 -0.1315
17705TIP3   OH274605   5.539   4.210   4.021  0.8868  0.3499  0.6547
17705TIP3    H174606   5.599   4.249   4.084  0.9616  1.3106  0.0258
17705TIP3    H274607   5.586   4.214   3.937 -0.1835  1.5158  0.0726
17706TIP3   OH274608   4.759   0.999   5.597  0.1545 -0.6332 -0.0521
17706TIP3    H174609   4.755   1.005   5.692 -0.3866 -0.3608 -0.0849
17706TIP3    H274610   4.728   0.911   5.577 -0.7023 -0.3492 -0.0200
17707TIP3   OH274611   2.036   3.714   1.684  0.7930  0.1787  0.3052
17707TIP3    H174612   1.987   3.659   1.745  0.7160 -0.8188 -0.6272
17707TIP3    H274613   1.969   3.759   1.633  0.8487 -0.1886 -0.0946
17708TIP3   OH274614   0.165   0.748  16.427 -0.5008  0.1933  0.1700
17708TIP3    H174615   0.179   0.839  16.453  0.4470  0.0275  0.2989
17708TIP3    H274616   0.208   0.697  16.496 -0.5581 -0.3324 -0.1799
17709TIP3   OH274617   4.468   1.020  12.151 -0.2781  0.6276 -0.4710
17709TIP3    H174618   4.467   1.018  12.056  1.1127  0.6781 -0.5096
17709TIP3    H274619   4.545   1.073  12.173 -0.5385  0.5563  0.6831
17710TIP3   OH274620   6.556   2.118  12.022  0.1321 -0.9278  0.2271
17710TIP3    H174621   6.498   2.182  11.981  1.3357  0.4442  0.5973
17710TIP3    H274622   6.537   2.036  11.976 -1.9166 -0.4903  0.1957
17711TIP3   OH274623   0.687   3.330  15.062  0.0795 -0.4256 -0.1947
17711TIP3    H174624   0.667   3.423  15.060 -0.8083 -0.6132 -1.2357
17711TIP3    H274625   0.703   3.310  15.154  0.3988  0.7644  0.0254
17712TIP3   OH274626   2.066   3.389   0.600 -0.4362  0.2055 -0.1182
17712TIP3    H174627   2.109   3.305   0.613  1.8191  1.4135  0.6176
17712TIP3    H274628   2.021   3.407   0.683 -0.7297 -0.1334 -0.1984
17713TIP3   OH274629   2.815   0.258  12.412 -0.3531  0.4027 -0.1299
17713TIP3    H174630   2.809   0.331  12.350 -1.7293  0.5989  0.1913
17713TIP3    H274631   2.875   0.288  12.479 -0.1238  0.8415 -0.5280
17714TIP3   OH274632   1.938   2.858  11.494 -0.1981  0.5567 -0.3659
17714TIP3    H174633   2.005   2.921  11.518  1.7846 -1.0766 -1.3542
17714TIP3    H274634   1.969   2.774  11.529 -2.3372 -0.0778  0.2112
17715TIP3   OH274635   4.601   3.658   1.582 -0.3180  0.4902 -0.2977
17715TIP3    H174636   4.590   3.563   1.580 -1.1541  0.5707 -0.0565
17715TIP3    H274637   4.673   3.673   1.644 -1.5575  0.1033  1.3067
17716TIP3   OH274638   1.599   1.347   2.317  0.4491  0.3950  0.1909
17716TIP3    H174639   1.540   1.278   2.288  0.9147  0.5087 -1.0977
17716TIP3    H274640   1.556   1.428   2.291 -0.0831  0.6181  1.6712
17717TIP3   OH274641   0.869   5.566  13.975 -0.0481 -0.1669 -0.2797
17717TIP3    H174642   0.811   5.499  13.939  0.2636 -1.6205  1.7605
17717TIP3    H274643   0.846   5.571  14.068  0.2928  2.2207 -0.2690
17718TIP3   OH274644   1.951   3.629   5.194  0.7141 -0.1015  0.7567
17718TIP3    H174645   1.993   3.589   5.118  0.2714  0.3770  0.2476
17718TIP3    H274646   1.913   3.556   5.242  0.4689 -0.3514  0.1879
17719TIP3   OH274647   3.864   6.384  17.194 -0.5821 -0.3301 -0.3429
17719TIP3    H174648   3.770   6.404  17.200 -0.9435 -1.6899 -1.1417
17719TIP3    H274649   3.890   6.422  17.110 -0.4869 -0.2542 -0.2788
17720TIP3   OH274650   0.270   2.460  16.523  0.5079  0.3902 -0.3362
17720TIP3    H174651   0.271   2.480  16.617  0.7352 -0.9542 -0.0295
17720TIP3    H274652   0.337   2.516  16.486  0.4810  0.8718  0.3195
17721TIP3   OH274653   3.121   2.698   1.183  0.2599  0.3272  0.1717
17721TIP3    H174654   3.078   2.766   1.235  2.1066  1.0785  0.7968
17721TIP3    H274655   3.144   2.630   1.246  0.7106  0.3060 -0.0129
17722TIP3   OH274656   4.638   5.049  16.149 -0.2089  0.2208  0.0591
17722TIP3    H174657   4.675   5.117  16.205 -1.6422  0.5222  0.6800
17722TIP3    H274658   4.586   5.096  16.084  1.4146 -0.1299 -1.5489
17723TIP3   OH274659   6.100   4.664  13.879  0.3212 -0.6496  0.1200
17723TIP3    H174660   6.103   4.735  13.814  1.0158 -0.5030  0.3004
17723TIP3    H274661   6.182   4.616  13.866  0.3337 -0.7956  0.6932
17724TIP3   OH274662   2.486   5.386  11.537  0.1760  0.0133  0.4447
17724TIP3    H174663   2.554   5.362  11.474  0.8165  1.4736  0.5395
17724TIP3    H274664   2.404   5.376  11.489  0.5611 -0.3092 -0.1573
17725TIP3   OH274665   0.399   1.688   2.134 -0.0139 -0.1610  0.0729
17725TIP3    H174666   0.366   1.682   2.224  1.9937 -1.4663  0.7814
17725TIP3    H274667   0.475   1.631   2.132  1.7818  2.0715 -1.6453
17726TIP3   OH274668   4.006   2.110   0.005  0.3692 -0.3793  0.5534
17726TIP3    H174669   4.080   2.058  -0.025  0.9302  0.1434  1.0010
17726TIP3    H274670   3.930   2.052  -0.005  0.7222 -0.6703 -0.6006
17727TIP3   OH274671   5.987   3.290   3.504  0.2976 -0.7474  0.4282
17727TIP3    H174672   6.060   3.351   3.518  0.7289 -1.4892  1.5397
17727TIP3    H274673   6.008   3.214   3.558 -1.6323 -0.7002  1.3511
17728TIP3   OH274674   4.808   0.270   5.522  0.2598 -0.2535 -0.1477
17728TIP3    H174675   4.850   0.241   5.603  2.3479 -0.9426 -1.3970
17728TIP3    H274676   4.721   0.231   5.525  0.0864  0.1624  1.9715
17729TIP3   OH274677   6.785   5.763   4.795 -0.0951 -0.6126 -0.2969
17729TIP3    H174678   6.741   5.694   4.746 -1.5398  0.3137 -0.3447
17729TIP3    H274679   6.767   5.742   4.887 -0.0782 -0.5832 -0.2867
17730TIP3   OH274680   5.463   2.809  12.346 -0.4001 -0.4069  0.1635
17730TIP3    H174681   5.551   2.793  12.310  0.6197 -0.6217  2.6054
17730TIP3    H274682   5.427   2.877  12.289  1.7199  0.3871 -0.3330
17731TIP3   OH274683   0.008   5.504   1.355  0.2136  0.4190 -0.3150
17731TIP3    H174684   0.055   5.497   1.437 -0.0218  0.6455 -0.1593
17731TIP3    H274685  -0.017   5.414   1.333 -1.5062  0.5496  0.9087
17732TIP3   OH274686   5.470   1.516   0.581  0.2788 -0.5628 -0.2786
17732TIP3    H174687   5.538   1.503   0.646  0.5912 -1.0940 -0.7037
17732TIP3    H274688   5.497   1.596   0.535  0.1635 -0.3000  0.1051
17733TIP3   OH274689   0.498   2.461   4.283 -0.0969  0.5891 -0.0113
17733TIP3    H174690   0.443   2.515   4.340  0.9574  1.1283  0.5096
17733TIP3    H274691   0.510   2.380   4.333 -0.8804  0.2412 -0.3751
17734TIP3   OH274692   5.712   0.404  12.748  0.5107 -0.4451  0.1518
17734TIP3    H174693   5.793   0.363  12.779  1.9186  1.2818 -1.0633
17734TIP3    H274694   5.720   0.406  12.653 -0.7044  0.3007  0.0361
17735TIP3   OH274695   6.347   1.290  12.743 -0.7609 -0.2437  0.1856
17735TIP3    H174696   6.370   1.368  12.794 -2.6322  0.5588 -0.1237
17735TIP3    H274697   6.431   1.259  12.708  0.0891  1.3582  0.6968
17736TIP3   OH274698   2.906   5.544   2.836  1.1069  0.0545  0.2644
17736TIP3    H174699   2.886   5.500   2.919 -1.0641 -0.7307 -0.5853
17736TIP3    H274700   2.975   5.606   2.858 -0.0269  0.5457  2.8654
17737TIP3   OH274701   0.908   3.349  15.636  0.5500 -0.5354  0.1948
17737TIP3    H174702   0.969   3.384  15.701  1.1090  0.9405 -1.0544
17737TIP3    H274703   0.965   3.317  15.565 -0.0711 -1.1007 -0.0593
17738TIP3   OH274704   0.076   4.470   3.966 -0.2081  0.2251 -0.1404
17738TIP3    H174705  -0.009   4.435   3.993 -0.1232  0.6981  0.8052
17738TIP3    H274706   0.056   4.555   3.927 -0.1608  0.4236  0.2603
17739TIP3   OH274707   2.834   6.781  14.408 -0.4177 -0.0239 -0.3373
17739TIP3    H174708   2.823   6.772  14.313  1.2403  1.3957 -0.7275
17739TIP3    H274709   2.928   6.793  14.420 -0.6819  0.5490  1.4234
17740TIP3   OH274710   2.324   2.438  13.410  0.5227 -0.1488 -0.7815
17740TIP3    H174711   2.385   2.467  13.479  0.9678  0.0791 -1.2643
17740TIP3    H274712   2.373   2.450  13.329 -0.1205 -0.1179 -1.1631
17741TIP3   OH274713   5.556   0.631  14.617 -0.6399 -0.1591  0.1633
17741TIP3    H174714   5.537   0.654  14.708 -0.2125 -1.9363  0.7473
17741TIP3    H274715   5.479   0.583  14.587 -1.0307  0.9335 -0.6315
17742TIP3   OH274716   5.745   1.606  11.082  0.2638 -0.0044 -0.3718
17742TIP3    H174717   5.730   1.601  11.177  0.0233  0.1337 -0.4023
17742TIP3    H274718   5.657   1.598  11.044  0.2194  1.1510 -0.5430
17743TIP3   OH274719   1.583   4.442   4.816  0.2683 -0.2082 -0.3984
17743TIP3    H174720   1.528   4.505   4.769 -0.7844 -0.6347  0.2219
17743TIP3    H274721   1.672   4.463   4.789 -0.0933  1.2914 -0.5258
17744TIP3   OH274722   0.714   2.605  15.289  0.4829  0.0111  0.5466
17744TIP3    H174723   0.638   2.553  15.314 -0.0567 -0.5601 -2.0089
17744TIP3    H274724   0.694   2.693  15.321 -1.2157 -0.1518 -0.0044
17745TIP3   OH274725   0.853   1.255  12.426 -0.1134 -0.1551  0.4691
17745TIP3    H174726   0.759   1.273  12.439 -0.1977 -0.5423  0.4115
17745TIP3    H274727   0.856   1.200  12.348  0.3048  1.2205 -0.5281
17746TIP3   OH274728   4.055   5.474  13.362  0.2733  0.2163 -0.8596
17746TIP3    H174729   4.057   5.561  13.323 -0.3357  0.7748  0.2944
17746TIP3    H274730   3.997   5.423  13.305 -2.3799  1.6225  0.4125
17747TIP3   OH274731   2.903   2.467  12.890  0.2486  0.4412 -0.2811
17747TIP3    H174732   2.960   2.429  12.957 -0.2225  0.8292  0.3525
17747TIP3    H274733   2.957   2.533  12.848  0.5744  0.1430 -0.3407
17748TIP3   OH274734   0.860   6.074  17.054 -0.5608  0.5641 -0.2669
17748TIP3    H174735   0.787   6.040  17.002  0.9536 -0.4260 -1.8443
17748TIP3    H274736   0.851   6.030  17.139 -1.9510  0.7023 -0.3250
17749TIP3   OH274737   5.923   3.208   5.380  0.3254  0.0928  0.7360
17749TIP3    H174738   5.976   3.273   5.335  0.5030  0.5007  1.5154
17749TIP3    H274739   5.833   3.243   5.375  0.5413  0.8983  1.9625
17750TIP3   OH274740   1.183   2.278  11.767  0.0543  0.6620 -0.1228
17750TIP3    H174741   1.202   2.191  11.732 -0.0323  0.8109 -0.5396
17750TIP3    H274742   1.174   2.264  11.861 -0.6979  0.0915 -0.2707
17751TIP3   OH274743   5.707   4.751  15.742 -0.3233 -0.0200  0.4092
17751TIP3    H174744   5.677   4.807  15.670  1.0754 -0.4201 -0.5232
17751TIP3    H274745   5.712   4.809  15.817  0.9671  1.1098 -0.5098
17752TIP3   OH274746   0.756   4.482  17.027  0.1576  0.3948  0.2793
17752TIP3    H174747   0.678   4.428  17.013 -1.1314  2.0918  0.5595
17752TIP3    H274748   0.793   4.451  17.110 -0.2177 -0.4194  0.1490
17753TIP3   OH274749   3.785   0.609   0.879 -0.1156 -0.1841 -0.4243
17753TIP3    H174750   3.840   0.669   0.929  1.1180 -0.0347 -1.9085
17753TIP3    H274751   3.798   0.524   0.921  2.5840 -0.4966 -1.7054
17754TIP3   OH274752   4.098   6.189  16.989 -0.0306  0.0916 -0.3061
17754TIP3    H174753   4.174   6.175  17.046  0.8068 -2.3327 -1.8623
17754TIP3    H274754   4.120   6.267  16.938  1.2956 -0.3747 -0.4931
17755TIP3   OH274755   6.453   4.716  11.133 -0.2606  0.5241 -0.7406
17755TIP3    H174756   6.526   4.758  11.088  3.4836 -3.8640  0.5466
17755TIP3    H274757   6.389   4.699  11.064  2.2697 -0.0098 -3.1411
17756TIP3   OH274758   1.920   5.254   0.462 -0.1347 -0.0857  0.1068
17756TIP3    H174759   1.876   5.189   0.407  0.1651  0.0198 -0.2613
17756TIP3    H274760   1.861   5.266   0.536 -1.0829  0.5844 -0.7320
17757TIP3   OH274761   3.112   4.797  15.932 -0.2284  0.2632  0.3727
17757TIP3    H174762   3.136   4.791  16.025 -0.3541 -1.7287  0.3161
17757TIP3    H274763   3.162   4.871  15.899  0.8191  0.1989  1.7407
17758TIP3   OH274764   3.871   1.602   0.556 -0.2986 -0.2348 -0.0129
17758TIP3    H174765   3.887   1.675   0.496  1.6384  0.3613  1.1349
17758TIP3    H274766   3.928   1.532   0.523 -0.0275 -0.2641  0.5163
17759TIP3   OH274767   2.486   3.581   3.578  0.0482  0.0210  0.1003
17759TIP3    H174768   2.441   3.586   3.493  1.6279  0.2866 -0.7554
17759TIP3    H274769   2.419   3.548   3.638 -1.3486  0.6017 -1.0607
17760TIP3   OH274770   1.818   6.272   3.071 -0.0085 -0.8561 -0.2665
17760TIP3    H174771   1.833   6.294   2.979  0.6645  1.1347  0.2568
17760TIP3    H274772   1.859   6.186   3.083  1.5513 -0.3087 -1.4140
17761TIP3   OH274773   6.416   6.000   1.188 -0.0956  0.2182  0.2737
17761TIP3    H174774   6.465   6.017   1.269 -0.4173 -0.0017  0.5200
17761TIP3    H274775   6.355   5.929   1.212  0.6005 -0.6602 -0.4779
17762TIP3   OH274776   5.405   0.308  15.756 -0.4234 -0.3683  0.2966
17762TIP3    H174777   5.398   0.282  15.848  0.1923 -0.3034  0.3612
17762TIP3    H274778   5.375   0.231  15.707 -2.5220  0.2039  0.5780
17763TIP3   OH274779   6.631   1.445  15.263 -0.5232 -0.0230 -0.1905
17763TIP3    H174780   6.545   1.415  15.293 -1.0605  0.9545 -0.7216
17763TIP3    H274781   6.615   1.530  15.223  0.6874  0.1484 -0.3633
17764TIP3   OH274782   5.332   3.168   4.164 -0.2075 -0.1214  0.6416
17764TIP3    H174783   5.244   3.155   4.128 -0.0801 -2.4375  1.0126
17764TIP3    H274784   5.338   3.106   4.236  1.0271  1.4960  2.0114
17765TIP3   OH274785   3.737   0.748  16.593  0.5004 -0.5685 -0.2544
17765TIP3    H174786   3.755   0.660  16.562 -0.4453 -0.3323 -1.5322
17765TIP3    H274787   3.753   0.743  16.688  0.3440 -2.1360 -0.2784
17766TIP3   OH274788   3.625   2.958  17.022 -0.3641 -0.2043 -0.1382
17766TIP3    H174789   3.557   2.995  16.965 -0.3280  0.1286  0.0369
17766TIP3    H274790   3.579   2.936  17.103 -0.1395  0.6051  0.2132
17767TIP3   OH274791   0.623   3.158   5.918 -0.2270 -0.3597 -0.2729
17767TIP3    H174792   0.583   3.102   5.984 -0.8700  0.5275  0.1247
17767TIP3    H274793   0.625   3.245   5.959  0.8647 -0.1124 -0.8158
17768TIP3   OH274794   1.194   4.193  15.264 -0.4414 -0.3825 -0.4359
17768TIP3    H174795   1.250   4.127  15.224  0.2838  0.4142 -0.7812
17768TIP3    H274796   1.232   4.276  15.236 -0.7947  0.1880  0.7173
17769TIP3   OH274797   6.428   3.423  13.202  0.0956 -0.2480 -0.1294
17769TIP3    H174798   6.514   3.456  13.227  0.1618 -0.2686 -0.3278
17769TIP3    H274799   6.368   3.496  13.218  0.0467 -0.4452  0.6285
17770TIP3   OH274800   5.114   3.428   2.583 -0.3753 -0.4712  0.2264
17770TIP3    H174801   5.106   3.334   2.595  1.5880 -0.9301 -1.5315
17770TIP3    H274802   5.179   3.455   2.648 -1.2925 -0.2050  1.0610
17771TIP3   OH274803   0.804   4.972   2.054  0.1756 -0.0650 -0.1456
17771TIP3    H174804   0.880   4.930   2.093  0.9016  0.2432 -1.1804
17771TIP3    H274805   0.808   5.063   2.085  2.1675  0.8594 -2.7734
17772TIP3   OH274806   6.771   4.430  17.262  0.2456  0.0082 -0.1779
17772TIP3    H174807   6.755   4.510  17.312 -1.1467 -0.1595 -0.3134
17772TIP3    H274808   6.748   4.359  17.323 -0.9563 -0.2085 -0.8462
17773TIP3   OH274809   6.282   4.370  16.260 -0.4081  1.3801 -0.1787
17773TIP3    H174810   6.334   4.395  16.336 -1.4944  0.8468  0.7614
17773TIP3    H274811   6.323   4.290  16.228 -0.1705  1.4033  0.0693
17774TIP3   OH274812   2.567   5.582  13.016 -0.1446  0.1057 -0.2019
17774TIP3    H174813   2.472   5.597  13.017 -0.2223 -0.2454 -1.1859
17774TIP3    H274814   2.582   5.514  13.081 -0.7521 -0.7904 -0.9727
17775TIP3   OH274815   0.550   3.198  15.798  0.5148  0.3290  0.0814
17775TIP3    H174816   0.523   3.286  15.773  1.1637  0.3509 -0.5504
17775TIP3    H274817   0.601   3.210  15.878  1.1385  0.6017 -0.3494
17776TIP3   OH274818   3.873   3.696   0.766  0.1804 -0.3912 -0.1577
17776TIP3    H174819   3.846   3.630   0.702 -0.5253 -1.1128  0.8633
17776TIP3    H274820   3.886   3.647   0.847  1.0453  0.5149  0.2762
17777TIP3   OH274821   5.852   5.641  16.049 -0.0377 -0.0683 -0.2042
17777TIP3    H174822   5.899   5.598  15.977 -1.1986 -0.4226 -0.7701
17777TIP3    H274823   5.793   5.703  16.005  0.4755  0.9705  0.5335
17778TIP3   OH274824   3.895   6.019   1.380 -0.0689 -0.9025 -0.4422
17778TIP3    H174825   3.824   6.019   1.316 -0.8781 -0.4170  0.4310
17778TIP3    H274826   3.851   6.005   1.464  1.0881 -2.8778 -0.0913
17779TIP3   OH274827   2.757   0.727  12.218  0.4421  0.0115 -0.0985
17779TIP3    H174828   2.682   0.706  12.162  0.6407  0.7502 -0.6552
17779TIP3    H274829   2.727   0.802  12.270  0.8841  0.4889 -0.5250
17780TIP3   OH274830   4.858   3.357  15.837 -0.0638 -0.0009 -0.6599
17780TIP3    H174831   4.825   3.397  15.756 -1.6305  2.1825  0.9130
17780TIP3    H274832   4.801   3.392  15.905  1.1490 -1.8143  1.4120
17781TIP3   OH274833   2.934   3.561   0.963  0.1843  0.8334  0.4051
17781TIP3    H174834   2.876   3.542   0.890 -0.3082  1.0725  0.7305
17781TIP3    H274835   2.916   3.493   1.028 -0.1854  1.2689  0.7649
17782TIP3   OH274836   1.327   6.733  16.104 -0.1164 -0.2896  0.0121
17782TIP3    H174837   1.394   6.713  16.039  1.8334  0.2146  1.7870
17782TIP3    H274838   1.265   6.659  16.097 -0.0774 -0.1919 -2.4364
17783TIP3   OH274839   0.467   6.445   5.248  0.1751  0.4447  0.3733
17783TIP3    H174840   0.551   6.489   5.261 -1.0218  2.7791  0.7298
17783TIP3    H274841   0.466   6.375   5.313  1.6048  0.7450  0.7506
17784TIP3   OH274842   6.577   3.560   1.476 -0.3878  0.2217  0.0049
17784TIP3    H174843   6.608   3.487   1.422  0.3690  0.8265 -0.4001
17784TIP3    H274844   6.603   3.535   1.565  0.4544  0.2757 -0.2089
17785TIP3   OH274845   6.680   1.485  12.755  0.0728 -0.4174  0.1011
17785TIP3    H174846   6.594   1.470  12.794  0.1046  0.1117  0.3857
17785TIP3    H274847   6.668   1.564  12.701  0.6607  0.3695  1.0776
17786TIP3   OH274848   5.983   4.453  16.967 -0.4536  0.2087  0.1907
17786TIP3    H174849   5.895   4.423  16.942 -0.3689  0.8563 -0.9789
17786TIP3    H274850   5.967   4.522  17.031 -0.8433  0.6829 -0.3984
17787TIP3   OH274851   0.600   5.581   5.166  0.3818  1.2287 -0.5312
17787TIP3    H174852   0.577   5.643   5.096 -1.1225  0.7722 -0.4816
17787TIP3    H274853   0.678   5.619   5.207  0.2915  2.3783 -1.3732
17788TIP3   OH274854   6.076   1.867  16.631 -0.5968  0.3562 -0.0995
17788TIP3    H174855   6.017   1.791  16.631 -0.1260 -0.0130 -0.5465
17788TIP3    H274856   6.078   1.895  16.722 -0.8004 -0.1520  0.0694
17789TIP3   OH274857   4.210   2.014   2.898 -0.6433 -0.3468  0.6521
17789TIP3    H174858   4.212   2.007   2.803  0.9433  0.2679  0.6028
17789TIP3    H274859   4.188   1.926   2.928 -1.2393 -0.5276 -0.2820
17790TIP3   OH274860   6.451   4.770   4.842 -0.1978  0.1389 -0.6964
17790TIP3    H174861   6.432   4.844   4.784  0.7365  0.2293 -0.9148
17790TIP3    H274862   6.468   4.811   4.928 -0.6530  0.0912 -0.5849
17791TIP3   OH274863   5.274   5.378  15.107 -0.3248 -0.2605  0.6255
17791TIP3    H174864   5.335   5.324  15.057 -1.4865 -0.0753 -1.0841
17791TIP3    H274865   5.316   5.464  15.112  0.3770 -0.6292  1.0866
17792TIP3   OH274866   2.119   2.523  10.910  0.0698 -0.7372  0.1181
17792TIP3    H174867   2.143   2.612  10.882  0.2796 -0.9079 -0.2380
17792TIP3    H274868   2.174   2.507  10.987  0.1846 -0.6403  0.0565
17793TIP3   OH274869   4.901   6.097   0.357  0.2540  0.0963  0.0914
17793TIP3    H174870   4.851   6.016   0.343 -0.1432  0.1546  1.0955
17793TIP3    H274871   4.936   6.089   0.445 -0.8438  1.5719  0.6946
17794TIP3   OH274872   3.000   2.959  11.925 -0.3621 -0.0461  0.1086
17794TIP3    H174873   2.976   3.052  11.916 -2.8164 -0.8139 -2.5065
17794TIP3    H274874   2.960   2.932  12.007 -0.9634  0.8255  0.1161
17795TIP3   OH274875   1.513   4.442   2.906  0.2894 -0.0960  0.2410
17795TIP3    H174876   1.576   4.383   2.947 -0.3481 -0.4674  0.6985
17795TIP3    H274877   1.458   4.471   2.979 -0.0560  0.2423 -0.1541
17796TIP3   OH274878   0.295   4.176  10.548 -0.3667  0.3501 -0.0383
17796TIP3    H174879   0.323   4.242  10.485 -2.9293  0.4463 -1.2210
17796TIP3    H274880   0.248   4.225  10.615  0.2418 -0.0120  0.6723
17797TIP3   OH274881   5.744   4.134   6.253  0.0959  0.1196 -0.2681
17797TIP3    H174882   5.738   4.164   6.163  0.6456 -0.2287 -0.4270
17797TIP3    H274883   5.779   4.209   6.301  0.5764  0.0431 -0.4946
17798TIP3   OH274884   1.065   5.233   4.179 -0.0833 -0.4524  0.1977
17798TIP3    H174885   1.119   5.196   4.249 -0.4373 -1.8291 -0.2275
17798TIP3    H274886   1.082   5.177   4.104 -0.1668  0.6503 -0.6663
17799TIP3   OH274887   3.696   1.714  12.378 -0.2179  0.1639 -0.1891
17799TIP3    H174888   3.640   1.748  12.308  0.4456 -1.8503 -1.8089
17799TIP3    H274889   3.642   1.720  12.457 -1.4369  1.3989 -1.0604
17800TIP3   OH274890   1.388   6.011   3.864 -0.4894  0.4358 -0.2324
17800TIP3    H174891   1.296   6.016   3.891 -0.4715  0.0401 -0.1029
17800TIP3    H274892   1.384   5.995   3.770 -0.5746 -1.6020  0.0776
17801TIP3   OH274893   5.462   1.997  12.739  0.5903 -0.0961 -0.2591
17801TIP3    H174894   5.428   1.932  12.678  0.0198  0.8144 -0.9331
17801TIP3    H274895   5.556   1.980  12.743  0.4977 -0.7217 -0.7185
17802TIP3   OH274896   2.414   3.646   6.080  0.1462 -0.0541 -0.6179
17802TIP3    H174897   2.442   3.571   6.130 -0.9229 -0.7348 -0.9920
17802TIP3    H274898   2.352   3.610   6.016  1.7139  0.6994 -2.6908
17803TIP3   OH274899   0.725   5.615   2.606 -0.1840  0.0020 -0.2970
17803TIP3    H174900   0.631   5.605   2.590 -0.1713 -1.0512  0.1570
17803TIP3    H274901   0.730   5.645   2.697 -0.0574 -1.7045  0.2969
17804TIP3   OH274902   2.513   5.654   5.776  0.3845  0.2169 -0.3524
17804TIP3    H174903   2.592   5.682   5.823  2.1755 -2.3858 -1.5416
17804TIP3    H274904   2.518   5.700   5.692 -0.6820  1.8318  0.4293
17805TIP3   OH274905   6.662   0.387  15.121 -0.0344 -0.4552  0.0429
17805TIP3    H174906   6.596   0.428  15.177 -0.6670 -0.6252 -0.5519
17805TIP3    H274907   6.744   0.394  15.169 -0.7404 -1.5279  1.4705
17806TIP3   OH274908   3.213   5.567  14.725 -0.4470  0.3014 -0.0498
17806TIP3    H174909   3.159   5.577  14.647  2.4336  2.6408 -1.9630
17806TIP3    H274910   3.276   5.498  14.703 -0.6792 -0.2677  0.9653
17807TIP3   OH274911   1.072   4.463   4.712  0.3660 -0.4769 -0.1990
17807TIP3    H174912   1.160   4.471   4.749  0.2048  1.6935 -0.1815
17807TIP3    H274913   1.037   4.552   4.712 -1.4335 -1.1234 -1.2258
17808TIP3   OH274914   4.547   0.260  13.095  0.1217 -0.8570  0.0554
17808TIP3    H174915   4.559   0.170  13.065 -0.1129 -0.9493  0.2381
17808TIP3    H274916   4.552   0.254  13.191 -0.5254 -0.7686  0.0987
17809TIP3   OH274917   1.277   1.574   3.609 -0.5252 -0.3493 -0.2960
17809TIP3    H174918   1.336   1.573   3.533 -0.0816  1.8706 -0.0424
17809TIP3    H274919   1.189   1.574   3.570 -0.3034  0.7472 -0.8396
17810TIP3   OH274920   1.232   1.433  13.755 -0.0007  0.0069 -0.1270
17810TIP3    H174921   1.307   1.487  13.730 -0.4991  0.7331 -0.0752
17810TIP3    H274922   1.181   1.425  13.674  0.5297 -1.1642 -0.3684
17811TIP3   OH274923   3.675   3.895   0.958  0.1490 -0.6174 -0.1313
17811TIP3    H174924   3.679   3.861   1.047  3.3282 -2.1502 -0.7204
17811TIP3    H274925   3.709   3.824   0.904 -0.8059  0.6154 -2.4793
17812TIP3   OH274926   0.051   0.389  15.702 -0.2199 -0.0213 -0.3038
17812TIP3    H174927   0.015   0.343  15.626 -0.0453  1.1389 -1.1117
17812TIP3    H274928  -0.024   0.438  15.737 -0.0500  0.3140 -0.4040
17813TIP3   OH274929   0.251   1.284   6.543  0.2210  0.1364  0.3236
17813TIP3    H174930   0.303   1.347   6.594  3.0102 -0.3218 -1.6991
17813TIP3    H274931   0.245   1.207   6.599 -1.8228  1.5162  2.1754
17814TIP3   OH274932   4.132   3.635  14.123  0.3429 -0.2117 -0.3300
17814TIP3    H174933   4.141   3.697  14.051 -0.1567  0.6188  0.3073
17814TIP3    H274934   4.084   3.561  14.085 -0.2902  0.4050 -0.7392
17815TIP3   OH274935   1.196   2.085  16.409 -0.4343  0.3127  0.4934
17815TIP3    H174936   1.226   1.996  16.391 -1.9267 -0.3869  1.3256
17815TIP3    H274937   1.273   2.140  16.392  0.7317 -1.1938  0.6885
17816TIP3   OH274938   0.608   4.058   4.611 -0.1127 -0.0841 -0.5723
17816TIP3    H174939   0.575   4.102   4.689  1.5215 -0.1777  0.2024
17816TIP3    H274940   0.572   4.108   4.538 -1.5220  0.1129  0.2167
17817TIP3   OH274941   3.527   3.330  11.162 -0.4992  0.2525  0.3213
17817TIP3    H174942   3.492   3.418  11.174 -1.1486 -0.1992  2.0942
17817TIP3    H274943   3.560   3.329  11.072  0.7725  2.7284  0.6529
17818TIP3   OH274944   0.639   1.546   2.172 -0.7117 -0.1749  0.8178
17818TIP3    H174945   0.642   1.520   2.080 -0.6125 -1.7075  1.2306
17818TIP3    H274946   0.730   1.548   2.200 -0.7143  0.6990  0.7861
17819TIP3   OH274947   2.784   2.298   2.104 -0.7610  0.1061 -0.2173
17819TIP3    H174948   2.816   2.219   2.148 -2.3429 -0.8804 -0.7344
17819TIP3    H274949   2.796   2.279   2.011 -0.5820  0.7543 -0.3292
17820TIP3   OH274950   0.383   0.807  14.282  0.2775  0.4402  0.0087
17820TIP3    H174951   0.344   0.733  14.236  0.9943  0.8340 -1.2690
17820TIP3    H274952   0.476   0.786  14.287  0.3159  0.7248  0.7084
17821TIP3   OH274953   6.229   5.452   3.104 -0.7466 -0.2399 -0.1924
17821TIP3    H174954   6.286   5.528   3.102 -1.1443  0.0530 -0.6198
17821TIP3    H274955   6.148   5.481   3.063 -0.4177 -1.2850 -1.6565
17822TIP3   OH274956   1.227   5.540   3.546 -0.2107 -0.6298  0.1917
17822TIP3    H174957   1.163   5.555   3.477 -0.6063 -0.2311  0.6312
17822TIP3    H274958   1.182   5.484   3.609  0.4861 -1.8113 -0.3340
17823TIP3   OH274959   0.050   1.565   3.133  0.4775  0.5387 -0.3895
17823TIP3    H174960   0.106   1.498   3.173  0.4875  0.6098 -0.2870
17823TIP3    H274961   0.005   1.518   3.062  1.3505  0.7027 -1.0649
17824TIP3   OH274962   1.399   6.694  11.199 -0.2919  0.0162 -0.1806
17824TIP3    H174963   1.347   6.700  11.119  0.6801 -1.3701 -0.9434
17824TIP3    H274964   1.338   6.717  11.269 -1.8198 -1.1412 -1.0888
17825TIP3   OH274965   6.432   1.020  13.094  0.0633  0.3501 -0.6104
17825TIP3    H174966   6.468   0.932  13.083 -0.2557  0.0058  0.8551
17825TIP3    H274967   6.340   1.012  13.069 -0.1734  0.0487  0.3166
17826TIP3   OH274968   6.157   6.539   2.657  0.0462 -0.1864  0.1501
17826TIP3    H174969   6.140   6.451   2.623 -1.3347  0.8677 -2.0770
17826TIP3    H274970   6.194   6.587   2.583  2.6038  0.6936  1.8238
17827TIP3   OH274971   3.273   1.706   2.831 -0.6845  0.0158 -0.0035
17827TIP3    H174972   3.269   1.749   2.745 -0.5827 -1.1506 -0.6137
17827TIP3    H274973   3.343   1.641   2.821 -1.1152 -0.5778  0.7522
17828TIP3   OH274974   6.574   1.069   1.611 -0.2814  0.4628  0.1193
17828TIP3    H174975   6.504   1.108   1.663 -0.6768 -0.1493  0.0518
17828TIP3    H274976   6.532   0.997   1.564  0.6683 -0.7694  1.0929
17829TIP3   OH274977   2.780   2.430   0.946 -1.3862 -0.1860 -0.4343
17829TIP3    H174978   2.685   2.428   0.936 -1.4012 -0.0321 -0.3259
17829TIP3    H274979   2.797   2.388   1.030 -1.3872  0.1430 -0.2681
17830TIP3   OH274980   5.693   4.253   5.716  0.0494  0.0210  0.2775
17830TIP3    H174981   5.658   4.295   5.637 -2.8043 -0.0460  1.3966
17830TIP3    H274982   5.787   4.244   5.698 -0.5740 -0.8966 -3.5191
17831TIP3   OH274983   1.253   6.796  10.946 -0.3957 -0.4594 -0.6516
17831TIP3    H174984   1.190   6.763  11.011 -1.4439 -1.4120 -2.0916
17831TIP3    H274985   1.255   6.728  10.879  2.6727 -0.7554 -0.3793
17832TIP3   OH274986   4.540   5.649  12.570 -0.3626  0.3408 -0.2883
17832TIP3    H174987   4.631   5.653  12.599  0.2863  0.7323 -2.2075
17832TIP3    H274988   4.518   5.556  12.570 -0.9433  0.3701  2.8120
17833TIP3   OH274989   0.693   5.556  17.191  0.1268  0.3875 -0.0439
17833TIP3    H174990   0.640   5.633  17.214 -0.5688  0.3334 -1.3524
17833TIP3    H274991   0.630   5.484  17.193  0.8108 -0.1888  1.3300
17834TIP3   OH274992   0.649   4.560  15.991 -0.9523 -0.2443 -0.3064
17834TIP3    H174993   0.586   4.519  15.932 -0.7178  1.8524 -2.1584
17834TIP3    H274994   0.625   4.528  16.078 -2.5868 -1.8989 -1.2860
17835TIP3   OH274995   3.534   6.518  11.623 -0.0425 -0.4867  0.1372
17835TIP3    H174996   3.582   6.476  11.551  0.7248  0.1644  0.2587
17835TIP3    H274997   3.520   6.447  11.686  1.2390 -0.5798  0.3398
17836TIP3   OH274998   2.695   4.136   2.167 -0.3475  0.0822  0.3075
17836TIP3    H174999   2.737   4.152   2.083 -0.4644 -1.1174  0.0008
17836TIP3    H275000   2.720   4.046   2.189  1.8964  1.1861  2.8550
17837TIP3   OH275001   1.949   3.663  16.447 -0.2767 -0.6365  0.0289
17837TIP3    H175002   1.992   3.712  16.378 -2.6472  0.4548 -0.7805
17837TIP3    H275003   1.936   3.726  16.518 -0.0295 -1.1044  0.5033
17838TIP3   OH275004   1.770   6.469   2.847  0.2933 -0.0880  0.7492
17838TIP3    H175005   1.717   6.410   2.793 -0.0162  0.6523  0.2282
17838TIP3    H275006   1.855   6.470   2.803  0.0672  0.4473  0.3067
17839TIP3   OH275007   4.422   1.502   2.911  0.3559 -0.1479 -0.2239
17839TIP3    H175008   4.381   1.469   2.831  1.1296 -0.2885 -0.5734
17839TIP3    H275009   4.502   1.449   2.920  2.2761  2.3361 -1.4338
17840TIP3   OH275010   5.725   0.245   6.416 -0.4730  0.3294  0.9823
17840TIP3    H175011   5.639   0.285   6.427 -0.0130  1.1527  1.6511
17840TIP3    H275012   5.706   0.154   6.391 -1.5223  0.8513 -0.2193
17841TIP3   OH275013   1.809   5.807   4.861  0.1867  0.2734  0.1021
17841TIP3    H175014   1.739   5.777   4.803 -0.2450 -0.8013  1.1428
17841TIP3    H275015   1.798   5.756   4.941  1.3083  1.0927  0.8155
17842TIP3   OH275016   0.507   3.287   5.562 -0.5844  0.1502 -0.5254
17842TIP3    H175017   0.436   3.252   5.508 -1.4513  0.3165  0.4816
17842TIP3    H275018   0.463   3.340   5.628  0.6372  2.6304 -1.5744
17843TIP3   OH275019   2.593   5.584   0.471  0.2985  0.1523  0.7099
17843TIP3    H175020   2.545   5.513   0.429  0.6864  1.4672 -2.1984
17843TIP3    H275021   2.664   5.541   0.518 -0.9277 -1.5014  1.1539
17844TIP3   OH275022   4.938   2.911   5.874 -0.3157 -0.6458  0.2592
17844TIP3    H175023   5.033   2.908   5.866 -0.3492 -0.5630 -0.1985
17844TIP3    H275024   4.906   2.918   5.784 -0.7460 -0.3641  0.4279
17845TIP3   OH275025   6.017   1.409   4.923 -0.2002 -0.3615 -0.3955
17845TIP3    H175026   5.933   1.443   4.953 -0.3142  0.2312 -1.3449
17845TIP3    H275027   6.075   1.419   4.998 -0.7912 -0.1137  0.0351
17846TIP3   OH275028   1.942   3.087  13.462 -0.0244  0.2996 -0.1692
17846TIP3    H175029   1.897   3.065  13.543  1.2942  1.3814  0.9040
17846TIP3    H275030   1.875   3.127  13.407 -0.8061  0.0866  0.6075
17847TIP3   OH275031   6.308   3.072   2.329 -0.2288 -0.3556 -0.2637
17847TIP3    H175032   6.345   3.160   2.327 -1.7052  0.7166  5.1105
17847TIP3    H275033   6.234   3.075   2.268  0.4819  1.7137 -1.0892
17848TIP3   OH275034   0.789   2.760  15.929  0.0231  0.5104  0.0407
17848TIP3    H175035   0.757   2.708  15.855 -1.0203  0.0964  0.7630
17848TIP3    H275036   0.734   2.733  16.002 -0.1113  2.1757  0.5888
17849TIP3   OH275037   1.145   3.472   1.057 -0.2664 -0.2477  0.2144
17849TIP3    H175038   1.063   3.508   1.090  0.3832  0.2981  1.2892
17849TIP3    H275039   1.213   3.524   1.100  0.6509 -0.8480 -0.4695
17850TIP3   OH275040   3.962   5.067  13.633  1.2108 -0.2773 -0.1607
17850TIP3    H175041   4.045   5.035  13.598  0.9780 -0.0751 -0.8985
17850TIP3    H275042   3.987   5.119  13.710  1.8482  0.5755 -0.9217
17851TIP3   OH275043   4.610   6.052  16.023  0.2116 -0.4598 -0.7625
17851TIP3    H175044   4.609   6.133  15.971 -0.8734 -0.4080 -0.6801
17851TIP3    H275045   4.558   5.990  15.972  0.8329 -1.0365 -0.7071
17852TIP3   OH275046   5.072   0.843   1.620  0.0020  0.0560  0.3913
17852TIP3    H175047   5.100   0.873   1.534  0.3130  1.0157  0.8158
17852TIP3    H275048   4.977   0.854   1.620 -0.2185 -1.5071 -0.4013
17853TIP3   OH275049   0.896   0.456   0.534 -0.0918  0.0277 -0.4712
17853TIP3    H175050   0.918   0.429   0.445  1.5824  0.0940 -0.1119
17853TIP3    H275051   0.800   0.461   0.534 -0.1210  0.3908 -2.3557
17854TIP3   OH275052   4.567   0.472  11.904 -0.6098  0.0629  0.3135
17854TIP3    H175053   4.478   0.447  11.930 -1.2858  0.7241 -1.2059
17854TIP3    H275054   4.562   0.567  11.894  0.5499  0.2296  1.1186
17855TIP3   OH275055   0.805   5.842  15.051  0.0836 -0.0338 -0.0305
17855TIP3    H175056   0.876   5.806  15.104 -1.3344 -1.6274  0.8772
17855TIP3    H275057   0.727   5.832  15.105 -1.6486 -2.7852 -2.7300
17856TIP3   OH275058   2.031   0.952   3.854  0.0926  0.2431 -0.1695
17856TIP3    H175059   2.023   0.874   3.910 -2.7361  2.2799  2.6130
17856TIP3    H275060   2.062   0.918   3.770  0.7261 -3.5985  1.4104
17857TIP3   OH275061   6.079   5.159   3.657  0.0157 -0.0417 -0.1367
17857TIP3    H175062   5.985   5.173   3.644  0.0063  1.5419  1.2069
17857TIP3    H275063   6.115   5.154   3.568 -1.1244  1.1487 -0.7045
17858TIP3   OH275064   6.046   0.476  16.749 -0.2950 -0.1442  0.2839
17858TIP3    H175065   6.017   0.552  16.800 -0.3135  0.2747 -0.3465
17858TIP3    H275066   5.972   0.455  16.692 -0.6091 -1.1561  1.0246
17859TIP3   OH275067   0.939   5.480  12.583 -0.3995  0.5053  0.0961
17859TIP3    H175068   1.012   5.504  12.641 -0.1594 -2.0463  0.9724
17859TIP3    H275069   0.862   5.481  12.640 -0.6460  0.7492 -0.2350
17860TIP3   OH275070   3.675   3.143  14.568  0.0950  0.3978  0.2496
17860TIP3    H175071   3.735   3.211  14.597  0.6697  1.2490 -2.6484
17860TIP3    H275072   3.590   3.169  14.602  0.1230  3.1613 -1.5191
17861TIP3   OH275073   1.826   3.741   4.915  0.1974  0.4727  0.7064
17861TIP3    H175074   1.826   3.822   4.967 -1.1924  0.7133  0.3891
17861TIP3    H275075   1.753   3.690   4.951 -0.3017  0.3145 -0.4826
17862TIP3   OH275076   1.250   5.415  16.101 -0.4390 -0.0652  0.0668
17862TIP3    H175077   1.252   5.328  16.061  1.2040 -0.2403  0.4433
17862TIP3    H275078   1.164   5.420  16.143 -1.0923 -0.9574 -1.1066
17863TIP3   OH275079   3.340   1.532  12.543 -0.3933  1.1599 -0.0141
17863TIP3    H175080   3.385   1.610  12.575 -0.9327  0.7989  1.7278
17863TIP3    H275081   3.247   1.552  12.550 -0.5348  0.4583  0.2311
17864TIP3   OH275082   4.273   0.962  11.282 -0.2138  0.0668 -0.2257
17864TIP3    H175083   4.277   0.868  11.302  1.6598  0.3598  1.0261
17864TIP3    H275084   4.190   0.973  11.237 -1.3536 -1.8853  1.2408
17865TIP3   OH275085   4.912   3.053  14.875  0.0080  0.5057 -0.3593
17865TIP3    H175086   4.948   2.965  14.868 -0.4890  0.4293 -2.4736
17865TIP3    H275087   4.839   3.045  14.937  0.0124 -0.5426 -0.4832
17866TIP3   OH275088   3.869   1.080   3.470  0.6873 -0.1424  0.1240
17866TIP3    H175089   3.819   1.062   3.550  0.1628  1.9470  0.3257
17866TIP3    H275090   3.896   0.994   3.439  0.2563 -1.0695  2.1313
17867TIP3   OH275091   6.108   0.918  12.499 -0.3761 -0.0433  0.3111
17867TIP3    H175092   6.130   0.878  12.415  0.4918  0.4211  0.3036
17867TIP3    H275093   6.192   0.929  12.543 -0.7634  0.2778  0.9921
17868TIP3   OH275094   5.398   0.407  16.521  0.0850 -0.6422 -0.4392
17868TIP3    H175095   5.329   0.348  16.551 -0.7331 -1.2524 -3.2762
17868TIP3    H275096   5.353   0.490  16.503  0.3469 -0.5966 -0.9122
17869TIP3   OH275097   3.753   5.447  15.188 -0.0240 -0.1455  0.1121
17869TIP3    H175098   3.711   5.458  15.103  1.7250 -3.6002 -1.4416
17869TIP3    H275099   3.691   5.395  15.239 -0.0815 -0.1616  0.0255
17870TIP3   OH275100   1.083   6.497  14.455 -0.7434  0.2069  0.0517
17870TIP3    H175101   0.999   6.451  14.449 -0.8590  0.2831  0.9662
17870TIP3    H275102   1.144   6.429  14.485 -0.8875  0.5990  1.2789
17871TIP3   OH275103   3.121   0.367  15.320  0.0861 -0.0894  0.0977
17871TIP3    H175104   3.128   0.458  15.348 -0.1428 -0.3923  1.1542
17871TIP3    H275105   3.145   0.369  15.227  0.3690  0.9972  0.1830
17872TIP3   OH275106   4.021   3.183  14.060 -0.5829  0.1680 -0.3748
17872TIP3    H175107   4.060   3.128  13.991 -0.5166  0.3006 -0.4416
17872TIP3    H275108   4.056   3.147  14.141  1.6177  1.7825 -0.5280
17873TIP3   OH275109   0.016   5.104  14.018 -0.0775  0.0537  0.2586
17873TIP3    H175110   0.013   5.080  14.111  1.9603  3.4191  1.3547
17873TIP3    H275111   0.076   5.041  13.979 -1.0650 -1.5011  1.1188
17874TIP3   OH275112   4.890   6.241  11.936 -0.2565  0.3164  0.0134
17874TIP3    H175113   4.806   6.197  11.927  0.0711 -0.0654 -1.5114
17874TIP3    H275114   4.924   6.245  11.846  2.1926 -1.2648  0.7687
17875TIP3   OH275115   4.181   2.177   1.025 -0.0840 -0.2350  0.0406
17875TIP3    H175116   4.255   2.207   0.971 -1.0776  1.6875 -0.3501
17875TIP3    H275117   4.114   2.153   0.961 -0.1769 -0.9263  0.3991
17876TIP3   OH275118   2.912   3.724   4.709  0.0818  0.2376 -0.2068
17876TIP3    H175119   2.937   3.786   4.641 -0.5622 -0.8662 -1.5077
17876TIP3    H275120   2.989   3.668   4.721  0.7052  1.3377  1.0557
17877TIP3   OH275121   2.537   5.290   2.480  0.3204 -0.1901 -0.0538
17877TIP3    H175122   2.548   5.364   2.421 -2.9001  0.6353  0.1881
17877TIP3    H275123   2.544   5.328   2.568  0.2141 -0.4502  0.0691
17878TIP3   OH275124   4.508   3.259   4.786  0.3068  0.1108 -0.3250
17878TIP3    H175125   4.448   3.333   4.793 -1.0277 -1.0635  1.7393
17878TIP3    H275126   4.499   3.228   4.696 -2.7436 -0.3913  0.0447
17879TIP3   OH275127   6.437   5.751  11.498 -0.0354  0.6568 -0.2061
17879TIP3    H175128   6.370   5.682  11.495  0.4964 -0.0252  1.7139
17879TIP3    H275129   6.509   5.717  11.444  0.0520 -0.1358  0.3854
17880TIP3   OH275130   2.013   6.233   3.469  0.4377  0.9541  0.5022
17880TIP3    H175131   2.022   6.313   3.417  1.7548  0.5974  0.1437
17880TIP3    H275132   1.930   6.196   3.441  0.3897  1.5744 -0.2166
17881TIP3   OH275133   0.380   1.391  14.974  0.4306  0.1546  0.2532
17881TIP3    H175134   0.435   1.446  14.918  0.0575 -0.3622 -0.6360
17881TIP3    H275135   0.313   1.451  15.007  0.1472  0.2834 -0.5434
17882TIP3   OH275136   5.961   2.834   4.687 -0.7809 -0.1090  0.3021
17882TIP3    H175137   5.909   2.888   4.747 -0.0779  1.5421 -0.5198
17882TIP3    H275138   6.007   2.897   4.632  0.5136 -1.5652 -0.3408
17883TIP3   OH275139   3.153   1.999   1.408 -0.0071 -0.4029  0.1347
17883TIP3    H175140   3.200   2.009   1.490 -2.3437  0.6550  1.4579
17883TIP3    H275141   3.184   1.916   1.372  0.1944 -1.5285  2.6969
17884TIP3   OH275142   4.549   4.778   1.366  0.4987  0.0688 -1.0500
17884TIP3    H175143   4.602   4.850   1.331 -1.1469  0.9942 -1.7489
17884TIP3    H275144   4.602   4.700   1.351  1.8000  0.9896 -1.4005
17885TIP3   OH275145   5.393   6.065  15.939 -0.0917 -0.1893  0.8396
17885TIP3    H175146   5.471   6.115  15.913  0.3969 -1.3497 -0.0449
17885TIP3    H275147   5.428   5.981  15.968 -1.0260 -0.9227 -0.0680
17886TIP3   OH275148   0.712   5.111  13.010  0.5219 -0.0240  0.2702
17886TIP3    H175149   0.792   5.163  13.001 -0.6034  1.7809  0.2968
17886TIP3    H275150   0.707   5.061  12.929  0.6042  1.4431 -0.6706
17887TIP3   OH275151   3.306   0.127   1.800 -0.2816  0.2828 -0.1090
17887TIP3    H175152   3.400   0.113   1.788 -0.1509 -1.3777  2.1205
17887TIP3    H275153   3.268   0.039   1.795 -1.5490  0.7878  0.2680
17888TIP3   OH275154   2.677   1.563   5.360 -0.0088 -0.1309  0.0896
17888TIP3    H175155   2.640   1.498   5.300  2.5164 -0.3506 -1.3557
17888TIP3    H275156   2.611   1.633   5.363 -2.0562 -1.9615  0.4209
17889TIP3   OH275157   2.538   0.701  16.557 -0.3558  0.0668 -0.3819
17889TIP3    H175158   2.476   0.727  16.489 -1.8802  0.7976  1.2110
17889TIP3    H275159   2.555   0.608  16.539 -1.9052 -0.1554 -0.8677
17890TIP3   OH275160   3.328   5.762  17.227 -0.1550  0.1436  0.1485
17890TIP3    H175161   3.283   5.800  17.303  0.6591  0.0242  0.6982
17890TIP3    H275162   3.265   5.699  17.192 -1.0368  1.1085 -0.0490
17891TIP3   OH275163   5.675   0.735   3.131  0.7356 -0.2874 -0.3457
17891TIP3    H175164   5.679   0.822   3.089 -0.1186 -0.0148  0.1187
17891TIP3    H275165   5.615   0.747   3.205 -1.2131 -1.7950 -1.5727
17892TIP3   OH275166   2.673   3.784  15.852 -0.2680  0.2835 -0.5404
17892TIP3    H175167   2.622   3.748  15.780  1.3245 -1.7416 -0.7238
17892TIP3    H275168   2.751   3.821  15.811 -0.0198  0.4215  0.0307
17893TIP3   OH275169   1.917   2.994  14.983 -0.0484 -0.3438  0.1388
17893TIP3    H175170   1.828   3.030  14.975 -0.1246 -0.4764  0.3861
17893TIP3    H275171   1.957   3.010  14.898 -0.2246 -0.0499  0.1111
17894TIP3   OH275172   0.091   2.573  14.282 -0.0831 -0.0103 -0.1867
17894TIP3    H175173   0.135   2.506  14.335  2.5513  0.1056 -2.0131
17894TIP3    H275174   0.091   2.537  14.193  0.8979  2.1184 -1.1201
17895TIP3   OH275175   6.256   5.030  11.670 -0.1846  0.1978  0.3306
17895TIP3    H175176   6.228   4.998  11.756 -0.6307 -0.9264 -0.2142
17895TIP3    H275177   6.350   5.009  11.667 -0.5484 -1.5642 -0.1870
17896TIP3   OH275178   4.775   6.761   4.276  0.7372  0.2332 -0.2808
17896TIP3    H175179   4.788   6.811   4.356 -0.2074 -1.3763  0.9272
17896TIP3    H275180   4.860   6.764   4.232  1.7978 -0.2522  1.6269
17897TIP3   OH275181   0.397   4.998   1.601  0.1218 -0.0449 -0.0640
17897TIP3    H175182   0.386   5.077   1.654  1.3959 -0.6835  1.2085
17897TIP3    H275183   0.342   4.933   1.645 -1.0374  0.1345 -1.1935
17898TIP3   OH275184   1.738   6.046   1.060 -0.0925  0.5370 -0.6761
17898TIP3    H175185   1.708   5.970   1.109  1.8905 -0.9130 -1.6089
17898TIP3    H275186   1.668   6.063   0.997 -0.7195 -0.2930 -0.2206
17899TIP3   OH275187   1.653   6.658   3.277 -0.2267 -0.2632  0.3842
17899TIP3    H175188   1.669   6.645   3.371  0.9297  0.6831  0.3383
17899TIP3    H275189   1.732   6.701   3.245 -1.0279  0.3542 -0.8277
17900TIP3   OH275190   2.785   6.784  12.000 -0.2368  0.1554  0.0536
17900TIP3    H175191   2.865   6.776  11.948  0.0469 -0.3318  0.5609
17900TIP3    H275192   2.813   6.772  12.091 -0.8870 -0.0096  0.2415
17901TIP3   OH275193   6.361   1.894  16.256 -0.1908  0.8472 -0.9789
17901TIP3    H175194   6.297   1.843  16.306 -1.2851  2.3870 -0.7376
17901TIP3    H275195   6.375   1.844  16.176 -0.3681 -0.3772 -0.2741
17902TIP3   OH275196   0.832   0.387  14.836 -0.1966  0.2902  0.0737
17902TIP3    H175197   0.827   0.294  14.815 -0.4253  0.2024  0.5155
17902TIP3    H275198   0.750   0.424  14.802 -0.3227  0.2445  0.3285
17903TIP3   OH275199   3.733   3.359   1.019  0.0918 -0.5177  0.0699
17903TIP3    H175200   3.795   3.431   1.007 -1.3697  0.5416 -1.7585
17903TIP3    H275201   3.704   3.367   1.110  1.4160 -0.0298  0.4608
17904TIP3   OH275202   6.297   5.249  13.693  0.4162  0.3029 -0.3134
17904TIP3    H175203   6.280   5.333  13.735 -0.7850 -0.0283 -0.0865
17904TIP3    H275204   6.287   5.184  13.763  0.4021 -0.0991 -0.6808
17905TIP3   OH275205   0.317   3.351  13.882  0.3121 -0.5388 -0.2916
17905TIP3    H175206   0.361   3.285  13.935 -1.2867 -0.3598  1.3686
17905TIP3    H275207   0.319   3.316  13.793  3.3894 -0.6849 -0.2632
17906TIP3   OH275208   5.400   6.188  16.220  0.3100 -0.4813  0.4619
17906TIP3    H175209   5.418   6.281  16.233 -0.7328 -0.2194  0.1153
17906TIP3    H275210   5.427   6.171  16.129  2.2113 -0.9712  1.0642
17907TIP3   OH275211   0.347   6.556   2.819 -0.7665 -0.0413 -0.3643
17907TIP3    H175212   0.303   6.627   2.772 -0.4593  0.9902  0.8713
17907TIP3    H275213   0.298   6.548   2.901 -0.5116 -0.9505 -0.2890
17908TIP3   OH275214   3.258   3.070   0.118 -0.1438  0.4364  0.5211
17908TIP3    H175215   3.342   3.117   0.120 -0.0963  0.5598 -1.8973
17908TIP3    H275216   3.192   3.140   0.124 -0.0855  0.4201  1.4341
17909TIP3   OH275217   6.218   2.385  12.414  0.4830 -0.3590  0.1826
17909TIP3    H175218   6.295   2.329  12.423  0.4301 -0.4849 -0.1376
17909TIP3    H275219   6.207   2.424  12.500  0.2487 -1.1913  0.5430
17910TIP3   OH275220   1.857   6.135  15.280  0.3654 -0.3761  0.0369
17910TIP3    H175221   1.904   6.053  15.262  1.8292  0.4147  0.0939
17910TIP3    H275222   1.795   6.112  15.348  0.2560 -1.6035 -0.4449
17911TIP3   OH275223   0.805   6.378  13.782  0.2078  0.0106 -0.4633
17911TIP3    H175224   0.796   6.408  13.692 -2.0534 -0.2230 -0.3713
17911TIP3    H275225   0.871   6.437  13.820  1.8536 -0.4333 -2.4296
17912TIP3   OH275226   2.710   2.160  16.879 -0.4791 -0.6372 -0.1676
17912TIP3    H175227   2.658   2.200  16.810  0.4211 -0.0586 -0.5137
17912TIP3    H275228   2.792   2.209  16.880  0.2338 -1.7994  0.0950
17913TIP3   OH275229   2.550   2.895   0.762  0.2278 -0.0211 -0.3671
17913TIP3    H175230   2.553   2.949   0.841 -1.5634 -0.2384 -0.1199
17913TIP3    H275231   2.528   2.807   0.794  0.2785 -0.2900 -1.0488
17914TIP3   OH275232   0.996   0.329  11.643 -0.2134  0.3306 -0.2723
17914TIP3    H175233   1.026   0.362  11.559  2.0604  1.6441  0.9350
17914TIP3    H275234   0.957   0.405  11.686  2.0515  0.7322  1.2470
17915TIP3   OH275235   1.947   5.482   2.312  0.0113 -0.0695 -0.2567
17915TIP3    H175236   1.974   5.568   2.279  2.5304 -0.8781 -0.4807
17915TIP3    H275237   1.876   5.502   2.374  0.1793  2.1174 -0.6825
17916TIP3   OH275238   3.739   1.094   3.696 -0.5026 -0.0482  0.2800
17916TIP3    H175239   3.654   1.131   3.721 -0.3091 -0.6325  1.9012
17916TIP3    H275240   3.799   1.123   3.764  1.2678  2.5057 -2.1309
17917TIP3   OH275241   0.508   3.435   2.072 -0.6023  0.1618  0.1498
17917TIP3    H175242   0.434   3.468   2.021 -1.3762  0.3338  1.3525
17917TIP3    H275243   0.548   3.514   2.109  0.7607  0.1631 -1.1837
17918TIP3   OH275244   1.560   2.819  14.196 -0.4280  0.1792  0.3384
17918TIP3    H175245   1.618   2.836  14.121 -0.5603  1.3989  0.4819
17918TIP3    H275246   1.472   2.816  14.158 -0.4467  0.3057  0.3691
17919TIP3   OH275247   5.046   2.352   1.779 -0.1914 -0.2610 -0.1014
17919TIP3    H175248   5.060   2.446   1.771 -0.7061 -0.2345 -0.8196
17919TIP3    H275249   5.121   2.312   1.735 -0.4022 -0.1702 -0.5516
17920TIP3   OH275250   2.232   3.000   1.223  0.0611 -0.3896  0.0852
17920TIP3    H175251   2.205   2.966   1.137 -0.6335 -0.2924  0.2633
17920TIP3    H275252   2.215   2.929   1.284 -2.7736  0.6778  0.7018
17921TIP3   OH275253   5.439   4.986  12.014  0.2247  0.5246  0.2788
17921TIP3    H175254   5.408   4.964  12.101  0.1247  2.4061  0.7586
17921TIP3    H275255   5.482   4.906  11.983 -1.0167 -0.6395  1.4386
17922TIP3   OH275256   0.533   1.787   0.889 -0.1930  0.2389  0.3707
17922TIP3    H175257   0.545   1.840   0.967  0.2836  2.8945 -1.3772
17922TIP3    H275258   0.616   1.740   0.878 -0.1838  0.0331  1.3151
17923TIP3   OH275259   0.756   1.638   0.850 -0.0381 -0.3404  0.6798
17923TIP3    H175260   0.844   1.635   0.812 -1.0487 -0.0962 -1.8412
17923TIP3    H275261   0.733   1.546   0.862  0.8278 -0.3998  2.1356
17924TIP3   OH275262   2.051   4.987   1.702  0.6365 -0.1434 -0.0548
17924TIP3    H175263   2.023   5.032   1.782  0.3867  2.1959 -1.3607
17924TIP3    H275264   2.146   4.996   1.701  0.7132 -0.8316  0.3173
17925TIP3   OH275265   0.437   5.185   3.888 -0.2602 -0.5409  0.3921
17925TIP3    H175266   0.520   5.156   3.850 -0.1744 -0.4884  0.5376
17925TIP3    H275267   0.430   5.277   3.864  0.4370 -0.1433  1.6073
17926TIP3   OH275268   1.042   4.083  12.237  0.6474 -0.8270  0.5607
17926TIP3    H175269   1.068   4.093  12.329  1.2036 -1.8849  0.5377
17926TIP3    H275270   1.030   3.988  12.226  0.1124 -0.6613 -0.3358
17927TIP3   OH275271   3.891   0.300  11.678 -0.3120 -0.2473 -0.1675
17927TIP3    H175272   3.945   0.367  11.720 -0.1677 -0.5961  0.2101
17927TIP3    H275273   3.816   0.289  11.737 -0.5498 -0.1203 -0.4404
17928TIP3   OH275274   6.627   3.694  11.094  0.3066 -0.0092  0.1447
17928TIP3    H175275   6.703   3.650  11.056  0.7543  2.1626 -1.6371
17928TIP3    H275276   6.565   3.702  11.022 -0.6176  0.4559  0.9671
17929TIP3   OH275277   5.605   3.738  15.397  0.0872  0.4004  0.8652
17929TIP3    H175278   5.542   3.697  15.457  1.0827  1.1042  2.4641
17929TIP3    H275279   5.634   3.817  15.443 -1.2411  2.5845 -1.8180
17930TIP3   OH275280   5.885   2.677  16.589 -0.1109  0.6707  0.0855
17930TIP3    H175281   5.938   2.611  16.632 -0.7842  0.1311  0.1166
17930TIP3    H275282   5.899   2.663  16.495 -0.1282  0.5884  0.0963
17931TIP3   OH275283   6.576   2.097   0.428 -0.2584 -0.2565  0.1421
17931TIP3    H175284   6.501   2.038   0.418  1.4048 -2.7872  1.4671
17931TIP3    H275285   6.622   2.091   0.344 -0.6062 -0.0235 -0.0724
17932TIP3   OH275286   5.641   4.320   4.277  0.1824 -0.3459 -0.9543
17932TIP3    H175287   5.685   4.311   4.362 -1.3506 -1.9228 -0.2610
17932TIP3    H275288   5.613   4.411   4.273 -1.2448 -0.6314  1.0669
17933TIP3   OH275289   1.748   5.772  15.861 -0.2590 -0.5860 -0.8199
17933TIP3    H175290   1.819   5.783  15.924 -0.9272  0.3520 -0.1941
17933TIP3    H275291   1.782   5.807  15.779  0.1870 -0.6410 -0.6592
17934TIP3   OH275292   1.133   0.182  11.145 -0.3141  0.2462  0.0595
17934TIP3    H175293   1.132   0.086  11.147  4.1501 -0.0317 -1.0723
17934TIP3    H275294   1.119   0.204  11.053  1.1548  0.4460 -0.1460
17935TIP3   OH275295   1.415   1.015  15.720  0.0780 -0.1249  0.1609
17935TIP3    H175296   1.427   0.945  15.655  0.5668 -0.5969  0.7482
17935TIP3    H275297   1.484   1.078  15.701 -0.0186 -0.0736 -0.0214
17936TIP3   OH275298   0.661   5.348  11.059  0.1343 -0.1733 -0.4433
17936TIP3    H175299   0.635   5.425  11.110 -0.6639  0.2546 -1.4557
17936TIP3    H275300   0.580   5.296  11.053  0.7932 -1.3916  0.7042
17937TIP3   OH275301   1.080   5.516   4.154 -0.3043 -0.4917 -0.7558
17937TIP3    H175302   1.161   5.525   4.203 -0.9563  0.6103  0.1794
17937TIP3    H275303   1.067   5.421   4.145  0.8906 -0.6803 -0.6175
17938TIP3   OH275304   2.367   4.412   1.866  0.3268 -0.2459  0.1015
17938TIP3    H175305   2.274   4.405   1.846  0.0717 -1.6938  1.5996
17938TIP3    H275306   2.405   4.331   1.833  0.4440 -1.1966  2.4152
17939TIP3   OH275307   1.105   5.215   3.561  0.2564  0.3240  0.4508
17939TIP3    H175308   1.101   5.144   3.497  1.0514  1.0339 -0.4082
17939TIP3    H275309   1.180   5.193   3.616 -0.2868 -0.1660  1.0050
17940TIP3   OH275310   4.769   6.423  14.445  0.0226 -0.0792  0.5112
17940TIP3    H175311   4.838   6.391  14.503  0.9494  0.8303 -0.0532
17940TIP3    H275312   4.721   6.344  14.418  0.8619 -0.7253  0.8820
17941TIP3   OH275313   1.754   6.585   4.842  0.2845 -0.0098  0.4842
17941TIP3    H175314   1.798   6.669   4.856 -0.9190  0.9418 -1.0042
17941TIP3    H275315   1.824   6.521   4.837  1.2665  0.9747  1.2023
17942TIP3   OH275316   3.707   5.000  12.884  0.3113  0.1268  0.3092
17942TIP3    H175317   3.720   4.973  12.793 -1.8892 -1.2445  0.3276
17942TIP3    H275318   3.658   5.083  12.877 -0.6127 -0.4115  0.2041
17943TIP3   OH275319   6.043   2.745   0.504  0.2641 -0.4089 -0.2541
17943TIP3    H175320   6.068   2.804   0.574  2.3459  0.8141 -1.9052
17943TIP3    H275321   6.118   2.687   0.493  0.6498  0.3857 -2.3757
17944TIP3   OH275322   6.005   6.799   1.279  0.1289 -0.1299 -0.5547
17944TIP3    H175323   6.065   6.797   1.353 -0.5486  0.3638  0.0261
17944TIP3    H275324   5.918   6.793   1.319 -0.2266 -0.5398 -1.3565
17945TIP3   OH275325   2.876   1.786   2.523 -0.6255 -0.1660  0.1597
17945TIP3    H175326   2.893   1.739   2.441 -1.2904 -1.5907  0.8151
17945TIP3    H275327   2.952   1.844   2.533 -0.3948 -0.1746 -1.2995
17946TIP3   OH275328   2.663   2.436  16.076 -0.6729  0.3896  0.3036
17946TIP3    H175329   2.621   2.480  16.002 -2.0576  0.0121  0.8279
17946TIP3    H275330   2.596   2.436  16.145 -0.0861 -0.9366  0.9126
17947TIP3   OH275331   0.544   2.720   2.165  0.2191  0.1393 -0.1047
17947TIP3    H175332   0.543   2.742   2.072 -0.1137 -1.0468 -0.4019
17947TIP3    H275333   0.583   2.796   2.207  1.7934  0.1016 -1.3826
17948TIP3   OH275334   3.498   2.921  11.431 -0.3625  0.4024  0.1229
17948TIP3    H175335   3.518   2.942  11.339  0.3051 -1.2428 -0.1403
17948TIP3    H275336   3.584   2.914  11.472 -0.6331  0.1736  0.6518
17949TIP3   OH275337   2.680   1.308  11.668 -0.0953 -0.0842  0.5196
17949TIP3    H175338   2.647   1.295  11.757 -0.6583 -2.3456  0.0464
17949TIP3    H275339   2.602   1.302  11.612  0.5436 -1.3972 -0.2972
17950TIP3   OH275340   1.298   2.112   3.507  0.3408 -0.0118  0.3753
17950TIP3    H175341   1.361   2.174   3.470  1.3014 -1.0615  0.2144
17950TIP3    H275342   1.289   2.139   3.599  0.0598  0.9018  0.0902
17951TIP3   OH275343   5.774   5.568  13.118  0.1331 -0.0694 -0.0180
17951TIP3    H175344   5.735   5.584  13.032 -0.4924 -3.2995 -0.4436
17951TIP3    H275345   5.699   5.548  13.175  0.6761  0.3166  0.8568
17952TIP3   OH275346   0.381   4.103   3.843 -0.4451  0.0884 -0.1024
17952TIP3    H175347   0.293   4.066   3.835  0.2220 -1.8802  0.8255
17952TIP3    H275348   0.425   4.046   3.907  2.2380 -0.4966 -2.2513
17953TIP3   OH275349   2.416   5.395  12.458  0.2382 -0.1218 -0.1062
17953TIP3    H175350   2.444   5.314  12.501  2.1863 -0.0784 -1.1292
17953TIP3    H275351   2.374   5.365  12.377 -3.3244 -0.2012  1.5944
17954TIP3   OH275352   4.701   1.728  11.790 -0.7138  0.3363  0.1428
17954TIP3    H175353   4.763   1.662  11.760  0.4549  1.1706  0.6285
17954TIP3    H275354   4.698   1.792  11.719  3.0396  2.9892  2.0005
17955TIP3   OH275355   0.652   0.747  14.284  0.0190 -0.5677 -0.5319
17955TIP3    H175356   0.660   0.775  14.375 -0.2984  0.2337 -0.7361
17955TIP3    H275357   0.725   0.687  14.270  1.2268  0.7828 -0.2800
17956TIP3   OH275358   0.084   2.512   3.977  0.0124 -0.1006  0.3608
17956TIP3    H175359   0.175   2.540   3.970  0.0412 -0.5548 -1.6958
17956TIP3    H275360   0.089   2.421   4.005  0.2364 -0.3303 -0.4041
17957TIP3   OH275361   1.120   3.455  13.998 -0.0523 -0.1049 -0.4500
17957TIP3    H175362   1.211   3.481  13.982 -0.2433  1.9513  1.3132
17957TIP3    H275363   1.068   3.518  13.948 -0.5092 -0.0987  0.0273
17958TIP3   OH275364   4.912   2.373  11.033 -0.6164 -0.4817  0.4483
17958TIP3    H175365   4.915   2.453  10.980  0.2802 -1.4773 -1.0477
17958TIP3    H275366   4.885   2.304  10.972 -3.9508 -0.9636  2.2388
17959TIP3   OH275367   1.917   3.385  13.102 -0.2590 -0.3719  0.5412
17959TIP3    H175368   1.988   3.431  13.056  0.3504 -0.2634  1.5616
17959TIP3    H275369   1.848   3.451  13.110 -0.7239 -0.6269 -0.9251
17960TIP3   OH275370   1.760   2.272   3.924  1.1280  0.2094 -0.0671
17960TIP3    H175371   1.767   2.177   3.936  0.3791  0.3379  1.5959
17960TIP3    H275372   1.694   2.283   3.856  0.6585 -0.4504  0.2729
17961TIP3   OH275373   3.672   0.412  14.923 -0.0687  0.1531  0.1348
17961TIP3    H175374   3.757   0.426  14.883 -0.0691  0.2659  0.1718
17961TIP3    H275375   3.687   0.347  14.991 -0.3695 -1.2393 -1.0813
17962TIP3   OH275376   0.304   2.225   4.775 -0.1868 -0.2194  0.0314
17962TIP3    H175377   0.276   2.139   4.808  0.5727  0.3766  2.4510
17962TIP3    H275378   0.293   2.284   4.850  0.1828  1.6293 -1.2980
17963TIP3   OH275379   4.353   3.321   3.515 -0.0940 -0.0975  0.0054
17963TIP3    H175380   4.263   3.323   3.481  0.3962 -1.5234 -1.4611
17963TIP3    H275381   4.368   3.230   3.538  0.3564  0.4547  2.1094
17964TIP3   OH275382   0.084   4.997  14.593  0.8620  0.2575  0.3929
17964TIP3    H175383   0.082   5.005  14.689  0.2310  0.8472  0.3417
17964TIP3    H275384   0.051   5.081  14.561  1.9320  0.4108 -0.3718
17965TIP3   OH275385   6.352   1.106  11.613  0.2485 -0.4348 -0.2227
17965TIP3    H175386   6.400   1.140  11.538  0.4132  1.4895  0.6791
17965TIP3    H275387   6.262   1.137  11.600  0.5171  0.9148  0.8876
17966TIP3   OH275388   3.341   5.492  10.666  0.3246 -0.2132 -0.4472
17966TIP3    H175389   3.318   5.570  10.616  2.0218  1.5997  1.3939
17966TIP3    H275390   3.426   5.465  10.632  0.0325 -0.9038 -0.6509
17967TIP3   OH275391   5.873   4.284   0.210 -0.7387 -0.2990  0.4909
17967TIP3    H175392   5.857   4.304   0.118 -1.6295 -0.4464  0.5977
17967TIP3    H275393   5.897   4.368   0.249 -2.0563  0.1229  0.4555
17968TIP3   OH275394   1.487   1.784   0.134 -0.4398  0.2052 -0.7971
17968TIP3    H175395   1.421   1.720   0.109 -0.0087 -1.5652  2.0553
17968TIP3    H275396   1.568   1.752   0.095 -0.8906  1.4911 -2.9465
17969TIP3   OH275397   2.198   2.754   3.019  0.7353 -0.1512  0.6476
17969TIP3    H175398   2.181   2.736   3.111 -0.1061 -0.3753  0.4594
17969TIP3    H275399   2.253   2.681   2.990  0.6767 -0.2876  0.8757
17970TIP3   OH275400   6.461   1.509  11.272 -0.0345 -0.4300 -0.0807
17970TIP3    H175401   6.443   1.447  11.201  0.1240  1.1017 -1.4989
17970TIP3    H275402   6.556   1.509  11.280  0.0115  0.2241 -0.6277
17971TIP3   OH275403   1.798   4.915  10.698 -0.0199  1.1494  0.2764
17971TIP3    H175404   1.723   4.971  10.719 -1.2642 -0.1453 -0.5515
17971TIP3    H275405   1.852   4.917  10.777 -0.9910  1.9943  0.9506
17972TIP3   OH275406   2.631   3.272  12.136 -0.1427  0.8536  0.3302
17972TIP3    H175407   2.716   3.235  12.159 -0.1138 -0.4307 -1.5862
17972TIP3    H275408   2.587   3.203  12.085 -1.4811  2.2262 -0.4982
17973TIP3   OH275409   4.997   4.150   0.435 -0.2642  0.7692  0.0852
17973TIP3    H175410   4.911   4.171   0.472 -0.5489 -2.8666  1.8597
17973TIP3    H275411   5.059   4.171   0.504 -0.2946 -1.2493  0.7828
17974TIP3   OH275412   3.633   1.673   3.979 -0.0969 -0.5350  0.0668
17974TIP3    H175413   3.629   1.580   3.958 -0.1065 -1.1493  2.4516
17974TIP3    H275414   3.554   1.689   4.030  0.5736  0.4208  0.8494
17975TIP3   OH275415   4.790   5.004  10.669 -0.0276 -0.2661 -0.2305
17975TIP3    H175416   4.779   5.061  10.593 -0.6745  0.8870  0.6886
17975TIP3    H275417   4.837   5.059  10.732 -1.7009 -0.3076  1.1195
17976TIP3   OH275418   6.184   0.394  12.465 -0.2290  0.0508  0.2962
17976TIP3    H175419   6.205   0.385  12.558  0.2354  0.8162  0.2697
17976TIP3    H275420   6.107   0.451  12.464  0.1403  0.5564  0.1873
17977TIP3   OH275421   3.930   6.278  15.063  0.5598  0.6105 -0.0939
17977TIP3    H175422   3.946   6.226  15.142 -0.8933  0.8724  0.4074
17977TIP3    H275423   3.998   6.345  15.065 -0.1133  1.2897  1.5535
17978TIP3   OH275424   1.819   4.400   5.060 -0.1286 -0.5252 -0.3154
17978TIP3    H175425   1.801   4.442   5.144 -0.6407 -0.0348 -0.6610
17978TIP3    H275426   1.838   4.473   5.000  1.0585 -0.9084 -0.4465
17979TIP3   OH275427   2.826   3.263   5.597  0.1811 -0.5232  0.4618
17979TIP3    H175428   2.791   3.349   5.619  0.5582 -0.5951  1.4121
17979TIP3    H275429   2.918   3.268   5.620  0.0505 -1.4033  1.2347
17980TIP3   OH275430   6.145   6.510  14.736 -0.0461  0.6396  0.7629
17980TIP3    H175431   6.202   6.521  14.660 -0.3538 -0.0318  0.4277
17980TIP3    H275432   6.119   6.600  14.759 -0.9646  0.7987 -0.7203
17981TIP3   OH275433   0.515   0.789  16.650 -0.7852 -0.1598 -0.5804
17981TIP3    H175434   0.524   0.863  16.711  0.5925 -0.2402 -0.6656
17981TIP3    H275435   0.442   0.738  16.686 -1.6453  1.1315 -0.4207
17982TIP3   OH275436   3.440   0.710  16.858  0.2986  0.0618  0.1615
17982TIP3    H175437   3.478   0.756  16.783  2.7297  0.1417  1.3299
17982TIP3    H275438   3.433   0.776  16.926 -0.2047 -0.3912  0.5594
17983TIP3   OH275439   3.140   3.645  16.993 -0.7787 -0.6173  0.4918
17983TIP3    H175440   3.058   3.692  16.977  0.2197  0.3123 -2.6649
17983TIP3    H275441   3.189   3.703  17.052 -1.2641  0.2630  0.0595
17984TIP3   OH275442   3.421   2.236   5.762  0.1194 -0.5939 -0.3853
17984TIP3    H175443   3.362   2.179   5.714 -0.5772 -1.0274  0.9319
17984TIP3    H275444   3.507   2.220   5.724 -0.1707 -2.0435 -0.4710
17985TIP3   OH275445   5.148   2.383  15.751  0.7394 -0.3836 -0.0411
17985TIP3    H175446   5.173   2.337  15.671 -1.3559 -0.2471 -0.8438
17985TIP3    H275447   5.167   2.475  15.733 -0.7223 -0.2113 -0.8514
17986TIP3   OH275448   4.953   2.153  10.812 -0.1193  0.3176  0.1796
17986TIP3    H175449   4.893   2.158  10.738  1.6618 -0.6453 -1.3885
17986TIP3    H275450   4.950   2.062  10.840  1.6476 -0.1176 -0.8826
17987TIP3   OH275451   5.211   4.571   1.758  0.3695  0.0342 -0.0777
17987TIP3    H175452   5.216   4.475   1.767 -0.7211 -0.1115 -0.8820
17987TIP3    H275453   5.265   4.604   1.831 -0.1211 -1.1784  0.8749
17988TIP3   OH275454   0.527   3.370   6.033 -0.0718  0.2912  0.4538
17988TIP3    H175455   0.470   3.403   6.102  0.4182  1.1394  0.4638
17988TIP3    H275456   0.583   3.444   6.010  1.9463 -0.8611  1.3654
17989TIP3   OH275457   2.320   3.148  16.517 -0.1612 -0.4280  0.1515
17989TIP3    H175458   2.226   3.132  16.527 -0.2619  0.1331  0.1102
17989TIP3    H275459   2.331   3.240  16.537  0.7336 -1.0021  2.6754
17990TIP3   OH275460   6.663   4.645   0.610  0.0589 -0.1055  0.2155
17990TIP3    H175461   6.588   4.637   0.669  0.8589 -0.4374  1.2168
17990TIP3    H275462   6.692   4.736   0.621 -0.1488  0.0019 -0.1173
17991TIP3   OH275463   6.467   5.714  13.375 -0.2318  0.5108 -0.3355
17991TIP3    H175464   6.536   5.648  13.372  0.5253  1.2026  0.8389
17991TIP3    H275465   6.495   5.780  13.312 -0.7056 -0.0061 -1.1025
17992TIP3   OH275466   0.707   6.270   3.564  0.7452  0.4377  0.9781
17992TIP3    H175467   0.637   6.206   3.573  0.5693  0.7772  2.1865
17992TIP3    H275468   0.666   6.345   3.521  0.8863 -0.1233 -0.1857
17993TIP3   OH275469   5.266   1.886  16.629 -0.3934 -0.2303 -0.2340
17993TIP3    H175470   5.340   1.902  16.688 -0.9855 -0.5738  0.6172
17993TIP3    H275471   5.306   1.864  16.546  0.5654 -3.3841  0.9232
17994TIP3   OH275472   1.335   3.065  16.741  0.2111  0.2279  0.4157
17994TIP3    H175473   1.334   3.022  16.656  0.8071  0.3661  0.3348
17994TIP3    H275474   1.264   3.129  16.737  0.8672  0.9288 -0.3412
17995TIP3   OH275475   6.640   0.750   0.339 -0.6171  0.5862 -0.4481
17995TIP3    H175476   6.629   0.661   0.305  2.1691  1.1746 -3.3311
17995TIP3    H275477   6.600   0.806   0.273 -1.0504  1.5919  0.6245
17996TIP3   OH275478   2.804   2.307  13.159  0.2861 -0.4765  0.3977
17996TIP3    H175479   2.831   2.273  13.244  1.3075  0.9336  0.6630
17996TIP3    H275480   2.882   2.302  13.105  0.0455  0.0589 -0.0057
17997TIP3   OH275481   2.421   5.435  10.670  0.3073 -0.1246  0.3439
17997TIP3    H175482   2.419   5.454  10.576  1.1742 -3.4287 -0.4684
17997TIP3    H275483   2.512   5.411  10.687 -0.1924 -1.1365  1.6699
17998TIP3   OH275484   2.595   5.217  11.810  0.2137 -0.2595  0.3909
17998TIP3    H175485   2.663   5.274  11.773 -0.2704 -0.4863 -0.9022
17998TIP3    H275486   2.630   5.190  11.894  0.6408  1.6312  0.8782
17999TIP3   OH275487   2.706   0.494  15.293 -0.2481  0.0883  0.8595
17999TIP3    H175488   2.637   0.538  15.244 -0.4217 -1.6178 -0.5246
17999TIP3    H275489   2.669   0.482  15.380 -0.8054  1.1871  0.7934
18000TIP3   OH275490   0.113   6.283  11.682  0.3031  0.2447  0.4617
18000TIP3    H175491   0.046   6.280  11.751  1.0611 -0.2806  1.1854
18000TIP3    H275492   0.138   6.192  11.669  1.6568  0.5294  0.9718
18001TIP3   OH275493   1.618   4.607   0.758 -0.1251  0.1823 -0.2256
18001TIP3    H175494   1.585   4.521   0.785  0.9801 -1.2578 -2.9656
18001TIP3    H275495   1.710   4.606   0.783 -0.2018  0.7393  0.0851
18002TIP3   OH275496   4.110   0.148   2.850  0.0991  0.0770 -0.4041
18002TIP3    H175497   4.106   0.217   2.784  0.3192  0.7627  0.2921
18002TIP3    H275498   4.162   0.185   2.921  0.6745 -0.9986 -0.2404
18003TIP3   OH275499   1.221   3.578   5.916 -0.1269  0.6225  0.2465
18003TIP3    H175500   1.241   3.547   6.004  0.0619 -1.3445 -0.4371
18003TIP3    H275501   1.305   3.578   5.871 -0.2813  1.2422 -0.0542
18004TIP3   OH275502   3.929   6.575  11.075 -0.2919  0.3734 -0.6581
18004TIP3    H175503   3.848   6.601  11.031 -1.6213 -1.1618  0.7542
18004TIP3    H275504   3.948   6.488  11.040 -1.9680 -1.3627  2.3381
18005TIP3   OH275505   5.380   1.893   5.627  0.1907  0.0912 -0.0285
18005TIP3    H175506   5.438   1.843   5.684  0.7716  0.2783 -0.4390
18005TIP3    H275507   5.434   1.967   5.598  0.6818 -1.1271 -2.5497
18006TIP3   OH275508   6.449   2.469   5.964  0.4576  0.2308  0.3514
18006TIP3    H175509   6.445   2.462   5.869  1.2824  1.3158  0.2179
18006TIP3    H275510   6.443   2.563   5.981 -2.5587 -0.0794  1.5429
18007TIP3   OH275511   4.909   1.521   4.733  0.1746 -0.2384  0.1783
18007TIP3    H175512   4.948   1.490   4.651  0.1811 -2.3213  0.9206
18007TIP3    H275513   4.876   1.442   4.775 -2.2935  1.0970  0.9346
18008TIP3   OH275514   6.811   6.116  16.045  0.1543 -0.4921 -0.3045
18008TIP3    H175515   6.899   6.149  16.027  0.0380 -0.0333 -0.0384
18008TIP3    H275516   6.822   6.020  16.045  0.5427 -0.4527 -0.8046
18009TIP3   OH275517   5.031   6.590  16.789  0.5031  0.0516 -0.4517
18009TIP3    H175518   5.047   6.610  16.881 -1.2045 -0.9101  0.0816
18009TIP3    H275519   5.062   6.500  16.779  1.9236  0.5824 -1.1902
18010TIP3   OH275520   1.873   1.973   5.584 -0.0150 -0.0674 -0.2118
18010TIP3    H175521   1.948   1.989   5.527 -0.1547 -0.8246 -0.6312
18010TIP3    H275522   1.904   1.906   5.645  0.2263  0.9436  0.8118
18011TIP3   OH275523   6.265   0.969   2.548  0.6204  0.1133 -0.7623
18011TIP3    H175524   6.213   0.956   2.628  0.1871 -1.9803 -1.3316
18011TIP3    H275525   6.347   0.922   2.565  0.8553  0.3452 -1.2427
18012TIP3   OH275526   4.673   5.166  12.295  0.2963 -0.5775  0.3490
18012TIP3    H175527   4.733   5.229  12.335 -1.6954  2.0062 -0.4241
18012TIP3    H275528   4.672   5.191  12.202 -1.8819 -0.5477  0.3328
18013TIP3   OH275529   1.564   1.685  11.178  0.2483  0.1107 -0.3424
18013TIP3    H175530   1.590   1.665  11.087  0.9642  0.2384 -0.1735
18013TIP3    H275531   1.470   1.700  11.173  0.6014  2.3533 -1.4743
18014TIP3   OH275532   3.655   3.324  12.193  0.4327 -0.2650  0.4083
18014TIP3    H175533   3.622   3.247  12.239  0.5065 -0.0345  0.8553
18014TIP3    H275534   3.660   3.392  12.261  1.0575 -0.0697  0.1724
18015TIP3   OH275535   6.278   3.131   1.984 -0.4546  0.0375 -0.1456
18015TIP3    H175536   6.317   3.217   2.000  1.4282 -0.6437 -0.8041
18015TIP3    H275537   6.291   3.083   2.066 -0.9065  0.1472 -0.0046
18016TIP3   OH275538   5.277   4.327  17.097 -0.1905  0.3254 -0.1961
18016TIP3    H175539   5.329   4.270  17.154  0.4177  0.4600 -0.6037
18016TIP3    H275540   5.276   4.411  17.141 -0.8522  0.0839  0.2667
18017TIP3   OH275541   1.663   4.943  15.197 -0.0743  0.6680  0.5814
18017TIP3    H175542   1.676   5.037  15.192  0.1388  0.5909 -0.5081
18017TIP3    H275543   1.648   4.926  15.290 -3.5651  2.2416  0.4602
18018TIP3   OH275544   3.143   1.844  16.178  0.0311  0.3028  0.0474
18018TIP3    H175545   3.201   1.774  16.147 -0.6521  0.4821 -1.7366
18018TIP3    H275546   3.202   1.907  16.219  1.0306  0.1489 -1.0887
18019TIP3   OH275547   2.573   0.763   3.788  0.0014  0.2303  0.6441
18019TIP3    H175548   2.566   0.850   3.750 -0.2543  0.3202  0.8936
18019TIP3    H275549   2.590   0.705   3.714  3.2318  0.8579  0.7372
18020TIP3   OH275550   5.879   3.049   3.057 -0.0862 -0.1207  1.0041
18020TIP3    H175551   5.964   3.026   3.020 -0.6249 -0.2725 -0.1624
18020TIP3    H275552   5.889   3.141   3.083  0.1541  0.1292  0.0532
18021TIP3   OH275553   2.859   1.401  12.112 -0.2175 -0.2875  0.1603
18021TIP3    H175554   2.813   1.340  12.168  0.4187  0.6332  1.7485
18021TIP3    H275555   2.911   1.454  12.172 -0.4215  1.5293 -1.1945
18022TIP3   OH275556   4.501   5.314   4.481  0.5047 -0.0588 -0.6511
18022TIP3    H175557   4.512   5.349   4.393  1.4160 -0.7587 -0.8323
18022TIP3    H275558   4.554   5.235   4.482  1.1977  0.3825  0.7785
18023TIP3   OH275559   0.360   6.339   2.050  0.1648  0.7781  0.0524
18023TIP3    H175560   0.359   6.399   1.976 -0.0242  1.9339  0.9708
18023TIP3    H275561   0.268   6.315   2.063  0.2259  0.3703 -0.2322
18024TIP3   OH275562   3.148   0.666  12.856  0.4203 -0.7456  0.0689
18024TIP3    H175563   3.195   0.688  12.936  1.2681  0.2126 -0.6593
18024TIP3    H275564   3.180   0.729  12.791 -0.6195 -1.1692 -0.8974
18025TIP3   OH275565   3.277   0.772  14.304 -0.1520  1.0979 -0.3958
18025TIP3    H175566   3.334   0.701  14.334 -1.4678  0.3596  0.4811
18025TIP3    H275567   3.336   0.845  14.288  0.8974  0.8216  1.8543
18026TIP3   OH275568   3.577   1.110   4.330 -0.2368  0.4727  0.6282
18026TIP3    H175569   3.529   1.042   4.377 -0.4595  1.4757  1.9529
18026TIP3    H275570   3.540   1.111   4.242 -1.0021 -0.3441  0.9332
18027TIP3   OH275571   5.107   6.107  11.409 -0.2500 -0.5357 -0.3488
18027TIP3    H175572   5.109   6.196  11.374  0.1705  0.8880  2.9501
18027TIP3    H275573   5.014   6.085  11.413 -0.5310  0.7067  0.8030
18028TIP3   OH275574   1.006   4.683   3.771  0.0393 -0.3932 -0.1857
18028TIP3    H175575   1.094   4.693   3.736  0.8582 -0.3976  1.7493
18028TIP3    H275576   0.952   4.658   3.695  2.1119 -2.6138 -1.0390
18029TIP3   OH275577   1.747   1.018   2.446  0.4032 -0.0214  0.6161
18029TIP3    H175578   1.772   0.927   2.462 -2.0118 -0.6735  1.0911
18029TIP3    H275579   1.828   1.061   2.418  1.6011 -2.3016  0.3694
18030TIP3   OH275580   2.877   3.163  10.364 -0.5125  0.4368  0.2260
18030TIP3    H175581   2.849   3.168  10.272 -0.7690 -1.8411  0.1376
18030TIP3    H275582   2.800   3.190  10.414 -0.9435 -0.0326 -0.1773
18031TIP3   OH275583   2.916   4.672  15.794 -0.5306 -0.2324 -0.0020
18031TIP3    H175584   2.960   4.739  15.846 -0.3201 -0.0329 -0.4313
18031TIP3    H275585   2.924   4.592  15.846  1.0269 -0.3816 -0.4067
18032TIP3   OH275586   5.606   4.716  16.533 -0.0458 -0.2521 -0.2017
18032TIP3    H175587   5.555   4.727  16.613  0.6750 -0.9272  0.3761
18032TIP3    H275588   5.583   4.791  16.479 -1.0959 -0.1685  0.3357
18033TIP3   OH275589   2.839   2.977   3.615 -0.2067 -0.7830  0.5489
18033TIP3    H175590   2.905   2.917   3.581 -1.0574 -0.8108 -1.1530
18033TIP3    H275591   2.839   3.051   3.554  0.0364  0.4410  1.9806
18034TIP3   OH275592   4.280   5.214   6.348  0.2154 -0.2583  0.1040
18034TIP3    H175593   4.360   5.175   6.312  1.1546  2.6262 -1.3169
18034TIP3    H275594   4.261   5.163   6.426  0.8121 -3.9224 -1.9371
18035TIP3   OH275595   4.842   3.231  17.055 -0.6539  0.1226 -0.3994
18035TIP3    H175596   4.907   3.208  16.989  0.0427 -2.0535  0.9563
18035TIP3    H275597   4.787   3.297  17.012  0.4096 -0.4124 -2.7394
18036TIP3   OH275598   4.558   5.464  16.926 -0.0880 -0.6125  0.7479
18036TIP3    H175599   4.467   5.437  16.937 -0.7217  1.7127  1.7651
18036TIP3    H275600   4.562   5.498  16.837 -0.2626 -0.4897  0.7887
18037TIP3   OH275601   6.342   3.439   1.058 -0.5624  0.0280  0.0834
18037TIP3    H175602   6.326   3.532   1.040 -1.3207 -0.0222  0.4650
18037TIP3    H275603   6.347   3.433   1.153 -0.3568 -0.2979  0.0546
18038TIP3   OH275604   6.752   6.765   0.761  0.4737  0.0171  0.2815
18038TIP3    H175605   6.789   6.769   0.673 -1.8964 -0.8920 -0.8329
18038TIP3    H275606   6.744   6.671   0.780 -1.1346  0.1601  0.4838
18039TIP3   OH275607   1.307   4.490   4.830  0.7456 -0.1155  0.3254
18039TIP3    H175608   1.384   4.440   4.858 -0.1374 -1.0292  1.1601
18039TIP3    H275609   1.278   4.536   4.909  0.9953  1.0286 -0.2167
18040TIP3   OH275610   0.912   5.440  14.471  0.0699  0.1659  0.0786
18040TIP3    H175611   0.941   5.363  14.421 -0.3473 -0.4694  0.8026
18040TIP3    H275612   0.981   5.452  14.537  0.0365  0.2946  0.0892
18041TIP3   OH275613   2.702   4.415  14.712 -0.8852 -0.6481  0.2977
18041TIP3    H175614   2.714   4.369  14.795 -2.2780  1.4358  1.7343
18041TIP3    H275615   2.743   4.500  14.724 -3.1586  0.6178 -0.2200
18042TIP3   OH275616   5.235   6.660   0.847 -0.4192 -0.1208 -0.3524
18042TIP3    H175617   5.249   6.743   0.892  0.3293  0.3556 -1.4020
18042TIP3    H275618   5.271   6.675   0.759  0.4161 -1.7840 -0.3368
18043TIP3   OH275619   2.373   6.221   3.680  0.2932  0.4376 -0.6110
18043TIP3    H175620   2.393   6.191   3.769 -0.3376  1.4854 -0.0928
18043TIP3    H275621   2.417   6.306   3.672 -0.4720  0.8210 -0.9235
18044TIP3   OH275622   5.131   1.149  11.975  0.3498  0.2590  0.3460
18044TIP3    H175623   5.120   1.242  11.956  0.2152 -0.2319 -2.2702
18044TIP3    H275624   5.225   1.139  11.993  0.2857  0.9486  1.1180
18045TIP3   OH275625   3.628   1.548   2.009 -0.6746  0.1972  0.3843
18045TIP3    H175626   3.536   1.563   1.986  0.0781  2.0835 -1.8359
18045TIP3    H275627   3.645   1.458   1.982 -1.7149  0.0412  0.1947
18046TIP3   OH275628   0.049   3.334  13.870  0.3676 -0.4686 -0.2556
18046TIP3    H175629   0.144   3.343  13.862  0.1786  2.1445 -0.4301
18046TIP3    H275630   0.015   3.357  13.783 -0.4720  0.0271  0.1852
18047TIP3   OH275631   4.039   0.662  15.533 -0.2893  0.3726 -0.2607
18047TIP3    H175632   4.030   0.605  15.609  2.4695  2.1408  1.5259
18047TIP3    H275633   4.108   0.621  15.481 -0.0494  0.7780 -0.2593
18048TIP3   OH275634   4.378   6.562  11.985 -0.4681  0.0022  0.5703
18048TIP3    H175635   4.355   6.519  11.903  1.4116  0.9449 -0.4973
18048TIP3    H275636   4.424   6.495  12.035 -0.1727 -0.1064  0.1564
18049TIP3   OH275637   0.106   0.507   5.354  0.2725 -0.3373 -0.2142
18049TIP3    H175638   0.043   0.488   5.424  0.5042 -0.6771 -0.0950
18049TIP3    H275639   0.052   0.530   5.279  0.0109 -0.4051 -0.0501
18050TIP3   OH275640   5.678   2.115  11.947 -0.2113 -0.0753 -0.4604
18050TIP3    H175641   5.694   2.024  11.972  0.6078  0.4188  0.9582
18050TIP3    H275642   5.752   2.138  11.890 -0.8850 -0.5374 -1.5485
18051TIP3   OH275643   3.059   6.423   5.454  0.3030 -0.3800 -0.4806
18051TIP3    H175644   3.116   6.347   5.464  0.1743 -0.3379  0.7188
18051TIP3    H275645   3.104   6.493   5.501 -0.2918 -0.1074 -0.3092
18052TIP3   OH275646   3.672   6.617  15.159  0.1700  0.3203  0.5195
18052TIP3    H175647   3.599   6.657  15.205 -1.5462 -0.6791 -1.2046
18052TIP3    H275648   3.663   6.646  15.068  2.4166  0.8099  0.3884
18053TIP3   OH275649   0.425   0.741   3.239  0.0077 -0.5496  0.0967
18053TIP3    H175650   0.495   0.719   3.300  2.5888 -1.8037 -2.9975
18053TIP3    H275651   0.374   0.660   3.232 -0.1780 -0.4629  0.4226
18054TIP3   OH275652   6.616   2.742  15.141 -0.0894 -0.2773 -0.1369
18054TIP3    H175653   6.627   2.664  15.086  0.2815  1.1945 -2.2687
18054TIP3    H275654   6.664   2.811  15.095  0.1988  1.0858  2.0460
18055TIP3   OH275655   0.096   2.209  17.252 -0.1988 -0.0385 -0.0047
18055TIP3    H175656   0.118   2.189  17.161  0.3668  2.2589 -0.4351
18055TIP3    H275657   0.001   2.212  17.253 -0.2227 -0.4142 -0.4310
18056TIP3   OH275658   5.529   5.402  12.203  1.1959 -0.1651  0.0553
18056TIP3    H175659   5.578   5.342  12.258 -0.3655 -1.2723  0.3219
18056TIP3    H275660   5.546   5.372  12.113  1.5723 -0.0888  0.1022
18057TIP3   OH275661   0.296   3.481  15.488  0.2088 -0.0915  0.3659
18057TIP3    H175662   0.315   3.561  15.439 -1.9794 -0.3813 -1.1142
18057TIP3    H275663   0.303   3.411  15.423  0.1109 -0.8532  1.1540
18058TIP3   OH275664   0.560   4.711   0.366 -0.0946  0.3027  0.3620
18058TIP3    H175665   0.578   4.804   0.354 -0.5274  0.5405  1.3924
18058TIP3    H275666   0.465   4.706   0.373 -0.3019 -0.5456 -2.0691
18059TIP3   OH275667   5.593   6.296   1.875  0.0627 -0.0328  0.0215
18059TIP3    H175668   5.617   6.205   1.859  0.5691  0.2648 -0.9927
18059TIP3    H275669   5.634   6.318   1.959 -1.2225 -1.1286  0.9863
18060TIP3   OH275670   5.074   2.978   3.279 -0.7910  0.7001  0.0223
18060TIP3    H175671   5.085   3.066   3.241 -0.4712  0.0611 -1.4546
18060TIP3    H275672   5.112   2.920   3.214 -0.7384 -0.5242  1.1232
18061TIP3   OH275673   4.331   1.997  14.436  0.0417 -0.0172 -0.1943
18061TIP3    H175674   4.400   1.989  14.370  0.4571  0.9546  0.1103
18061TIP3    H275675   4.250   1.980  14.388  0.4848 -1.3532 -0.5173
18062TIP3   OH275676   1.568   0.411  14.374  0.0654 -0.5383  0.1354
18062TIP3    H175677   1.596   0.351  14.444 -1.0403 -0.9662  0.2295
18062TIP3    H275678   1.553   0.354  14.299 -0.9952 -0.4048  0.2268
18063TIP3   OH275679   3.981   5.805   5.850  0.1550  0.7657 -0.5365
18063TIP3    H175680   3.905   5.818   5.907 -0.5368 -2.0535 -0.6638
18063TIP3    H275681   4.056   5.826   5.904 -0.5363 -0.6928  1.0705
18064TIP3   OH275682   3.690   3.117   1.842  0.0195 -0.4133 -0.2367
18064TIP3    H175683   3.614   3.142   1.894  0.0907 -1.6981  0.5413
18064TIP3    H275684   3.760   3.174   1.873 -0.1757 -0.5144  0.4098
18065TIP3   OH275685   5.872   5.406  15.574  0.2229 -0.4781  0.3109
18065TIP3    H175686   5.951   5.444  15.535 -0.9254 -0.1418 -1.8181
18065TIP3    H275687   5.801   5.435  15.519 -1.7236  0.7431  3.2173
18066TIP3   OH275688   1.980   4.652  16.620 -0.5223 -0.0715  0.0232
18066TIP3    H175689   1.960   4.559  16.629  0.7884 -0.2418  1.6041
18066TIP3    H275690   1.898   4.692  16.592 -1.8331 -1.3401  1.8665
18067TIP3   OH275691   3.455   3.569   2.417  0.6297  0.1483  0.4184
18067TIP3    H175692   3.406   3.651   2.422  0.8588  0.3091  0.0217
18067TIP3    H275693   3.435   3.524   2.500  1.0562  0.9144  0.9477
18068TIP3   OH275694   5.027   2.935   1.650 -0.0984  0.2095  0.1303
18068TIP3    H175695   5.119   2.925   1.625  0.8026  0.9430  2.8244
18068TIP3    H275696   5.007   2.857   1.701 -0.8304  0.3263  0.0403
18069TIP3   OH275697   2.476   3.232   1.568 -0.1259  0.4434  0.0657
18069TIP3    H175698   2.456   3.173   1.641 -0.1596 -0.2811 -0.5165
18069TIP3    H275699   2.395   3.281   1.553 -0.8475 -0.9749 -0.9027
18070TIP3   OH275700   2.437   0.030  16.711  0.0988  0.3747 -0.0928
18070TIP3    H175701   2.360   0.047  16.764  0.0938  0.9356 -0.2734
18070TIP3    H275702   2.413   0.058  16.623  0.2851 -0.0649 -0.2870
18071TIP3   OH275703   3.234   0.422   3.264  0.4172  0.3034 -0.3407
18071TIP3    H175704   3.200   0.445   3.351 -1.8263 -1.5729 -0.6051
18071TIP3    H275705   3.323   0.392   3.280  0.0370 -0.0407  1.3293
18072TIP3   OH275706   5.477   2.263  12.924  0.1473 -0.1927 -0.0193
18072TIP3    H175707   5.490   2.335  12.863  1.5222 -0.1964  0.2285
18072TIP3    H275708   5.480   2.184  12.870  2.3503 -0.2595  0.1106
18073TIP3   OH275709   0.104   4.205  15.849 -0.4047 -0.4236 -0.1458
18073TIP3    H175710   0.034   4.190  15.913 -0.3355  0.3440  0.1100
18073TIP3    H275711   0.084   4.143  15.779 -1.5069 -0.0277 -0.2068
18074TIP3   OH275712   0.476   4.914  15.232 -0.1508  0.0361  0.9409
18074TIP3    H175713   0.556   4.875  15.264 -0.6920 -0.9246  1.1396
18074TIP3    H275714   0.411   4.844  15.235  0.0768 -0.6869 -3.6526
18075TIP3   OH275715   1.431   3.947  12.423 -0.4008  0.0307  0.5436
18075TIP3    H175716   1.425   4.043  12.420 -1.6663 -0.0607 -0.8426
18075TIP3    H275717   1.525   3.929  12.428 -0.1360  1.3350  0.5929
18076TIP3   OH275718   6.460   0.733   0.954 -0.5063  0.8773 -0.2267
18076TIP3    H175719   6.540   0.707   0.908 -1.6564 -2.4415 -0.6029
18076TIP3    H275720   6.407   0.777   0.887 -0.2160  0.3681 -0.8005
18077TIP3   OH275721   3.701   0.345   3.451  0.6472  0.1000  0.1800
18077TIP3    H175722   3.793   0.318   3.449  1.7870  3.4217  1.2461
18077TIP3    H275723   3.666   0.306   3.532  0.6105 -2.2919 -0.8905
18078TIP3   OH275724   5.840   2.405   2.900 -0.2605 -0.3980 -0.0369
18078TIP3    H175725   5.791   2.328   2.871 -1.0101  0.8732 -2.4349
18078TIP3    H275726   5.888   2.433   2.822 -0.2960  1.7702  0.6545
18079TIP3   OH275727   5.140   6.572  11.661 -0.5937 -0.3403 -0.4745
18079TIP3    H175728   5.194   6.642  11.697 -0.0798 -0.4840 -0.9611
18079TIP3    H275729   5.051   6.606  11.667 -0.4658 -0.1310  0.4028
18080TIP3   OH275730   0.178   3.450  10.695 -0.3096  0.7372  1.1017
18080TIP3    H175731   0.195   3.532  10.650 -0.9232 -0.2528 -1.0539
18080TIP3    H275732   0.085   3.433  10.679  0.0929 -1.0042  0.3340
18081TIP3   OH275733   5.980   6.442   3.874  0.0913 -0.4589 -0.3384
18081TIP3    H175734   5.936   6.366   3.836  0.3543 -0.3849 -0.8016
18081TIP3    H275735   6.050   6.405   3.928 -0.2220 -0.5618  0.0030
18082TIP3   OH275736   0.617   4.580  13.382  0.0990 -0.4730 -0.0919
18082TIP3    H175737   0.646   4.573  13.291 -0.4980  2.2524 -0.5653
18082TIP3    H275738   0.524   4.598  13.376  0.3331  1.2783  0.9491
18083TIP3   OH275739   6.096   4.628  16.616 -0.2327 -0.4185  0.7277
18083TIP3    H175740   6.149   4.638  16.537 -2.3046 -0.1130 -0.7163
18083TIP3    H275741   6.140   4.561  16.667  0.8183 -1.0977 -1.0004
18084TIP3   OH275742   0.863   5.475   1.389 -0.0988 -0.1656  0.2250
18084TIP3    H175743   0.788   5.434   1.346 -0.9697 -1.0051  2.3769
18084TIP3    H275744   0.927   5.404   1.399 -0.5704 -0.4060  1.7039
18085TIP3   OH275745   3.641   3.828   4.365  0.3556  0.1265 -0.7154
18085TIP3    H175746   3.596   3.796   4.443  0.7769 -1.2144 -0.9991
18085TIP3    H275747   3.572   3.870   4.313 -0.0186  0.5779  0.1328
18086TIP3   OH275748   0.587   4.875  15.578 -1.0736  0.2418  0.8878
18086TIP3    H175749   0.632   4.950  15.615  0.3119 -0.0461 -0.1531
18086TIP3    H275750   0.640   4.849  15.503 -3.2906  0.2907 -0.8260
18087TIP3   OH275751   1.258   5.482  15.480 -0.1770 -0.4036 -0.0463
18087TIP3    H175752   1.301   5.440  15.555  0.9154 -0.5666 -0.7460
18087TIP3    H275753   1.192   5.539  15.519  1.5496  0.8857  1.1765
18088TIP3   OH275754   6.250   6.181   5.454  0.1048  0.3606 -0.6201
18088TIP3    H175755   6.334   6.213   5.487  0.3777 -0.2357 -0.7097
18088TIP3    H275756   6.231   6.237   5.379  2.0306 -1.4575 -2.6094
18089TIP3   OH275757   3.864   5.922  15.199  0.3849 -0.1649  0.4498
18089TIP3    H175758   3.809   5.970  15.260  2.2116  0.5657  1.6064
18089TIP3    H275759   3.887   5.986  15.131 -1.1375 -0.8075 -0.7315
18090TIP3   OH275760   1.129   3.454  15.791  0.0186  0.0440 -0.1174
18090TIP3    H175761   1.211   3.432  15.748 -0.8066 -0.1682 -1.6474
18090TIP3    H275762   1.110   3.544  15.764  0.7666  0.8742  1.9292
18091TIP3   OH275763   0.089   0.916  15.977 -0.2341  0.0799  0.3739
18091TIP3    H175764   0.044   0.994  16.009 -0.1181  0.3996 -0.2324
18091TIP3    H275765   0.174   0.917  16.020 -0.3620  0.1037  0.6255
18092TIP3   OH275766   1.420   6.419  13.715 -0.1251  0.1231 -0.1654
18092TIP3    H175767   1.450   6.337  13.753  3.8866  1.8029  0.7759
18092TIP3    H275768   1.497   6.475  13.714 -2.3460  3.5115 -1.9444
18093TIP3   OH275769   6.380   0.989   1.422 -0.1938 -0.3302 -0.5562
18093TIP3    H175770   6.372   0.987   1.327  2.1369  1.3625 -0.8921
18093TIP3    H275771   6.309   1.046   1.451 -0.7652 -0.6412 -1.3145
18094TIP3   OH275772   6.572   4.045  14.523  0.0076 -0.6863  0.0153
18094TIP3    H175773   6.577   3.986  14.598 -0.3462 -0.2779  0.3661
18094TIP3    H275774   6.480   4.070  14.519  0.3926  0.9687  0.7585
18095TIP3   OH275775   6.100   4.752  15.941 -0.1967 -0.1247  0.3507
18095TIP3    H175776   6.032   4.704  15.989 -0.8999  1.8560  1.4535
18095TIP3    H275777   6.179   4.741  15.993 -0.1352 -0.7968  0.1233
18096TIP3   OH275778   2.364   6.573  12.802 -0.4085 -0.0716  0.1183
18096TIP3    H175779   2.324   6.501  12.849 -1.1010  1.1451  1.4877
18096TIP3    H275780   2.437   6.600  12.858 -0.4464  0.5775 -0.1368
18097TIP3   OH275781   2.480   4.545   0.710  0.5642  0.2448  0.4662
18097TIP3    H175782   2.478   4.584   0.798  0.7356  0.2123  0.4839
18097TIP3    H275783   2.392   4.562   0.676  0.5435  0.3925  0.5855
18098TIP3   OH275784   6.758   3.187  15.740  0.0214 -0.0946  0.2513
18098TIP3    H175785   6.838   3.214  15.785  0.4586 -2.2432  0.8958
18098TIP3    H275786   6.757   3.237  15.659  2.1065 -0.1218  0.1644
18099TIP3   OH275787   0.021   3.248   5.768 -0.1054  0.1398  0.6801
18099TIP3    H175788   0.045   3.339   5.749  1.5380 -0.6311 -1.3022
18099TIP3    H275789  -0.074   3.251   5.779 -0.3433  1.8770 -1.1186
18100TIP3   OH275790   5.066   2.258   5.998 -0.1869  0.1433  0.3904
18100TIP3    H175791   4.971   2.265   6.005 -0.3338 -0.6809 -0.6025
18100TIP3    H275792   5.081   2.188   5.935  1.0857 -1.8433  2.7011
18101TIP3   OH275793   0.094   4.964   4.010  0.0622  0.3389 -0.0767
18101TIP3    H175794   0.106   5.032   3.944 -1.0911 -0.0686 -0.7319
18101TIP3    H275795   0.182   4.949   4.046  0.4852  1.4720 -0.6074
18102TIP3   OH275796   4.871   3.306   4.810 -0.2517  0.0062 -0.0009
18102TIP3    H175797   4.788   3.267   4.839 -0.3345  0.6909  0.7197
18102TIP3    H275798   4.924   3.232   4.782 -1.0501 -0.4605 -0.3300
18103TIP3   OH275799   1.624   5.356  16.843  0.4714  0.1280  0.2482
18103TIP3    H175800   1.685   5.282  16.846  0.7606  0.3472 -0.1768
18103TIP3    H275801   1.571   5.340  16.765  1.5309  1.1416 -0.7127
18104TIP3   OH275802   5.646   6.176  13.940 -0.2160 -0.6129  0.0640
18104TIP3    H175803   5.663   6.129  13.859  0.6612 -2.9233  1.4993
18104TIP3    H275804   5.676   6.117  14.009 -0.4671  1.4654  2.0708
18105TIP3   OH275805   1.975   5.367   4.580  0.1610 -0.1676 -0.3854
18105TIP3    H175806   2.050   5.422   4.604 -1.1660  0.8743  1.6752
18105TIP3    H275807   1.943   5.332   4.664 -1.7160 -0.4753 -1.1773
18106TIP3   OH275808   3.397   1.797  11.282  0.0491 -0.3836  0.9854
18106TIP3    H175809   3.308   1.831  11.286 -0.2975 -1.4212  2.8642
18106TIP3    H275810   3.452   1.874  11.301 -0.4664  0.1236  0.4586
18107TIP3   OH275811   2.709   3.203  13.898 -0.2445  0.1256 -0.1306
18107TIP3    H175812   2.679   3.147  13.969 -1.1377  2.0701  1.1067
18107TIP3    H275813   2.742   3.282  13.941  0.9295  0.6048 -1.7918
18108TIP3   OH275814   3.253   2.148  13.359 -0.1377  0.3120 -0.1779
18108TIP3    H175815   3.217   2.201  13.288 -0.2669 -0.1761 -0.4807
18108TIP3    H275816   3.337   2.189  13.380 -1.5909  2.5594  1.7335
18109TIP3   OH275817   0.300   0.601   0.512  0.0734  0.3000  0.9200
18109TIP3    H175818   0.211   0.629   0.534 -0.9954  0.2583 -2.8062
18109TIP3    H275819   0.295   0.505   0.515 -0.9017  0.1790 -1.9029
18110TIP3   OH275820   2.656   1.728   4.820 -0.1013  0.3933  0.6775
18110TIP3    H175821   2.656   1.758   4.911 -1.6217  1.2185  0.4418
18110TIP3    H275822   2.710   1.793   4.773 -1.1099  1.2434  0.6463
18111TIP3   OH275823   1.377   3.463  12.698  0.0963 -0.1960 -0.0242
18111TIP3    H175824   1.342   3.375  12.687  0.5440 -0.5833  1.4080
18111TIP3    H275825   1.364   3.505  12.613 -2.3342 -0.8389 -0.0446
18112TIP3   OH275826   1.105   2.408   2.863 -0.5843 -0.3115  0.2895
18112TIP3    H175827   1.191   2.384   2.829 -0.8327  0.8796 -1.3119
18112TIP3    H275828   1.070   2.327   2.899  0.6604 -1.1161 -0.2448
18113TIP3   OH275829   2.133   1.981  13.978  0.7697  0.1031  0.4317
18113TIP3    H175830   2.086   1.906  14.014  1.0325 -0.4626 -0.3735
18113TIP3    H275831   2.072   2.054  13.986 -0.1033 -0.5328 -0.2355
18114TIP3   OH275832   2.437   5.328  12.063  0.0480  0.0611 -0.9904
18114TIP3    H175833   2.366   5.285  12.110 -1.2913  2.5843 -0.5276
18114TIP3    H275834   2.407   5.331  11.972  0.3795 -0.4352 -1.1187
18115TIP3   OH275835   0.869   4.996  13.363 -0.2722 -0.2076  0.9593
18115TIP3    H175836   0.821   4.922  13.401 -2.2066 -0.3468 -1.4999
18115TIP3    H275837   0.839   5.072  13.413  1.0167 -0.8565  2.8761
18116TIP3   OH275838   3.286   4.640  16.839 -0.4333  0.4463  1.1464
18116TIP3    H175839   3.229   4.681  16.775 -1.3905  0.9243  2.2550
18116TIP3    H275840   3.292   4.548  16.813  1.6020  1.1549 -1.2812
18117TIP3   OH275841   1.084   3.445   0.289 -1.4040 -0.0259  0.3674
18117TIP3    H175842   1.091   3.399   0.205  0.6382 -0.6709  0.8306
18117TIP3    H275843   1.093   3.538   0.266 -0.9475 -0.1919 -0.1554
18118TIP3   OH275844   4.308   4.144  11.232  0.1139 -0.2811 -0.5060
18118TIP3    H175845   4.296   4.059  11.190  0.3190  0.7077 -2.6944
18118TIP3    H275846   4.307   4.207  11.160 -0.2229  1.6111  1.0643
18119TIP3   OH275847   1.272   1.697  17.044  0.1753 -0.1450 -0.2402
18119TIP3    H175848   1.179   1.715  17.028 -0.0198 -0.3324  0.6465
18119TIP3    H275849   1.276   1.672  17.136  1.4585  2.1609  0.3928
18120TIP3   OH275850   4.583   3.307   4.052  0.2274  0.3939 -0.3448
18120TIP3    H175851   4.525   3.325   4.127 -1.0430 -0.5053 -1.0656
18120TIP3    H275852   4.651   3.374   4.058 -1.0581  1.7174  0.3804
18121TIP3   OH275853   4.702   2.823  11.104  0.1875  0.0251  0.3756
18121TIP3    H175854   4.691   2.733  11.073 -0.3027  0.1851  0.0748
18121TIP3    H275855   4.685   2.877  11.027 -1.9546  0.4744  1.1035
18122TIP3   OH275856   6.126   1.603  12.528 -0.3763  0.6186  0.4564
18122TIP3    H175857   6.199   1.663  12.514 -1.1594  1.3930 -0.4307
18122TIP3    H275858   6.157   1.543  12.596  0.9526  1.1314  0.3320
18123TIP3   OH275859   3.372   3.383  13.217 -0.0760 -0.1242  0.3533
18123TIP3    H175860   3.365   3.478  13.207 -1.1881  0.0013  1.8485
18123TIP3    H275861   3.295   3.349  13.172 -0.9732 -0.1076  1.8157
18124TIP3   OH275862   4.295   6.541   4.839 -0.0357  0.6506 -0.5229
18124TIP3    H175863   4.348   6.475   4.884  1.2562  2.0241  0.0709
18124TIP3    H275864   4.217   6.551   4.893 -0.6748 -0.9718 -1.0850
18125TIP3   OH275865   0.971   3.769   2.642  0.5231 -0.8258  0.0794
18125TIP3    H175866   1.003   3.784   2.554  1.2792  0.8395  0.6080
18125TIP3    H275867   1.048   3.740   2.691  0.0349 -2.1039  0.1545
18126TIP3   OH275868   2.384   3.063   2.898  0.9181 -0.3409 -0.2475
18126TIP3    H175869   2.472   3.097   2.881  0.6607  0.0104 -0.8915
18126TIP3    H275870   2.367   3.004   2.824  1.1777 -1.5386  0.6112
18127TIP3   OH275871   6.117   0.650  15.468  0.1811 -0.1058  0.3632
18127TIP3    H175872   6.099   0.705  15.545  3.0587  2.9523 -0.8660
18127TIP3    H275873   6.196   0.601  15.492  0.1854 -0.3151 -0.0778
18128TIP3   OH275874   2.179   4.521  11.299  0.4713 -0.2469  0.2288
18128TIP3    H175875   2.114   4.498  11.366  0.1964  2.3739  0.9957
18128TIP3    H275876   2.127   4.533  11.219  0.1608  0.5619  0.5359
18129TIP3   OH275877   2.593   6.234   4.695 -0.2757  0.0481  0.0755
18129TIP3    H175878   2.588   6.321   4.657 -0.0078 -0.3425 -0.8817
18129TIP3    H275879   2.556   6.244   4.783 -0.0405  1.1626  0.0599
18130TIP3   OH275880   1.447   4.038   5.082  0.0049  0.0853  0.1027
18130TIP3    H175881   1.354   4.056   5.095  0.0170 -0.3564  0.8722
18130TIP3    H275882   1.485   4.123   5.058 -0.5785  0.2798 -0.1535
18131TIP3   OH275883   3.071   5.662  16.284  0.1533 -0.2500  0.2009
18131TIP3    H175884   3.123   5.593  16.326  0.7278 -0.6419 -1.0753
18131TIP3    H275885   2.980   5.637  16.301  0.3454 -1.4496 -0.3915
18132TIP3   OH275886   6.618   6.039   1.379  0.3237 -0.3753 -0.2636
18132TIP3    H175887   6.604   6.130   1.404  1.4405  0.1055 -1.3199
18132TIP3    H275888   6.652   5.998   1.459  1.0384  0.4453 -0.1328
18133TIP3   OH275889   2.691   5.964  14.166 -0.1951  0.3544  0.4898
18133TIP3    H175890   2.738   5.922  14.094  0.5742  0.5030  0.9023
18133TIP3    H275891   2.610   5.913  14.174 -0.2579  0.2923 -0.4288
18134TIP3   OH275892   5.932   4.196   3.919  0.7895 -0.2557 -0.0804
18134TIP3    H175893   5.949   4.103   3.933  0.6177 -0.0319  1.9670
18134TIP3    H275894   5.962   4.239   3.999  1.0775  1.4992 -1.0617
18135TIP3   OH275895   0.512   4.382   0.791 -0.1060 -0.3033  0.5720
18135TIP3    H175896   0.516   4.318   0.720 -0.5013  1.3844 -1.0553
18135TIP3    H275897   0.425   4.369   0.831  0.1406 -1.2926  0.8073
18136TIP3   OH275898   6.307   3.650  16.321  0.2208  0.3757 -0.2071
18136TIP3    H175899   6.337   3.559  16.320 -0.4205  0.1638 -0.7378
18136TIP3    H275900   6.362   3.692  16.388  1.4713 -0.0661 -0.9216
18137TIP3   OH275901   3.673   5.036  12.006 -0.4641 -0.1473  0.3244
18137TIP3    H175902   3.588   5.059  11.967 -0.6197  0.1222  0.8077
18137TIP3    H275903   3.668   4.941  12.020  0.1060 -0.4764 -1.5010
18138TIP3   OH275904   4.523   0.122   1.610 -0.7804 -0.4344 -0.0962
18138TIP3    H175905   4.498   0.179   1.683 -1.8040 -0.5895 -0.3110
18138TIP3    H275906   4.584   0.059   1.648 -0.0327  0.4651  0.2620
18139TIP3   OH275907   5.628   1.027   3.708 -0.4399  0.0618 -0.3498
18139TIP3    H175908   5.614   0.933   3.723  1.3470 -0.5147 -1.9140
18139TIP3    H275909   5.547   1.057   3.667 -0.5727 -1.0790 -0.9685
18140TIP3   OH275910   0.687   5.285  16.451  0.1125  0.0622  0.6683
18140TIP3    H175911   0.699   5.320  16.363 -1.6338  0.2425  0.4769
18140TIP3    H275912   0.768   5.236  16.468  0.3678 -0.2088 -1.1276
18141TIP3   OH275913   6.708   3.911   3.668 -0.1606  0.2057 -0.1197
18141TIP3    H175914   6.712   3.960   3.586  1.2757  0.2904 -0.0231
18141TIP3    H275915   6.686   3.822   3.642  0.1692  0.2584 -0.5877
18142TIP3   OH275916   1.416   2.448   0.568  0.5958 -0.2741 -0.0030
18142TIP3    H175917   1.477   2.510   0.608 -1.3788  1.1469  0.9771
18142TIP3    H275918   1.436   2.451   0.474  1.2370  1.0744  0.1594
18143TIP3   OH275919   0.210   0.434  11.832 -0.1648 -0.3237 -0.2462
18143TIP3    H175920   0.271   0.402  11.766  0.4403  0.2785  0.0080
18143TIP3    H275921   0.235   0.389  11.912 -2.0346 -2.4334 -0.7457
18144TIP3   OH275922   4.935   0.795  13.513  0.2349 -0.6450 -0.4195
18144TIP3    H175923   5.015   0.787  13.565 -1.1537  0.5338  2.1143
18144TIP3    H275924   4.886   0.714  13.531 -0.1530 -0.3320 -0.0359
18145TIP3   OH275925   4.746   1.292   4.919  0.5498  0.2876  0.8891
18145TIP3    H175926   4.682   1.313   4.987  1.6333 -0.5815  2.2534
18145TIP3    H275927   4.825   1.268   4.968  1.5114  0.0741 -0.7062
18146TIP3   OH275928   3.284   4.368   1.751  0.0020 -0.3308  0.4731
18146TIP3    H175929   3.221   4.306   1.713 -0.0694  0.3356 -0.5265
18146TIP3    H275930   3.233   4.421   1.811  0.1909 -1.6521  1.8694
18147TIP3   OH275931   1.873   5.053  16.659  0.4939  0.0760  0.0770
18147TIP3    H175932   1.943   4.987  16.655  0.8171  0.4477 -0.5093
18147TIP3    H275933   1.836   5.043  16.747  2.3193  0.9217  0.9958
18148TIP3   OH275934   3.404   4.470   2.712 -0.3225 -0.3597  0.4432
18148TIP3    H175935   3.490   4.472   2.754 -0.1556 -1.9692  0.2535
18148TIP3    H275936   3.344   4.504   2.778  0.6428  2.5400 -0.0470
18149TIP3   OH275937   4.009   0.872   3.423 -0.1098  1.0720 -0.3889
18149TIP3    H175938   4.083   0.815   3.445 -0.2048  1.2671  0.4794
18149TIP3    H275939   3.964   0.826   3.352 -1.6079 -1.2315  1.8798
18150TIP3   OH275940   4.819   6.137   3.721 -0.8298  0.4138  0.1531
18150TIP3    H175941   4.835   6.050   3.759  0.6303  1.3590  1.8578
18150TIP3    H275942   4.841   6.198   3.791 -0.2737  2.2217 -1.5049
18151TIP3   OH275943   1.325   6.101  15.667  0.0730  0.4566  0.4808
18151TIP3    H175944   1.408   6.115  15.621 -0.2099  0.1220 -0.1408
18151TIP3    H275945   1.345   6.123  15.758  0.4865  1.7701  0.1090
18152TIP3   OH275946   3.753   4.170   0.699  0.1144  0.3607 -0.3769
18152TIP3    H175947   3.789   4.085   0.672 -0.9913 -0.1171 -0.3837
18152TIP3    H275948   3.801   4.191   0.779 -1.6183 -1.7204  1.3214
18153TIP3   OH275949   5.253   0.134  12.973  0.0164 -0.2822  0.0925
18153TIP3    H175950   5.250   0.051  12.925 -0.0023 -0.3362  0.1862
18153TIP3    H275951   5.305   0.192  12.918  2.3223 -1.1314  1.2104
18154TIP3   OH275952   0.217   1.004  16.833  0.2743 -0.1665  0.0380
18154TIP3    H175953   0.136   0.969  16.870 -0.2316  0.1663 -0.7288
18154TIP3    H275954   0.194   1.030  16.744  1.2879 -0.2859 -0.2744
18155TIP3   OH275955   0.630   4.442   1.623  0.2469 -0.4327  0.0147
18155TIP3    H175956   0.688   4.374   1.588  0.3398  0.0509 -0.7835
18155TIP3    H275957   0.641   4.435   1.718  0.1513 -1.6266 -0.0398
18156TIP3   OH275958   4.161   3.879   1.488  0.0296  0.5041  0.2919
18156TIP3    H175959   4.202   3.841   1.410 -0.1304  0.4708  0.2236
18156TIP3    H275960   4.079   3.916   1.456 -0.5247 -0.4000  0.6230
18157TIP3   OH275961   4.471   2.501   3.966 -0.1834 -0.1580 -0.4308
18157TIP3    H175962   4.417   2.448   4.025  0.7017 -0.4177  0.1815
18157TIP3    H275963   4.487   2.444   3.891  1.0044 -0.9169  0.3525
18158TIP3   OH275964   5.535   5.435   1.374  0.6122 -0.7220 -0.5504
18158TIP3    H175965   5.628   5.435   1.395  0.5510 -0.7905 -0.2861
18158TIP3    H275966   5.522   5.356   1.321  0.1206 -2.4187  1.9422
18159TIP3   OH275967   3.940   0.371   3.036 -0.6985  0.1577  0.1691
18159TIP3    H175968   4.035   0.375   3.046 -0.8773  1.6951  1.5834
18159TIP3    H275969   3.905   0.422   3.109 -2.5932  0.3287 -0.7866
18160TIP3   OH275970   4.698   6.036   1.492 -0.4632  0.2338 -0.7651
18160TIP3    H175971   4.769   5.985   1.533 -1.2519 -0.4194 -0.1755
18160TIP3    H275972   4.741   6.114   1.459  0.4229  0.2063  0.2447
18161TIP3   OH275973   3.420   1.511  10.460 -0.5153 -0.7332 -1.0683
18161TIP3    H175974   3.359   1.438  10.447 -1.0844 -0.5352  0.3542
18161TIP3    H275975   3.488   1.477  10.517 -0.6447 -0.2327 -0.6028
18162TIP3   OH275976   0.758   1.686  11.852 -0.1392 -0.4239 -0.3782
18162TIP3    H175977   0.825   1.731  11.800 -0.4021 -0.4832 -0.7733
18162TIP3    H275978   0.764   1.726  11.939 -1.1385  1.2007 -1.0082
18163TIP3   OH275979   4.763   5.402  14.215 -0.3053 -0.4691 -0.5895
18163TIP3    H175980   4.794   5.367  14.132 -0.6856  1.3786 -1.5551
18163TIP3    H275981   4.754   5.496  14.200  0.9126  0.1398  1.9482
18164TIP3   OH275982   3.540   6.054   3.065 -0.3743  0.3764  0.2839
18164TIP3    H175983   3.627   6.040   3.104  0.0424  1.4779 -0.2015
18164TIP3    H275984   3.518   5.971   3.025  0.7232  0.2425 -0.0793
18165TIP3   OH275985   0.761   2.015  15.860 -0.1989  0.4454  0.6591
18165TIP3    H175986   0.753   2.087  15.797 -0.7966  0.0042  0.2209
18165TIP3    H275987   0.715   2.047  15.938 -0.3184  0.6019  0.5240
18166TIP3   OH275988   3.909   0.391  13.431  0.4352 -0.1341  0.4672
18166TIP3    H175989   3.874   0.331  13.365  0.7405  0.9728 -0.7426
18166TIP3    H275990   3.838   0.400  13.495 -1.8633  2.4450 -2.1553
18167TIP3   OH275991   1.100   1.425  13.520 -1.0348  0.0431  0.0199
18167TIP3    H175992   1.117   1.432  13.426 -0.2843  1.8127  0.2352
18167TIP3    H275993   1.080   1.515  13.547 -0.3207 -0.2654  1.6997
18168TIP3   OH275994   3.843   4.717  13.453 -0.5504 -0.9762 -0.0768
18168TIP3    H175995   3.775   4.782  13.471  0.1021 -0.4815  0.6828
18168TIP3    H275996   3.891   4.752  13.378  0.4353 -0.0270  0.9431
18169TIP3   OH275997   3.440   3.591  11.186  0.2446  0.2344 -0.1096
18169TIP3    H175998   3.377   3.663  11.189  0.3462  0.3296  2.7537
18169TIP3    H275999   3.525   3.633  11.200  0.3720 -0.3516  0.9669
18170TIP3   OH276000   1.370   4.165  13.924 -0.6013 -0.2682 -0.1869
18170TIP3    H176001   1.377   4.260  13.911  0.9918 -0.4408 -0.8052
18170TIP3    H276002   1.421   4.127  13.852 -2.0677 -1.6504 -0.5734
18171TIP3   OH276003   2.735   1.412  15.296  0.2038  0.5026 -0.2278
18171TIP3    H176004   2.687   1.488  15.263 -0.4165  0.4959  0.6507
18171TIP3    H276005   2.814   1.449  15.336  0.4541  0.5884 -0.7861
18172TIP3   OH276006   1.679   1.726   5.455  0.5432  0.2716 -0.5522
18172TIP3    H176007   1.754   1.778   5.485  1.6372 -0.8302 -1.3041
18172TIP3    H276008   1.640   1.779   5.385  1.4564  0.2573 -1.0913
18173TIP3   OH276009   2.500   0.354  11.122  0.4219 -0.1276  0.0989
18173TIP3    H176010   2.512   0.291  11.193 -0.8175  0.4125  0.8309
18173TIP3    H276011   2.426   0.321  11.072 -0.8352  1.1539  1.0243
18174TIP3   OH276012   2.484   1.642  14.405  0.4113 -0.4711 -0.2241
18174TIP3    H176013   2.458   1.734  14.396 -0.0206 -0.4956  0.6547
18174TIP3    H276014   2.553   1.643  14.471 -0.8014 -0.9516  1.1039
18175TIP3   OH276015   6.157   6.481  12.030  0.0384  0.0962  0.5404
18175TIP3    H176016   6.153   6.577  12.029  0.5409  0.1341 -1.3404
18175TIP3    H276017   6.127   6.455  11.944 -0.3301 -1.4757  1.1129
18176TIP3   OH276018   3.523   0.119  17.044 -0.0636  0.3483 -0.7061
18176TIP3    H176019   3.552   0.186  16.982 -0.0152 -0.6216 -1.7452
18176TIP3    H276020   3.466   0.061  16.994  0.8483 -1.0854 -0.1583
18177TIP3   OH276021   3.530   5.818   0.338 -0.5464 -0.2808 -0.5380
18177TIP3    H176022   3.566   5.764   0.268 -0.9348  0.0967 -1.0390
18177TIP3    H276023   3.485   5.756   0.396  0.2370 -0.6557 -0.3282
18178TIP3   OH276024   4.634   2.776  11.849 -0.1480 -0.4978  0.3278
18178TIP3    H176025   4.580   2.777  11.770 -0.2021  0.2872  0.3657
18178TIP3    H276026   4.647   2.683  11.868 -0.2884 -0.6937 -0.4958
18179TIP3   OH276027   2.271   6.099  11.944  0.7524 -0.6024  0.1263
18179TIP3    H176028   2.227   6.144  12.016 -1.6008  0.0307 -1.5722
18179TIP3    H276029   2.333   6.039  11.987  1.2453  1.4887  2.5405
18180TIP3   OH276030   2.053   3.304  16.977 -0.1214  0.2944  0.1457
18180TIP3    H176031   2.082   3.214  16.989 -0.7215  0.2601  1.5516
18180TIP3    H276032   2.134   3.356  16.974  0.1939 -0.1907  0.2251
18181TIP3   OH276033   2.661   0.449   4.993  0.5052 -0.5461 -0.4840
18181TIP3    H176034   2.671   0.394   4.916 -1.3603 -0.1763 -1.0409
18181TIP3    H276035   2.654   0.387   5.066  0.9497 -0.9503 -0.7830
18182TIP3   OH276036   2.692   4.529  12.098  0.4391  0.3698 -0.1114
18182TIP3    H176037   2.754   4.457  12.112  0.3904 -0.0149 -1.7394
18182TIP3    H276038   2.620   4.489  12.050  1.0926  1.7799 -2.3792
18183TIP3   OH276039   5.345   4.805   2.365  0.2521 -0.1025  0.5155
18183TIP3    H176040   5.375   4.826   2.454  0.9165 -0.4857  0.3854
18183TIP3    H276041   5.326   4.711   2.368  2.5439 -0.6676 -0.3526
18184TIP3   OH276042   0.088   5.679   6.692  0.0587  0.1462  0.1146
18184TIP3    H176043   0.067   5.772   6.701  1.2413  0.3495  0.9964
18184TIP3    H276044   0.173   5.678   6.649 -1.9436 -0.6803 -4.4540
18185TIP3   OH276045   5.718   0.555   1.003 -0.9885  0.2447 -0.0580
18185TIP3    H176046   5.747   0.591   0.919  1.4791  2.3560  1.5242
18185TIP3    H276047   5.749   0.465   1.003 -0.1597  0.5178 -1.0448
18186TIP3   OH276048   0.183   5.699   4.469  0.1145  0.1334 -0.2504
18186TIP3    H176049   0.278   5.694   4.479  0.0131  0.7604  1.5219
18186TIP3    H276050   0.168   5.785   4.431  0.3012 -0.5790 -2.0272
18187TIP3   OH276051   5.174   4.580  16.796  0.6398 -0.0026  0.1862
18187TIP3    H176052   5.162   4.546  16.708 -0.7658  0.8035  0.0467
18187TIP3    H276053   5.246   4.528  16.832  0.3041 -1.2900 -0.9408
18188TIP3   OH276054   1.487   6.066   5.501 -0.5317 -0.4007 -0.5214
18188TIP3    H176055   1.555   6.094   5.440 -1.5813  3.3018 -0.1975
18188TIP3    H276056   1.521   6.089   5.587 -2.0254  1.2867 -0.3381
18189TIP3   OH276057   5.427   1.079   6.438  0.4409 -0.7822 -0.5248
18189TIP3    H176058   5.372   1.001   6.446  0.7339 -0.8158  2.0411
18189TIP3    H276059   5.483   1.077   6.515 -0.8019  2.9001  0.6868
18190TIP3   OH276060   0.665   2.134  16.092 -0.1881 -0.5596 -0.4252
18190TIP3    H176061   0.575   2.159  16.113  0.6442  0.4712  2.5085
18190TIP3    H276062   0.697   2.204  16.035 -0.6862  0.1606  0.1566
18191TIP3   OH276063   6.269   3.983  14.600 -0.0170  0.4412  0.0759
18191TIP3    H176064   6.293   4.071  14.627 -0.4663  0.0721  1.7667
18191TIP3    H276065   6.174   3.979  14.614 -0.0948 -0.1194 -0.5713
18192TIP3   OH276066   1.374   1.789  10.544  0.5152 -0.1068  0.5760
18192TIP3    H176067   1.300   1.841  10.575 -0.0989  0.1740 -1.2499
18192TIP3    H276068   1.415   1.843  10.476  1.1067 -1.1478  0.0786
18193TIP3   OH276069   4.295   3.527  16.063 -0.6999 -0.2954  0.3570
18193TIP3    H176070   4.362   3.593  16.045  0.3801 -1.6512 -0.8546
18193TIP3    H276071   4.235   3.569  16.124  1.7118  0.6968  2.2043
18194TIP3   OH276072   5.206   6.066   3.530 -0.3439 -0.4824  0.1719
18194TIP3    H176073   5.244   6.118   3.460  0.8915  0.2590  1.3474
18194TIP3    H276074   5.146   6.006   3.486 -2.0098  2.0417 -1.2216
18195TIP3   OH276075   5.724   6.456  13.978  0.6639  0.2318 -0.9488
18195TIP3    H176076   5.816   6.431  13.971  0.5649 -0.2877 -0.4369
18195TIP3    H276077   5.675   6.381  13.944  0.4504  1.0210 -2.4799
18196TIP3   OH276078   0.138   5.774   4.044  0.0954  0.3506  0.1344
18196TIP3    H176079   0.202   5.792   4.113  0.9056 -1.1577 -0.1720
18196TIP3    H276080   0.076   5.713   4.083  0.2805 -0.1297 -0.3004
18197TIP3   OH276081   2.963   0.586  15.634 -0.3435  0.3349  0.1527
18197TIP3    H176082   2.891   0.649  15.620  0.8900  1.8175  0.1848
18197TIP3    H276083   3.010   0.621  15.710  0.1371 -0.8747  0.4236
18198TIP3   OH276084   5.868   1.272  12.255  0.1398 -0.0676  0.1018
18198TIP3    H176085   5.826   1.316  12.329  0.9255  0.5517  0.1986
18198TIP3    H276086   5.962   1.285  12.270  0.4102 -1.8058  0.1384
18199TIP3   OH276087   2.209   4.358   5.206  0.1159  0.5921  0.8527
18199TIP3    H176088   2.296   4.393   5.225 -0.0378  0.6843  1.3997
18199TIP3    H276089   2.149   4.432   5.221 -0.1613  0.2355  1.5285
18200TIP3   OH276090   0.361   5.726   1.441  0.6924 -0.1206 -0.0602
18200TIP3    H176091   0.295   5.726   1.371 -0.7390 -0.6558  1.2118
18200TIP3    H276092   0.445   5.728   1.395 -0.0908 -2.9219 -1.9187
18201TIP3   OH276093   3.295   5.375  12.068  0.3991 -0.2157 -0.4101
18201TIP3    H176094   3.294   5.291  12.115 -0.8094 -0.5411 -0.9657
18201TIP3    H276095   3.384   5.407  12.077  0.4263 -0.7122  1.3134
18202TIP3   OH276096   3.957   1.258   1.761  0.0460 -0.1864  0.1523
18202TIP3    H176097   4.002   1.342   1.760 -0.6859  0.2632  1.6334
18202TIP3    H276098   4.005   1.205   1.825 -1.9089  0.5999  2.4386
18203TIP3   OH276099   3.514   6.033   1.017  0.0065  0.1000  0.0565
18203TIP3    H176100   3.585   6.093   1.039  0.4229  0.1538 -1.3239
18203TIP3    H276101   3.556   5.965   0.965 -0.8583 -0.1423 -0.3422
18204TIP3   OH276102   1.455   4.243   5.705  0.7787  0.7314  0.4605
18204TIP3    H176103   1.424   4.191   5.779 -1.1716  1.8846  0.5318
18204TIP3    H276104   1.426   4.332   5.725  1.3687  1.2951 -1.0649
18205TIP3   OH276105   6.399   1.284   2.467  0.3765  0.0294  0.1555
18205TIP3    H176106   6.420   1.235   2.546  0.3510 -2.4121 -1.2237
18205TIP3    H276107   6.482   1.322   2.439  1.0814 -1.6841 -0.2367
18206TIP3   OH276108   0.938   0.887   0.794 -0.0130 -0.0955 -1.0938
18206TIP3    H176109   0.916   0.826   0.723 -0.3894 -0.6192 -0.5305
18206TIP3    H276110   0.966   0.967   0.749  1.7868 -1.1102 -1.8871
18207TIP3   OH276111   6.299   0.165  12.100 -0.0311 -0.5490 -0.1388
18207TIP3    H176112   6.251   0.243  12.126  1.4617  0.7081 -0.9243
18207TIP3    H276113   6.354   0.144  12.175 -0.4082 -0.8330  0.0604
18208TIP3   OH276114   2.633   2.121   0.313 -0.2183  0.2101 -0.1728
18208TIP3    H176115   2.678   2.204   0.295  0.3929 -0.1874 -0.4989
18208TIP3    H276116   2.652   2.103   0.405 -2.6715  1.8286  0.7701
18209TIP3   OH276117   2.641   4.075   6.190 -0.4264 -0.3868  0.0655
18209TIP3    H176118   2.568   4.041   6.243  2.0222 -1.6997  2.9218
18209TIP3    H276119   2.644   4.017   6.114 -2.4065 -0.1741 -0.2420
18210TIP3   OH276120   0.961   0.899  14.699  0.2160 -0.4492  0.1051
18210TIP3    H176121   0.990   0.964  14.763  1.1460  0.5963 -1.3207
18210TIP3    H276122   1.008   0.820  14.723 -0.5378 -0.4979  1.5566
18211TIP3   OH276123   0.711   6.820   0.872 -0.0061 -0.1531  0.4945
18211TIP3    H176124   0.665   6.891   0.916 -1.1883 -1.3047  1.1925
18211TIP3    H276125   0.697   6.744   0.929  1.5089 -0.8816 -0.0561
18212TIP3   OH276126   4.074   0.305   4.392 -0.0611 -0.4264 -0.6040
18212TIP3    H176127   4.117   0.248   4.328  1.7533  0.0290  0.1253
18212TIP3    H276128   4.047   0.381   4.342 -3.6497 -2.2708 -1.8636
18213TIP3   OH276129   0.396   3.007   0.406 -0.3339  0.3727 -0.1619
18213TIP3    H176130   0.354   3.052   0.480 -0.1551  1.3737 -0.6497
18213TIP3    H276131   0.439   2.931   0.445  0.2606  1.2029  0.8659
18214TIP3   OH276132   2.727   3.732  14.580  0.9481  0.1719 -0.2380
18214TIP3    H176133   2.633   3.713  14.588  1.1880 -0.7601  0.5286
18214TIP3    H276134   2.763   3.656  14.536  1.1699  1.0876 -1.7083
18215TIP3   OH276135   6.325   3.512   5.229 -0.0792 -0.1798  0.6547
18215TIP3    H176136   6.394   3.572   5.257  0.5963 -0.8246  0.4015
18215TIP3    H276137   6.297   3.468   5.309  0.3832 -0.5075  0.6406
18216TIP3   OH276138   3.654   3.784   0.350  0.3256 -0.3825  0.9066
18216TIP3    H176139   3.669   3.786   0.445 -3.6955  1.2475  1.7179
18216TIP3    H276140   3.594   3.711   0.338 -0.8237  0.6873 -0.0263
18217TIP3   OH276141   2.776   6.007  13.386 -0.4334 -0.3189  0.4656
18217TIP3    H176142   2.827   5.930  13.359  1.2704  1.0235 -0.3678
18217TIP3    H276143   2.833   6.052  13.448 -0.8312  0.9551 -0.0690
18218TIP3   OH276144   3.866   2.085  11.525 -0.4445  0.2431  0.1454
18218TIP3    H176145   3.826   2.154  11.471 -1.8077 -1.5281 -1.2482
18218TIP3    H276146   3.885   2.015  11.463 -0.2801 -1.1426  1.7062
18219TIP3   OH276147   0.005   6.279   1.680 -0.0429  0.3056  0.0807
18219TIP3    H176148   0.086   6.326   1.701  0.1690  0.3679 -0.8271
18219TIP3    H276149  -0.024   6.318   1.597 -0.2556 -0.6550 -0.3083
18220TIP3   OH276150   0.604   4.269  16.887 -0.0965  0.3440 -0.2156
18220TIP3    H176151   0.662   4.299  16.817 -0.7814  0.6779 -0.6435
18220TIP3    H276152   0.648   4.192  16.923  0.4540  0.4048 -0.7475
18221TIP3   OH276153   5.618   0.538   0.610  0.6515 -0.2221 -0.1294
18221TIP3    H176154   5.594   0.549   0.518  1.2656 -1.3093 -0.4363
18221TIP3    H276155   5.700   0.587   0.619 -0.3145  1.4043  0.3128
18222TIP3   OH276156   3.831   5.268   3.377 -0.1494  0.0922  0.3049
18222TIP3    H176157   3.809   5.188   3.329 -0.7099  0.7546 -0.5718
18222TIP3    H276158   3.917   5.250   3.415 -0.2658 -0.9232  0.1251
18223TIP3   OH276159   6.307   5.303   0.455 -0.4051 -0.3573 -0.3256
18223TIP3    H176160   6.295   5.303   0.550  3.8888 -2.1886  0.4688
18223TIP3    H276161   6.346   5.388   0.436 -1.0057 -0.1015 -0.4420
18224TIP3   OH276162   3.554   0.198   2.351  0.1075  0.3108  0.1501
18224TIP3    H176163   3.609   0.275   2.332  3.5175 -1.5807  1.4275
18224TIP3    H276164   3.512   0.219   2.435 -0.8750  1.6216 -0.6303
18225TIP3   OH276165   2.673   4.335  14.462 -0.5674 -0.1030  0.4886
18225TIP3    H176166   2.697   4.420  14.424 -3.2920  0.9598  0.9050
18225TIP3    H276167   2.694   4.345  14.555  0.2123 -0.3378  0.3417
18226TIP3   OH276168   2.964   3.474  16.604 -0.2464  0.2234 -0.1261
18226TIP3    H176169   3.057   3.456  16.623  0.0607  0.0053 -1.7123
18226TIP3    H276170   2.929   3.389  16.577 -0.4941  0.6348 -1.1157
18227TIP3   OH276171   5.494   4.557  14.559  0.2352  0.7778  0.3909
18227TIP3    H176172   5.428   4.496  14.592 -0.0720  1.4381  1.0332
18227TIP3    H276173   5.445   4.639  14.545  0.5893  0.8227 -0.6779
18228TIP3   OH276174   0.580   5.546   1.888  0.4152  0.0517 -0.2421
18228TIP3    H176175   0.640   5.565   1.960  1.3211 -0.2836 -0.8883
18228TIP3    H276176   0.495   5.579   1.918  1.3214  2.5204 -0.1576
18229TIP3   OH276177   4.365   1.967   4.467  0.2858 -0.4623 -0.5569
18229TIP3    H176178   4.451   1.971   4.509  0.2844 -1.0109 -0.4963
18229TIP3    H276179   4.313   2.032   4.514  1.1086  1.0390 -1.6379
18230TIP3   OH276180   5.054   2.459   1.428 -0.3251 -0.1476 -0.9932
18230TIP3    H176181   5.111   2.387   1.452  0.9443  0.8984 -0.7333
18230TIP3    H276182   5.104   2.510   1.364 -0.5521  1.3051 -0.0819
18231TIP3   OH276183   1.578   3.778  11.328 -0.0904  0.2131 -0.2328
18231TIP3    H176184   1.587   3.872  11.313  0.8231  0.2924  0.6946
18231TIP3    H276185   1.498   3.770  11.380  0.2214  0.5675  0.3219
18232TIP3   OH276186   0.024   6.402   2.828  0.2503 -0.4799 -0.5204
18232TIP3    H176187   0.037   6.388   2.922 -0.9063  1.2060 -0.0521
18232TIP3    H276188  -0.040   6.474   2.824 -0.4340 -1.1550 -2.5997
18233TIP3   OH276189   4.676   4.890  12.266  0.5052 -0.0916  0.2559
18233TIP3    H176190   4.656   4.983  12.257 -0.6860 -0.1692  1.7090
18233TIP3    H276191   4.594   4.846  12.242  1.1681 -0.8090 -0.7852
18234TIP3   OH276192   2.353   3.338  11.230 -0.0968 -0.3741 -0.0130
18234TIP3    H176193   2.280   3.289  11.191 -1.3052  0.5306  1.0374
18234TIP3    H276194   2.431   3.305  11.184 -1.2444 -0.6869 -1.8377
18235TIP3   OH276195   6.315   1.785  12.480 -0.0274  0.4047  0.5528
18235TIP3    H176196   6.250   1.848  12.511 -1.1350 -0.8822  0.8998
18235TIP3    H276197   6.331   1.810  12.388 -1.5268  0.3343  0.2554
18236TIP3   OH276198   1.401   6.431  15.516  0.1162  0.5394 -0.2889
18236TIP3    H176199   1.475   6.374  15.493 -0.4163 -0.5502  0.5669
18236TIP3    H276200   1.393   6.491  15.443  0.7920 -0.4311 -1.1930
18237TIP3   OH276201   4.021   2.802   5.963 -0.3744 -0.3111  0.5407
18237TIP3    H176202   4.088   2.823   5.898 -0.5960 -0.2117  0.3398
18237TIP3    H276203   4.068   2.760   6.035 -0.2630 -1.3570 -0.1275
18238TIP3   OH276204   5.013   6.353   4.302 -0.2924 -0.2918 -0.5893
18238TIP3    H176205   4.939   6.375   4.246 -1.9999  0.8813  1.9496
18238TIP3    H276206   5.032   6.261   4.282 -1.7355 -0.3187 -2.0267
18239TIP3   OH276207   5.366   5.839   4.311 -0.5966 -0.6295  0.2309
18239TIP3    H176208   5.462   5.840   4.314 -0.5986 -1.0943  0.5453
18239TIP3    H276209   5.345   5.777   4.241 -0.6644  0.5312 -0.8074
18240TIP3   OH276210   0.298   5.384   4.069 -0.1879 -0.4444  0.5556
18240TIP3    H176211   0.389   5.398   4.040 -1.0599  1.1191 -1.7024
18240TIP3    H276212   0.245   5.399   3.991 -2.4558 -0.8832  1.9102
18241TIP3   OH276213   5.876   4.186  17.153  0.8116  0.3684 -0.3600
18241TIP3    H176214   5.885   4.127  17.228  0.7493  0.2025 -0.4823
18241TIP3    H276215   5.814   4.141  17.095 -0.2133  1.1267  0.1116
18242TIP3   OH276216   5.161   3.261  11.778 -0.3285  0.7460  0.3682
18242TIP3    H176217   5.126   3.179  11.745  1.0244 -0.4156  1.6500
18242TIP3    H276218   5.179   3.244  11.871  0.6682  2.2557  0.4965
18243TIP3   OH276219   0.758   2.233  15.112  0.3006 -1.1439  0.4811
18243TIP3    H176220   0.808   2.275  15.042  0.5444 -0.7571  0.8839
18243TIP3    H276221   0.767   2.139  15.095  3.0519 -1.2194  1.7914
18244TIP3   OH276222   1.873   2.674  13.957 -0.1509  0.2584 -0.3695
18244TIP3    H176223   1.838   2.611  14.020 -0.0516  0.3638 -0.2073
18244TIP3    H276224   1.881   2.755  14.007  0.3342  0.2348 -0.4011
18245TIP3   OH276225   0.690   2.453  13.611  0.3776 -0.3790  0.2904
18245TIP3    H176226   0.684   2.417  13.523 -1.7264  0.3055  0.1090
18245TIP3    H276227   0.696   2.548  13.598  0.9383 -0.3232  0.8782
18246TIP3   OH276228   3.621   5.549   0.265 -0.3304  0.5133  0.1156
18246TIP3    H176229   3.636   5.534   0.358  0.8147 -0.4749 -0.1970
18246TIP3    H276230   3.709   5.554   0.227 -0.7294 -1.5880 -1.2641
18247TIP3   OH276231   1.451   0.450  11.697  0.5319 -0.0810 -0.1541
18247TIP3    H176232   1.375   0.504  11.717  0.7486  0.2137 -0.1240
18247TIP3    H276233   1.519   0.512  11.671  1.2229 -0.2043  1.2721
18248TIP3   OH276234   2.391   5.053  13.088  0.1125 -0.2051  0.1981
18248TIP3    H176235   2.401   4.996  13.163  0.0291  0.0112  0.3745
18248TIP3    H276236   2.327   5.119  13.116  0.2989  0.0460  0.0395
18249TIP3   OH276237   0.439   4.663  16.680 -0.3371  0.2957 -0.3344
18249TIP3    H176238   0.373   4.593  16.682  1.6009 -1.6380  0.7837
18249TIP3    H276239   0.437   4.700  16.768  0.2360  0.0763 -0.2310
18250TIP3   OH276240   4.151   0.208   4.099 -0.5068  0.2379 -0.0221
18250TIP3    H176241   4.078   0.152   4.126  0.8363 -1.2939  0.6022
18250TIP3    H276242   4.163   0.188   4.006  0.3208 -0.9888  0.3246
18251TIP3   OH276243   4.782   2.120  14.736 -0.4845 -0.5743 -0.3964
18251TIP3    H176244   4.688   2.135  14.737 -0.4911 -0.5792  0.4432
18251TIP3    H276245   4.799   2.069  14.815  0.3479  0.2870  0.0107
18252TIP3   OH276246   4.209   3.871  11.211  0.8980  0.1326 -0.3593
18252TIP3    H176247   4.182   3.880  11.302  0.1637  1.2513 -0.6736
18252TIP3    H276248   4.215   3.776  11.198 -1.2519 -0.1408  0.2163
18253TIP3   OH276249   6.310   5.859   6.144  0.2010  0.1622 -0.2255
18253TIP3    H176250   6.222   5.862   6.106 -0.3036  0.0772  0.8673
18253TIP3    H276251   6.366   5.828   6.074 -0.6360  0.2735 -0.9647
18254TIP3   OH276252   4.532   5.669  15.865 -0.3712 -0.2500 -0.1564
18254TIP3    H176253   4.492   5.695  15.948  0.1955  1.7526 -0.4467
18254TIP3    H276254   4.626   5.676  15.881 -0.1589 -2.1971 -0.3067
18255TIP3   OH276255   5.216   1.426  14.207  0.3462  0.3309 -0.0068
18255TIP3    H176256   5.230   1.405  14.115  1.3240 -0.4672  0.3094
18255TIP3    H276257   5.136   1.379  14.231  0.2081  0.3709 -0.3926
18256TIP3   OH276258   1.437   0.276  12.076  0.1753  0.2227  0.3305
18256TIP3    H176259   1.431   0.353  12.133 -0.0243 -0.2903  1.0235
18256TIP3    H276260   1.507   0.297  12.015  1.1610  0.3679  1.4636
18257TIP3   OH276261   5.742   2.331   5.567  0.2870 -0.0586 -0.0066
18257TIP3    H176262   5.806   2.296   5.629 -0.9307  1.3152  2.1608
18257TIP3    H276263   5.682   2.258   5.550  0.7597 -0.5167  0.2869
18258TIP3   OH276264   3.124   6.583   3.806  0.2658 -0.5590 -0.0704
18258TIP3    H176265   3.118   6.489   3.821  1.3861 -0.9229 -1.6182
18258TIP3    H276266   3.211   6.607   3.839 -0.0801  0.0004  0.4847
18259TIP3   OH276267   4.164   1.737   2.855 -0.1901 -0.2792  0.3362
18259TIP3    H176268   4.161   1.671   2.786 -1.1584 -1.0312  1.0768
18259TIP3    H276269   4.171   1.687   2.936 -2.9728  0.3875  1.0883
18260TIP3   OH276270   2.141   1.616  15.584  0.0088 -0.2830 -0.4097
18260TIP3    H176271   2.075   1.549  15.600 -1.0969  0.5134 -1.4532
18260TIP3    H276272   2.145   1.623  15.489  1.7542 -0.4290 -0.3871
18261TIP3   OH276273   5.982   1.411   0.429  0.1146 -0.5470  0.3847
18261TIP3    H176274   5.894   1.394   0.394  0.8597 -0.2707 -1.7764
18261TIP3    H276275   5.999   1.336   0.487 -1.5764 -0.5248  0.9776
18262TIP3   OH276276   6.789   4.341   0.742 -0.4687  0.3401  0.4218
18262TIP3    H176277   6.763   4.258   0.781  0.5254  0.4302  1.3306
18262TIP3    H276278   6.800   4.400   0.816  0.8507  0.6929 -0.0279
18263TIP3   OH276279   1.746   4.650  11.412  0.0466  0.2572 -0.5866
18263TIP3    H176280   1.772   4.737  11.383 -0.7586  1.2498  1.4867
18263TIP3    H276281   1.651   4.655  11.422 -0.0561 -0.9677 -0.7204
18264TIP3   OH276282   2.382   3.292  13.531  0.2033 -0.3222  0.1551
18264TIP3    H176283   2.367   3.332  13.617  0.6978 -1.8370  0.9768
18264TIP3    H276284   2.308   3.232  13.519 -0.5070  0.7335 -1.0468
18265TIP3   OH276285   0.262   1.808   5.448  0.2092  0.5321 -0.1621
18265TIP3    H176286   0.284   1.840   5.361 -0.3295 -0.3268 -0.6328
18265TIP3    H276287   0.168   1.825   5.458  0.2872  0.7129  0.2840
18266TIP3   OH276288   1.724   4.212  15.040  0.5820  0.4393  0.3397
18266TIP3    H176289   1.674   4.223  14.959  2.4619 -2.9054 -1.4993
18266TIP3    H276290   1.659   4.180  15.104 -0.6081  1.4739 -0.3119
18267TIP3   OH276291   3.280   2.047   5.625 -0.1392  0.1577 -0.0170
18267TIP3    H176292   3.261   1.970   5.679 -1.6643  1.4164  1.3051
18267TIP3    H276293   3.315   2.010   5.544  0.1001 -1.8862  0.9423
18268TIP3   OH276294   4.130   6.201   0.421  0.2845  0.8660 -0.4612
18268TIP3    H176295   4.221   6.219   0.442  0.5747 -1.1583  0.2669
18268TIP3    H276296   4.080   6.247   0.488  0.7647  1.7227 -0.6774
18269TIP3   OH276297   4.939   1.812   0.025  0.2241  0.5498 -0.6187
18269TIP3    H176298   4.928   1.717   0.030 -0.0740  0.1706 -4.7089
18269TIP3    H276299   4.856   1.849   0.054 -0.1685 -0.5148 -0.3747
18270TIP3   OH276300   3.728   2.114  11.071  0.0481  0.5839 -0.0669
18270TIP3    H176301   3.757   2.193  11.116  2.0644  0.4799 -1.0825
18270TIP3    H276302   3.699   2.143  10.985 -0.4989  0.3746  0.0442
18271TIP3   OH276303   5.548   1.008  16.383 -0.4309  0.0772  0.2405
18271TIP3    H176304   5.527   1.005  16.289  0.1645 -0.0404  0.1087
18271TIP3    H276305   5.532   1.099  16.407 -1.1001 -0.0097  0.1493
18272TIP3   OH276306   6.724   1.262   4.947  0.2957  0.6874  0.2527
18272TIP3    H176307   6.710   1.242   4.855 -1.6397  1.7417  0.2833
18272TIP3    H276308   6.812   1.300   4.950  1.1924 -1.1728 -0.8165
18273TIP3   OH276309   4.988   1.328  12.754  0.2421 -0.5070 -0.1055
18273TIP3    H176310   4.908   1.297  12.711  0.5409  0.4358 -1.3965
18273TIP3    H276311   5.057   1.270  12.721  0.3943 -0.0868 -0.5359
18274TIP3   OH276312   6.262   4.903   3.921 -0.4596 -0.0094 -0.2657
18274TIP3    H176313   6.177   4.858   3.923 -0.9001  0.6076 -2.7310
18274TIP3    H276314   6.296   4.892   4.010 -2.1441 -2.1177  0.2163
18275TIP3   OH276315   2.344   0.682  16.356 -0.0461  0.1484 -0.3479
18275TIP3    H176316   2.366   0.733  16.278 -0.8175  0.8309 -0.1406
18275TIP3    H276317   2.260   0.718  16.385 -0.0901 -0.5426  0.4141
18276TIP3   OH276318   2.330   4.748  11.218  0.2068  0.0949  0.5784
18276TIP3    H176319   2.302   4.656  11.218 -0.1790  0.2094  0.3304
18276TIP3    H276320   2.316   4.777  11.128 -2.4073  1.1862  1.2345
18277TIP3   OH276321   3.441   1.745   4.466  0.0161  0.4691  0.2225
18277TIP3    H176322   3.424   1.821   4.522 -0.0267  0.0731  0.7531
18277TIP3    H276323   3.415   1.670   4.519 -0.1576  0.0955 -0.3865
18278TIP3   OH276324   1.276   1.749   5.374 -0.5469 -0.8461 -0.4101
18278TIP3    H176325   1.252   1.707   5.457  0.0952  0.0794  0.2722
18278TIP3    H276326   1.342   1.691   5.336 -0.1201 -0.7802  0.2199
18279TIP3   OH276327   1.220   0.716  12.046  0.4406 -0.4936  0.3815
18279TIP3    H176328   1.240   0.803  12.079 -0.0318  0.2780 -1.2460
18279TIP3    H276329   1.146   0.687  12.099 -1.0945  1.2093 -0.7051
18280TIP3   OH276330   2.702   2.667  15.223 -0.7644  0.2029  0.5411
18280TIP3    H176331   2.757   2.630  15.291  0.1534  1.7446  0.7028
18280TIP3    H276332   2.633   2.714  15.270 -0.8050  0.3038  0.3840
18281TIP3   OH276333   3.460   1.558  14.004  0.3399  0.2186 -0.1143
18281TIP3    H176334   3.434   1.575  13.913 -2.9551  0.2642  0.7362
18281TIP3    H276335   3.463   1.645  14.044 -0.5089  0.0305  0.3633
18282TIP3   OH276336   1.111   4.670   4.060  0.1190 -0.1632 -0.1401
18282TIP3    H176337   1.128   4.681   3.966  0.5027  2.5701  0.1547
18282TIP3    H276338   1.181   4.613   4.091  0.9084  0.1586 -1.2579
18283TIP3   OH276339   5.906   3.033  14.532 -0.0084 -0.0126 -0.0505
18283TIP3    H176340   5.916   3.058  14.624  1.2279 -0.0086 -0.1664
18283TIP3    H276341   5.812   3.026  14.520 -0.2729  1.3309  0.8598
18284TIP3   OH276342   5.489   3.387  15.841 -0.4638 -0.0522  0.8017
18284TIP3    H176343   5.442   3.462  15.804 -1.1504 -0.7093  0.2889
18284TIP3    H276344   5.552   3.425  15.902 -0.5152  0.9625  0.2503
18285TIP3   OH276345   1.781   4.717  12.550 -0.6030 -0.0942  0.3542
18285TIP3    H176346   1.874   4.740  12.544 -0.7465  0.5199  0.4305
18285TIP3    H276347   1.756   4.744  12.639 -0.6928 -0.8740  0.5733
18286TIP3   OH276348   1.695   6.172   5.349 -0.0544 -0.1274  0.8528
18286TIP3    H176349   1.774   6.135   5.390  0.0032  0.0604  0.9147
18286TIP3    H276350   1.728   6.246   5.298  0.0741 -1.2234 -0.7236
18287TIP3   OH276351   4.317   3.319  17.044  0.7349 -0.3638 -0.4321
18287TIP3    H176352   4.309   3.334  17.138 -0.1122 -0.1976 -0.5192
18287TIP3    H276353   4.304   3.406  17.004  2.1398 -0.2401 -0.6634
18288TIP3   OH276354   1.923   6.232  14.760  0.2578 -0.1622 -0.0347
18288TIP3    H176355   1.901   6.183  14.839  2.2852 -0.1637  0.5979
18288TIP3    H276356   1.850   6.216  14.701 -1.2082 -0.3564  1.7405
18289TIP3   OH276357   3.965   2.349   2.707 -0.3335  0.4478  0.7964
18289TIP3    H176358   3.961   2.286   2.779 -0.5583 -0.3317  0.1188
18289TIP3    H276359   4.059   2.358   2.689 -0.3492 -1.1183 -0.2929
18290TIP3   OH276360   2.886   6.521  15.000  0.1662 -0.3720 -0.1294
18290TIP3    H176361   2.973   6.561  14.992 -0.2911  0.4626 -1.1137
18290TIP3    H276362   2.863   6.495  14.911 -0.3113 -1.2310  0.2281
18291TIP3   OH276363   0.512   3.713   0.814 -0.1139 -0.2951  0.2542
18291TIP3    H176364   0.427   3.735   0.852 -0.8705 -1.5048 -0.6791
18291TIP3    H276365   0.542   3.638   0.866  0.2437 -0.0687  0.3774
18292TIP3   OH276366   3.776   6.252  13.170  0.5731 -0.1738 -0.6200
18292TIP3    H176367   3.839   6.287  13.234  0.7300 -0.0422 -0.8448
18292TIP3    H276368   3.786   6.308  13.093  0.2594 -0.2240 -0.6988
18293TIP3   OH276369   3.971   3.721   4.709  0.2842 -0.0877  0.5336
18293TIP3    H176370   3.895   3.705   4.766 -0.6670 -1.0351 -0.9273
18293TIP3    H276371   3.997   3.634   4.680  0.1371  0.4083 -1.1999
18294TIP3   OH276372   4.571   2.277  12.561 -0.2886 -0.4551 -0.4104
18294TIP3    H176373   4.493   2.262  12.508 -0.3644 -0.7764 -0.2084
18294TIP3    H276374   4.644   2.248  12.506 -0.3106 -0.1928 -0.5826
18295TIP3   OH276375   0.393   0.034   4.635 -0.0667  0.9778  0.0195
18295TIP3    H176376   0.407  -0.060   4.630  1.5665  1.2498 -1.0965
18295TIP3    H276377   0.381   0.052   4.728 -1.0947 -0.4068  0.1766
18296TIP3   OH276378   1.478   6.381   4.808 -0.4635  0.3822 -0.4536
18296TIP3    H176379   1.392   6.340   4.808 -0.3554 -0.0474  2.3107
18296TIP3    H276380   1.510   6.369   4.897  2.6564  0.1615 -1.4746
18297TIP3   OH276381   1.866   2.933   0.523  0.1194  0.3885 -0.2437
18297TIP3    H176382   1.881   2.970   0.436 -1.0531 -0.6341 -0.9113
18297TIP3    H276383   1.814   2.855   0.507  2.4553 -1.5983  1.0853
18298TIP3   OH276384   5.739   0.002   3.519 -0.2585  0.0910 -0.5325
18298TIP3    H176385   5.755  -0.060   3.447 -0.1325  0.2250 -0.6226
18298TIP3    H276386   5.711   0.082   3.475 -2.2133 -0.4359 -0.3234
18299TIP3   OH276387   0.048   5.396   5.076  0.2322 -0.0218 -0.7398
18299TIP3    H176388   0.118   5.372   5.137 -1.2299  1.2169  1.5570
18299TIP3    H276389  -0.021   5.333   5.094  0.1888 -0.3585 -1.9943
18300TIP3   OH276390   5.557   2.280  13.676 -0.2361 -0.9946 -0.0993
18300TIP3    H176391   5.465   2.270  13.701 -0.3054  2.2629  1.4922
18300TIP3    H276392   5.601   2.308  13.757  1.2054  1.8992 -1.7212
18301TIP3   OH276393   6.392   0.928   1.130  0.2567 -0.4225  0.0293
18301TIP3    H176394   6.423   0.862   1.068  0.6271  1.2118 -1.6191
18301TIP3    H276395   6.445   1.005   1.110 -1.5434  0.9770  0.4873
18302TIP3   OH276396   5.243   0.583  16.085  0.0306  0.1200  0.4452
18302TIP3    H176397   5.190   0.638  16.026  1.0013 -0.0545 -0.6264
18302TIP3    H276398   5.231   0.494  16.051  1.7052  0.1757 -0.4197
18303TIP3   OH276399   4.435   2.322  13.496 -0.3217  0.0454  0.6883
18303TIP3    H176400   4.513   2.305  13.549  0.4144 -1.2579 -0.7327
18303TIP3    H276401   4.462   2.390  13.435  0.2310 -1.3873 -0.7485
18304TIP3   OH276402   5.460   0.495   3.699 -0.0556 -0.3178  0.2231
18304TIP3    H176403   5.391   0.548   3.660  0.0174 -0.5721 -0.2542
18304TIP3    H276404   5.501   0.450   3.625  1.0512  0.3283  0.4105
18305TIP3   OH276405   3.847   0.636   3.632 -0.8031 -0.0101  0.6254
18305TIP3    H176406   3.846   0.723   3.673  0.5037  0.2380  0.1794
18305TIP3    H276407   3.761   0.599   3.654 -1.9217  1.8860 -0.2519
18306TIP3   OH276408   5.438   0.500   5.218 -0.0556  0.1314  0.6893
18306TIP3    H176409   5.466   0.573   5.273 -0.7641  0.2619  0.8883
18306TIP3    H276410   5.404   0.435   5.279 -1.7553  0.6707  0.3831
18307TIP3   OH276411   4.461   6.812  13.046  0.0933  0.2573  0.2260
18307TIP3    H176412   4.537   6.777  13.001 -0.1362  2.3965 -2.0663
18307TIP3    H276413   4.478   6.798  13.139  2.4770 -0.8157 -0.3240
18308TIP3   OH276414   0.039   3.343   0.815  0.2946  0.0574 -0.3092
18308TIP3    H176415  -0.056   3.345   0.805 -0.0646  1.1216  2.5126
18308TIP3    H276416   0.072   3.380   0.734 -1.6092 -1.3131 -1.8092
18309TIP3   OH276417   1.971   3.581  17.217  0.9002  0.2458  0.2853
18309TIP3    H176418   1.947   3.529  17.294 -1.1124  0.6639  0.0123
18309TIP3    H276419   2.059   3.553  17.195  0.3246 -2.2484  0.8075
18310TIP3   OH276420   5.412   2.175  10.777 -0.0429  0.5778 -0.0503
18310TIP3    H176421   5.415   2.176  10.682  0.8389  1.1264 -0.0242
18310TIP3    H276422   5.373   2.259  10.801  0.4571  0.7765  0.0847
18311TIP3   OH276423   0.841   3.353  17.076 -0.2432 -0.1127 -0.2769
18311TIP3    H176424   0.823   3.446  17.061 -1.8308 -0.3043  0.2486
18311TIP3    H276425   0.811   3.337  17.166 -0.4981 -1.2548 -0.5565
18312TIP3   OH276426   0.615   2.247  11.966 -0.5234 -0.2358 -0.3058
18312TIP3    H176427   0.669   2.325  11.952  1.5181 -1.5157 -0.1047
18312TIP3    H276428   0.541   2.258  11.907 -0.5252  2.0418  0.0490
18313TIP3   OH276429   6.050   0.693   2.733 -0.0641 -0.0363  0.0836
18313TIP3    H176430   6.098   0.760   2.782  0.0530 -0.9669  1.2779
18313TIP3    H276431   6.006   0.742   2.663  0.9785  1.1144  0.1984
18314TIP3   OH276432   2.974   6.477   4.999  0.0014  0.3925  0.3118
18314TIP3    H176433   2.995   6.415   4.930 -0.1781  0.2582  0.3793
18314TIP3    H276434   2.957   6.423   5.076 -1.0760  0.4798  0.1411
18315TIP3   OH276435   3.001   6.245   1.547 -0.5969  0.2766  0.0755
18315TIP3    H176436   2.914   6.240   1.585 -0.9829 -2.2809 -0.9481
18315TIP3    H276437   3.011   6.337   1.520 -1.6067  1.3813  3.1366
18316TIP3   OH276438   4.789   2.749   4.533 -0.0166 -0.1647 -0.0246
18316TIP3    H176439   4.792   2.822   4.471  0.9354 -0.7015 -0.6400
18316TIP3    H276440   4.711   2.699   4.508  0.1443 -0.1644 -0.5430
18317TIP3   OH276441   0.786   0.704   4.763 -0.1237  0.7960 -0.0353
18317TIP3    H176442   0.739   0.779   4.799 -0.6466  1.0631 -1.1965
18317TIP3    H276443   0.745   0.690   4.677  0.3186 -0.4894 -0.0549
18318TIP3   OH276444   4.747   4.307   6.305 -0.1601  0.0206  0.0485
18318TIP3    H176445   4.676   4.282   6.365  0.7291  0.3845  1.3112
18318TIP3    H276446   4.796   4.226   6.291 -0.4026 -0.0777 -0.2374
18319TIP3   OH276447   0.237   3.411   6.263  0.0651 -0.0274  0.0047
18319TIP3    H176448   0.203   3.420   6.352  0.6332 -0.9139  0.3251
18319TIP3    H276449   0.306   3.477   6.257 -0.4533  0.5181 -0.0266
18320TIP3   OH276450   1.561   0.543  13.191 -0.2564  0.0325 -0.4802
18320TIP3    H176451   1.534   0.600  13.118 -0.1471  0.3848 -0.2457
18320TIP3    H276452   1.611   0.600  13.249  2.0345 -0.8567 -1.4620
18321TIP3   OH276453   4.918   4.132  14.413  0.0872 -0.0915  0.2541
18321TIP3    H176454   4.940   4.110  14.323  0.9633 -0.6308  0.5822
18321TIP3    H276455   4.891   4.049  14.452 -1.1067  0.2887  0.2750
18322TIP3   OH276456   0.146   4.707  15.114  0.3513 -0.3438  0.1466
18322TIP3    H176457   0.084   4.641  15.145  0.0675 -0.6889 -1.1126
18322TIP3    H276458   0.108   4.740  15.033  0.4167  1.4973  0.8384
18323TIP3   OH276459   0.690   1.978  16.510  0.2316  0.7339  0.8288
18323TIP3    H176460   0.750   2.053  16.512  0.4744  0.7475 -1.9994
18323TIP3    H276461   0.606   2.016  16.487 -0.2293  0.3817  1.8830
18324TIP3   OH276462   1.931   0.110  13.622 -0.5492  0.1337 -0.2634
18324TIP3    H176463   1.926   0.034  13.679 -1.1196  0.7248  0.4862
18324TIP3    H276464   2.020   0.108  13.587  0.3645  0.6562  1.9172
18325TIP3   OH276465   6.708   3.618   2.326 -0.4432 -0.1758 -0.0545
18325TIP3    H176466   6.713   3.621   2.421 -0.1977 -1.3973 -0.0148
18325TIP3    H276467   6.619   3.588   2.307 -0.3555 -0.3488 -0.1962
18326TIP3   OH276468   3.361   1.222   3.062  0.0024 -0.8349 -0.0645
18326TIP3    H176469   3.338   1.163   2.990 -1.2147 -1.6902  0.9748
18326TIP3    H276470   3.290   1.285   3.065 -0.2977 -1.1948  0.7753
18327TIP3   OH276471   0.933   1.963  13.765 -0.3063  0.0303  0.7364
18327TIP3    H176472   1.028   1.972  13.778  0.2548  2.2801 -3.2875
18327TIP3    H276473   0.896   2.045  13.797 -0.3528  0.6435 -0.7844
18328TIP3   OH276474   3.543   5.781  11.360  0.0820 -1.1013  0.4062
18328TIP3    H176475   3.603   5.707  11.370 -0.0708 -1.2821  0.0284
18328TIP3    H276476   3.477   5.750  11.298 -0.7451 -1.1115  1.2696
18329TIP3   OH276477   5.005   3.496  16.889  0.4879  0.0671 -0.5491
18329TIP3    H176478   4.928   3.458  16.931  1.0409 -1.8586 -1.1790
18329TIP3    H276479   4.969   3.559  16.827 -0.7220 -1.7846 -1.8422
18330TIP3   OH276480   4.385   5.638   2.651 -0.7217 -0.2659 -0.5992
18330TIP3    H176481   4.333   5.571   2.696 -0.7315  1.2750  1.8949
18330TIP3    H276482   4.445   5.588   2.596 -0.3817 -2.3999  1.5018
18331TIP3   OH276483   5.246   6.457  14.841 -0.0468 -0.2749  0.5906
18331TIP3    H176484   5.275   6.414  14.760  0.6697  1.3520 -0.0543
18331TIP3    H276485   5.212   6.542  14.813 -0.4547  0.0303  1.9352
18332TIP3   OH276486   2.195   3.289  14.125 -0.0583 -0.5192 -1.0597
18332TIP3    H176487   2.261   3.358  14.134 -0.7104 -0.1423  2.3997
18332TIP3    H276488   2.233   3.228  14.061  3.1616  0.2350 -0.0752
18333TIP3   OH276489   3.671   3.974  15.439 -0.5756  0.5073  0.7910
18333TIP3    H176490   3.637   3.885  15.428 -0.2641  0.6427 -1.6920
18333TIP3    H276491   3.765   3.962  15.450 -0.5376  0.5269  0.4888
18334TIP3   OH276492   4.419   6.189  12.385  0.2055  0.4272  0.0770
18334TIP3    H176493   4.475   6.230  12.451  0.0000 -2.3010  2.1297
18334TIP3    H276494   4.476   6.125  12.343 -0.2681  0.6061 -0.8532
18335TIP3   OH276495   6.796   3.990  14.377 -0.5110  0.6828  0.2420
18335TIP3    H176496   6.749   4.017  14.455  2.0297  2.2613  1.3420
18335TIP3    H276497   6.781   4.060  14.313 -3.1333 -0.9191 -1.0427
18336TIP3   OH276498   0.056   1.852  16.935  0.3715 -0.5525 -0.1549
18336TIP3    H176499   0.041   1.801  16.855 -0.4169 -0.7470  0.1149
18336TIP3    H276500   0.126   1.805  16.980 -1.4796 -2.4172  0.9275
18337TIP3   OH276501   0.832   5.595  15.649 -0.0047 -0.0517 -0.3195
18337TIP3    H176502   0.811   5.578  15.741  0.7327 -1.0483 -0.3117
18337TIP3    H276503   0.832   5.508  15.608  0.2729  0.3163 -1.1332
18338TIP3   OH276504   1.887   1.697   4.672  0.7159  0.2069 -0.1476
18338TIP3    H176505   1.934   1.619   4.642 -0.0289 -1.2139  2.1448
18338TIP3    H276506   1.952   1.747   4.720  0.5317 -0.4732  0.8331
18339TIP3   OH276507   0.755   3.715  12.373  0.5862  0.1384 -0.1838
18339TIP3    H176508   0.677   3.770  12.367  0.2210 -0.4518 -1.0667
18339TIP3    H276509   0.748   3.674  12.460 -0.6263 -0.6785 -0.6385
18340TIP3   OH276510   2.443   0.500   1.878  0.2667 -0.1505 -0.5085
18340TIP3    H176511   2.483   0.473   1.796  0.4956 -0.6544 -0.2404
18340TIP3    H276512   2.350   0.477   1.869  0.3133 -0.3065 -0.5853
18341TIP3   OH276513   4.103   2.506   1.161 -0.2123  0.6364 -0.2766
18341TIP3    H176514   4.092   2.600   1.171  1.2497  0.9185 -0.9876
18341TIP3    H276515   4.052   2.468   1.232 -1.8173  1.8936 -0.6964
18342TIP3   OH276516   6.670   4.768  11.940 -0.0400  0.7090 -0.4215
18342TIP3    H176517   6.721   4.841  11.905  0.3945 -0.0406 -1.3872
18342TIP3    H276518   6.579   4.795  11.931  0.1093  1.0100 -1.0597
18343TIP3   OH276519   4.120   5.146   6.144  0.4350  0.2775 -0.1045
18343TIP3    H176520   4.077   5.229   6.122 -0.5432  0.3213  1.7471
18343TIP3    H276521   4.155   5.160   6.232  1.5691 -0.8152 -0.3459
18344TIP3   OH276522   0.619   0.732  11.155 -0.1061  0.0353  0.6714
18344TIP3    H176523   0.654   0.785  11.083 -1.2376 -1.3384 -0.9903
18344TIP3    H276524   0.697   0.697  11.198  0.6506  2.5154  1.4821
18345TIP3   OH276525   0.333   3.874   3.182 -0.6720  0.4328 -0.3321
18345TIP3    H176526   0.299   3.958   3.211 -1.9275 -0.9830  2.7589
18345TIP3    H276527   0.419   3.866   3.223 -0.7428  0.0266 -0.2553
18346TIP3   OH276528   4.467   5.638   0.378 -0.0098 -0.0306 -0.2733
18346TIP3    H176529   4.515   5.717   0.404 -0.7948  0.3631  0.0104
18346TIP3    H276530   4.378   5.668   0.362  0.0611 -0.5481 -1.8754
18347TIP3   OH276531   0.889   6.490   3.264  0.1128 -0.4452  0.1632
18347TIP3    H176532   0.956   6.504   3.197  0.0331 -0.0017  0.1744
18347TIP3    H276533   0.833   6.421   3.229  0.4747 -0.7039  0.0801
18348TIP3   OH276534   4.357   1.731   1.712  0.6748 -0.3148  0.0896
18348TIP3    H176535   4.275   1.769   1.744  0.2518  0.3005 -1.6043
18348TIP3    H276536   4.423   1.757   1.776 -0.2952 -0.0476  1.0029
18349TIP3   OH276537   2.395   2.498  14.893  0.0527  0.2454 -0.3989
18349TIP3    H176538   2.390   2.405  14.916  0.0289  0.5740  1.0494
18349TIP3    H276539   2.305   2.524  14.878 -0.2033  0.5037  1.3433
18350TIP3   OH276540   4.973   4.175   2.845  0.6115 -0.3649 -0.2663
18350TIP3    H176541   5.065   4.169   2.820  0.9783  2.3193  0.0669
18350TIP3    H276542   4.943   4.258   2.808 -1.5021 -0.8231  0.2345
18351TIP3   OH276543   1.167   5.267  12.879 -0.3810 -0.4185  0.0111
18351TIP3    H176544   1.186   5.227  12.793  0.3505  1.0622 -0.5568
18351TIP3    H276545   1.200   5.203  12.942  0.6777 -0.7703 -0.8599
18352TIP3   OH276546   1.286   3.477  11.345  0.3860  0.0590 -0.3226
18352TIP3    H176547   1.372   3.442  11.371 -0.0703  1.0172  2.9179
18352TIP3    H276548   1.230   3.400  11.340  0.5726 -0.2397  1.5400
18353TIP3   OH276549   6.525   3.922   2.197 -0.8838 -0.0467  0.3666
18353TIP3    H176550   6.459   3.866   2.156 -1.0268  0.4270 -0.0650
18353TIP3    H276551   6.588   3.939   2.127 -0.2388 -0.6006  0.8129
18354TIP3   OH276552   6.766   0.753   6.918 -0.2232 -0.2090 -0.2159
18354TIP3    H176553   6.808   0.667   6.914  1.0656  0.4362 -1.2429
18354TIP3    H276554   6.740   0.771   6.828  2.3920  1.7926 -0.7140
18355TIP3   OH276555   0.458   3.972   2.468  0.2350 -0.3349 -0.1343
18355TIP3    H176556   0.429   3.990   2.557  1.1225  0.3726  0.0217
18355TIP3    H276557   0.546   3.934   2.478  1.8166  2.8531 -0.7930
18356TIP3   OH276558   1.468   4.920  14.622 -0.0237 -0.4254 -0.0760
18356TIP3    H176559   1.555   4.881  14.625 -0.3137 -1.2802  4.3717
18356TIP3    H276560   1.481   5.011  14.648 -0.3262 -0.0497 -1.1848
18357TIP3   OH276561   1.310   2.066   3.225 -0.5067 -0.3343  0.0237
18357TIP3    H176562   1.268   2.035   3.305  1.9291  1.6142  2.2421
18357TIP3    H276563   1.360   2.143   3.252  0.0168  0.7905 -3.5323
18358TIP3   OH276564   4.804   2.110  10.604  0.2870 -0.2321  0.1044
18358TIP3    H176565   4.773   2.122  10.514  0.6982 -0.1267 -0.0230
18358TIP3    H276566   4.838   2.021  10.606  0.4846 -0.1558  0.0981
18359TIP3   OH276567   1.387   5.627   2.076  0.1718  0.2081  0.1681
18359TIP3    H176568   1.476   5.609   2.105 -0.2566 -0.3022  1.2310
18359TIP3    H276569   1.384   5.597   1.986  0.7651 -0.8054  0.4705
18360TIP3   OH276570   6.455   4.354   2.848  0.6346  0.3159 -0.1344
18360TIP3    H176571   6.534   4.311   2.815  0.2630 -0.6280  0.1883
18360TIP3    H276572   6.488   4.427   2.901  1.3151 -0.6621  0.8056
18361TIP3   OH276573   3.767   1.883   3.875  0.0755 -0.1702 -0.2294
18361TIP3    H176574   3.850   1.870   3.920 -0.1065  1.2557  0.5815
18361TIP3    H276575   3.718   1.802   3.890  0.9007 -0.5943  0.2139
18362TIP3   OH276576   0.920   2.729   1.030  0.4772 -0.2794 -0.3926
18362TIP3    H176577   0.896   2.637   1.020  0.4786 -0.1291 -2.0260
18362TIP3    H276578   0.979   2.730   1.105  1.7390 -1.8630 -1.2995
18363TIP3   OH276579   6.583   5.900  13.201 -0.1103  0.6246 -0.2026
18363TIP3    H176580   6.659   5.842  13.195  1.2415  2.3148 -0.3359
18363TIP3    H276581   6.567   5.927  13.111  0.2089  1.5615  0.0102
18364TIP3   OH276582   4.972   5.419   0.349 -1.0400 -0.0961 -0.0411
18364TIP3    H176583   4.982   5.342   0.405 -1.2295 -0.9841 -1.1857
18364TIP3    H276584   4.926   5.386   0.272  0.9190  0.6203 -1.5999
18365TIP3   OH276585   0.836   5.688  11.371  0.1711 -0.8932  0.4114
18365TIP3    H176586   0.820   5.780  11.390  0.4817 -0.7431 -0.0497
18365TIP3    H276587   0.754   5.644  11.395 -1.3540 -0.0357 -2.7342
18366TIP3   OH276588   4.609   3.159  13.643  0.1471 -0.3141 -0.2169
18366TIP3    H176589   4.656   3.233  13.605  1.4964 -0.9148  0.2024
18366TIP3    H276590   4.517   3.178  13.627  0.5849  0.0671 -2.6264
18367TIP3   OH276591   4.389   5.038  13.846 -0.0897 -0.1378 -0.5950
18367TIP3    H176592   4.415   4.946  13.837 -0.9228 -0.3349 -1.0911
18367TIP3    H276593   4.338   5.056  13.768  1.3458  1.2104 -1.2858
18368TIP3   OH276594   1.261   2.313   5.546  0.0201  0.1125 -0.1401
18368TIP3    H176595   1.277   2.329   5.453  1.7376 -2.8494 -0.4906
18368TIP3    H276596   1.223   2.394   5.579  0.0688  1.5157 -3.2471
18369TIP3   OH276597   2.820   4.540  13.377  0.1099  0.3809  0.6903
18369TIP3    H176598   2.818   4.517  13.284 -0.3109 -0.2877  0.8590
18369TIP3    H276599   2.758   4.480  13.418  2.3305 -1.2902  1.8276
18370TIP3   OH276600   5.313   4.753  14.447 -0.1767  0.8344  0.4096
18370TIP3    H176601   5.234   4.757  14.500 -0.8446  2.7951 -0.6310
18370TIP3    H276602   5.284   4.716  14.364  0.5841 -0.9587  0.9077
18371TIP3   OH276603   0.328   1.047   5.138  0.6018  0.5349 -0.5222
18371TIP3    H176604   0.311   1.050   5.232 -1.7002  0.5518 -0.8863
18371TIP3    H276605   0.333   0.953   5.118  0.5847  0.5209 -0.4616
18372TIP3   OH276606   2.538   2.540  12.311  0.4486  0.2175 -0.2400
18372TIP3    H176607   2.485   2.533  12.390 -1.1084  0.6449 -1.2141
18372TIP3    H276608   2.592   2.618  12.325  1.8736 -0.9591  1.3236
18373TIP3   OH276609   0.115   6.039   3.019 -0.4349  0.1253  0.6277
18373TIP3    H176610   0.039   6.014   2.966  0.2386 -1.8063  0.4974
18373TIP3    H276611   0.170   6.090   2.959 -1.2506  0.8786  0.4966
18374TIP3   OH276612   5.807   4.211   4.886 -0.6079 -0.6357  0.0453
18374TIP3    H176613   5.883   4.210   4.945  0.8494  2.8639 -1.5292
18374TIP3    H276614   5.795   4.119   4.861  1.7033 -1.5789  2.0203
18375TIP3   OH276615   4.542   5.536  16.665  0.6130  0.1163 -0.0084
18375TIP3    H176616   4.611   5.573  16.610  1.0883  1.2071  1.2799
18375TIP3    H276617   4.515   5.457  16.619  0.5611  1.2933 -2.1284
18376TIP3   OH276618   0.638   3.759   6.612 -0.0129  0.0323 -0.0493
18376TIP3    H176619   0.605   3.672   6.586 -1.1994  0.7107 -0.9199
18376TIP3    H276620   0.567   3.797   6.663  0.9210  0.1144  1.2466
18377TIP3   OH276621   5.006   3.530  15.481 -0.3128 -0.0433  0.0904
18377TIP3    H176622   5.025   3.541  15.574 -0.5981 -1.6251  0.3595
18377TIP3    H276623   5.091   3.511  15.441 -0.5122 -1.7816  0.4381
18378TIP3   OH276624   5.384   2.850  11.823  0.5691 -0.0219 -0.0576
18378TIP3    H176625   5.416   2.936  11.794  0.6327 -0.0973 -0.2094
18378TIP3    H276626   5.319   2.871  11.890  1.0783  0.1253  0.3983
18379TIP3   OH276627   3.203   0.119   5.119 -0.3420  0.8959 -0.7418
18379TIP3    H176628   3.239   0.030   5.128 -0.6430  0.9642  2.8264
18379TIP3    H276629   3.138   0.112   5.049  0.4366 -1.4050 -1.3182
18380TIP3   OH276630   5.128   4.492   1.218  0.5005  0.3266  0.0085
18380TIP3    H176631   5.195   4.512   1.282 -0.4076  0.1870  1.0230
18380TIP3    H276632   5.058   4.555   1.235  0.6022  0.8893 -1.4472
18381TIP3   OH276633   5.879   6.507   0.031  0.0996  0.2636  0.2007
18381TIP3    H176634   5.802   6.451   0.037  0.8545 -0.9156 -0.5914
18381TIP3    H276635   5.853   6.578  -0.027 -0.3471 -0.2101 -0.1887
18382TIP3   OH276636   0.599   4.961   0.231 -0.0820 -0.2220 -0.0081
18382TIP3    H176637   0.517   5.006   0.251 -0.3121  0.5224 -2.3419
18382TIP3    H276638   0.581   4.914   0.150  0.4908 -3.7686  1.7104
18383TIP3   OH276639   6.638   1.646  11.683  0.8911 -0.3818  0.3154
18383TIP3    H176640   6.562   1.590  11.664  1.2977 -1.1884  0.9865
18383TIP3    H276641   6.685   1.652  11.600 -1.4959  2.7273 -1.0123
18384TIP3   OH276642   3.515   5.496  16.333  0.2132  0.0228 -0.4034
18384TIP3    H176643   3.510   5.427  16.266 -2.2229 -0.6487  0.3374
18384TIP3    H276644   3.565   5.456  16.404  2.4893  0.6071 -1.5802
18385TIP3   OH276645   2.133   2.155   5.723  0.0559 -0.5067  0.0952
18385TIP3    H176646   2.108   2.120   5.637 -1.8900 -0.6919  0.6838
18385TIP3    H276647   2.079   2.234   5.733  1.9395  0.8448  0.2106
18386TIP3   OH276648   1.905   1.488  16.617 -0.3613 -0.5387 -0.2012
18386TIP3    H176649   1.887   1.574  16.579  1.4133 -0.0540 -0.0331
18386TIP3    H276650   1.936   1.506  16.706  2.5881 -1.0556 -0.9968
18387TIP3   OH276651   0.285   6.680   0.239 -0.3216 -0.0336  0.5545
18387TIP3    H176652   0.272   6.643   0.326 -0.4003 -0.2739  0.4412
18387TIP3    H276653   0.248   6.615   0.179 -0.1162  0.0535  0.3307
18388TIP3   OH276654   4.224   2.163   5.789 -0.3200  0.1597  0.0561
18388TIP3    H176655   4.218   2.205   5.875 -1.8969  1.0583 -0.4355
18388TIP3    H276656   4.301   2.108   5.795  0.2105  0.9815  1.7031
18389TIP3   OH276657   4.395   6.281  16.719 -0.3933 -0.3062  0.3108
18389TIP3    H176658   4.428   6.351  16.775 -0.7143 -0.1869  0.3587
18389TIP3    H276659   4.300   6.293  16.721 -0.4028 -0.2353 -0.3421
18390TIP3   OH276660   1.960   0.806   3.090  1.0202 -0.2337  0.0114
18390TIP3    H176661   1.972   0.898   3.110 -1.5031 -0.2678  2.2281
18390TIP3    H276662   1.993   0.760   3.167  1.8601 -1.1794 -0.8875
18391TIP3   OH276663   6.555   1.205   5.646  0.1139 -0.5538  0.1889
18391TIP3    H176664   6.504   1.168   5.719 -1.3815 -0.5679 -0.8154
18391TIP3    H276665   6.561   1.133   5.583 -0.0026 -0.0622 -0.3870
18392TIP3   OH276666   2.154   2.471  12.366 -0.5433 -0.7059  0.3981
18392TIP3    H176667   2.118   2.555  12.393  0.3748  0.1891 -0.9854
18392TIP3    H276668   2.231   2.458  12.422 -0.8476 -0.7654  0.8033
18393TIP3   OH276669   1.475   1.013   1.217  0.2149 -0.3608 -0.3814
18393TIP3    H176670   1.433   0.927   1.207 -2.4638  0.4591  2.3338
18393TIP3    H276671   1.402   1.076   1.213  1.5218  1.4204  1.5547
18394TIP3   OH276672   0.367   2.930  11.257  0.2719  0.7568  0.0997
18394TIP3    H176673   0.396   2.907  11.169  1.9596 -1.2512  1.1174
18394TIP3    H276674   0.272   2.939  11.249  0.5108  1.8647 -2.1543
18395TIP3   OH276675   0.101   6.325   4.502 -0.0570 -0.0118  0.0315
18395TIP3    H176676   0.159   6.341   4.577  2.6484 -2.8797 -1.1750
18395TIP3    H276677   0.128   6.390   4.437 -0.2825  0.5470  0.4895
18396TIP3   OH276678   0.913   0.354  16.711 -0.1896  0.0508  0.6746
18396TIP3    H176679   0.893   0.267  16.745 -2.4179 -0.0909 -0.7298
18396TIP3    H276680   0.830   0.402  16.718  0.3002  1.2205 -0.8466
18397TIP3   OH276681   0.133   3.452   2.671  0.9405  0.0008 -0.5501
18397TIP3    H176682   0.140   3.545   2.692  0.1779  0.2300 -1.2543
18397TIP3    H276683   0.124   3.409   2.756 -1.2283  0.8235 -0.2823
18398TIP3   OH276684   4.791   1.427   5.946 -0.1771  0.0344  0.1862
18398TIP3    H176685   4.738   1.358   5.907  1.0317 -1.4079  0.9874
18398TIP3    H276686   4.838   1.384   6.018 -2.7677  2.6077  3.7827
18399TIP3   OH276687   4.924   2.174  16.277  0.0617  0.2092 -0.3870
18399TIP3    H176688   4.898   2.147  16.364 -0.7050  0.0807 -0.6495
18399TIP3    H276689   4.848   2.156  16.222 -0.5562  2.9162 -0.5762
18400TIP3   OH276690   5.152   5.553  17.106 -0.1881 -0.0714 -0.1661
18400TIP3    H176691   5.118   5.466  17.124 -1.5143  0.5282  0.4145
18400TIP3    H276692   5.170   5.590  17.193 -0.4851  0.5506 -0.3666
18401TIP3   OH276693   6.504   0.116   5.801 -0.2696  0.3852  0.5664
18401TIP3    H176694   6.578   0.101   5.859 -1.2676 -2.4282  1.2615
18401TIP3    H276695   6.451   0.182   5.846  0.4493  0.4215  1.3776
18402TIP3   OH276696   4.993   5.811   5.236 -0.1071 -0.1299 -0.7014
18402TIP3    H176697   5.017   5.721   5.258 -0.1239  0.0511  0.1169
18402TIP3    H276698   5.060   5.864   5.279 -2.2133  0.4329  2.2166
18403TIP3   OH276699   0.462   5.370  11.400  0.1575 -0.0267  0.1101
18403TIP3    H176700   0.410   5.396  11.324  1.7936  2.6968 -0.1839
18403TIP3    H276701   0.400   5.376  11.473 -0.5403  0.7890 -0.5261
18404TIP3   OH276702   6.702   2.600   6.193  0.3639  0.5743 -0.3402
18404TIP3    H176703   6.669   2.531   6.250  1.4956  1.8477  1.9969
18404TIP3    H276704   6.625   2.648   6.165 -0.2227 -0.1020  0.0873
18405TIP3   OH276705   4.680   6.437  10.733  0.6736 -0.5089  0.3837
18405TIP3    H176706   4.733   6.364  10.704  0.0182 -0.9354  0.2332
18405TIP3    H276707   4.663   6.419  10.826 -0.0077 -0.8808  0.1935
18406TIP3   OH276708   4.180   5.074  17.163 -0.3244 -0.1608 -0.5413
18406TIP3    H176709   4.225   5.006  17.213 -0.7259  0.2087  0.3526
18406TIP3    H276710   4.160   5.033  17.079  0.2947 -0.8263 -0.3727
18407TIP3   OH276711   2.864   5.013  16.238 -0.0886  0.5057 -0.1216
18407TIP3    H176712   2.881   5.107  16.237  0.8376  0.3520 -0.7944
18407TIP3    H276713   2.930   4.977  16.297  0.1089  0.1977 -0.5220
18408TIP3   OH276714   4.375   3.845   0.503  0.2133 -0.3923  0.0625
18408TIP3    H176715   4.469   3.846   0.519  0.1661  0.8212  0.3655
18408TIP3    H276716   4.337   3.805   0.581  0.2547  2.2216  1.5555
18409TIP3   OH276717   5.386   3.037   3.043  0.6496 -0.2793 -0.5197
18409TIP3    H176718   5.453   3.056   2.978  0.4429  0.8808 -0.4099
18409TIP3    H276719   5.435   3.007   3.120  1.2788  2.5671  0.3090
18410TIP3   OH276720   6.140   4.604  12.830 -0.3023  0.1908  0.1316
18410TIP3    H176721   6.158   4.556  12.910 -0.1919  1.3068  0.7975
18410TIP3    H276722   6.168   4.693  12.849 -0.1435  0.4440 -1.1986
18411TIP3   OH276723   5.490   5.441   1.738  0.3653  0.1148  0.4156
18411TIP3    H176724   5.508   5.347   1.741  1.0244  0.2374  0.4507
18411TIP3    H276725   5.424   5.450   1.669  1.7796 -0.1636 -1.0473
18412TIP3   OH276726   5.315   1.652  11.270 -0.2269  0.3254 -1.0754
18412TIP3    H176727   5.248   1.670  11.336 -0.4136 -0.0271 -1.1676
18412TIP3    H276728   5.382   1.602  11.317 -0.4179 -0.0320 -1.1804
18413TIP3   OH276729   6.504   3.262   0.428 -0.3115 -0.5579  0.2442
18413TIP3    H176730   6.577   3.310   0.468  0.5443 -1.6226  0.0070
18413TIP3    H276731   6.426   3.300   0.468  0.1589  2.5448 -1.5048
18414TIP3   OH276732   4.721   1.876   5.568  0.3496 -0.3887  0.2091
18414TIP3    H176733   4.771   1.943   5.522  1.0907 -0.9368  0.1780
18414TIP3    H276734   4.772   1.859   5.647  0.1059 -0.8235  0.2771
18415TIP3   OH276735   2.679   4.803   3.969  0.0751  0.0781 -0.0160
18415TIP3    H176736   2.666   4.742   4.042 -1.3507  0.5529  0.1426
18415TIP3    H276737   2.635   4.883   3.997 -0.4723  0.2732 -1.3891
18416TIP3   OH276738   2.555   0.768  13.021  0.6485  0.0268  0.1176
18416TIP3    H176739   2.474   0.719  13.010  0.0351  1.1435 -0.5368
18416TIP3    H276740   2.624   0.702  13.024 -0.3539 -1.0210  1.7103
18417TIP3   OH276741   4.331   4.983  16.394  0.4114  0.2094 -0.0086
18417TIP3    H176742   4.342   4.985  16.299  0.2395  2.0616 -0.0261
18417TIP3    H276743   4.275   5.059  16.414  0.6849  0.0358  1.5923
18418TIP3   OH276744   0.065   0.549  16.929  0.1863 -0.2547  0.5585
18418TIP3    H176745   0.015   0.623  16.965 -1.5919 -0.5512 -1.1038
18418TIP3    H276746   0.020   0.471  16.963 -1.3741 -0.5391 -1.8918
18419TIP3   OH276747   4.251   2.127  14.848  0.0505 -0.4001 -0.1209
18419TIP3    H176748   4.249   2.202  14.908 -1.1159 -0.8156  0.3784
18419TIP3    H276749   4.201   2.157  14.772  0.6303 -0.2531 -0.4560
18420TIP3   OH276750   3.770   5.946   5.353 -0.5739 -0.1819 -0.1266
18420TIP3    H176751   3.718   5.997   5.415  2.2802  0.7460  1.6699
18420TIP3    H276752   3.843   6.002   5.330  0.2097 -1.7729 -1.7768
18421TIP3   OH276753   3.131   1.441   3.379  0.4532 -0.3305 -0.0435
18421TIP3    H176754   3.186   1.501   3.329  0.8504 -1.0611 -0.5086
18421TIP3    H276755   3.045   1.483   3.383  0.8145  0.4113 -0.0753
18422TIP3   OH276756   2.421   5.134   0.478  0.3294 -0.0927 -0.8540
18422TIP3    H176757   2.497   5.100   0.433  0.7199 -0.8663  0.3258
18422TIP3    H276758   2.455   5.171   0.560 -0.7232 -2.5691  0.8378
18423TIP3   OH276759   4.271   2.146  11.275  0.3777  0.2299  0.3429
18423TIP3    H176760   4.284   2.206  11.348  1.7369 -0.6266  0.8377
18423TIP3    H276761   4.176   2.131  11.274  0.1856  1.2549  1.1037
18424TIP3   OH276762   2.967   2.237   5.336  0.1393  0.1860 -0.7936
18424TIP3    H176763   2.924   2.317   5.306  0.2779 -0.2007 -2.0974
18424TIP3    H276764   2.938   2.227   5.427 -0.2318  1.4656 -0.7463
18425TIP3   OH276765   2.644   6.347   3.054 -0.5793 -0.4543  0.1218
18425TIP3    H176766   2.551   6.347   3.032 -0.5956  1.3256  0.0372
18425TIP3    H276767   2.646   6.343   3.150 -0.7401 -0.5649  0.1205
18426TIP3   OH276768   1.922   6.816  16.254 -0.1617  0.0826  0.3439
18426TIP3    H176769   1.968   6.765  16.320  2.0429  0.4647 -0.8049
18426TIP3    H276770   1.946   6.907  16.273 -2.1967  0.5444  0.9705
18427TIP3   OH276771   4.337   1.879  15.251 -0.0613 -0.3819  0.5127
18427TIP3    H176772   4.270   1.936  15.213  0.9742  0.4105 -0.2023
18427TIP3    H276773   4.397   1.939  15.294 -0.2706 -1.1472  1.9229
18428TIP3   OH276774   1.318   6.706   4.595 -0.3019 -0.1304  0.0018
18428TIP3    H176775   1.364   6.667   4.520 -0.4902 -0.4671  0.0608
18428TIP3    H276776   1.373   6.685   4.671 -0.2884 -0.0842  0.0052
18429TIP3   OH276777   1.326   2.653  14.703  0.0510 -0.2618 -0.1601
18429TIP3    H176778   1.297   2.699  14.782 -1.9910  0.1630 -1.0961
18429TIP3    H276779   1.397   2.596  14.734  0.5094  1.1679  1.6203
18430TIP3   OH276780   4.065   4.206   3.153  0.2165  0.1898  0.0080
18430TIP3    H176781   4.032   4.146   3.087 -1.3552 -0.1072  1.0198
18430TIP3    H276782   4.063   4.157   3.235  0.6194  1.0459  0.5544
18431TIP3   OH276783   2.703   4.998  17.201 -0.3525 -0.0953 -0.3350
18431TIP3    H176784   2.694   4.931  17.268 -1.2244  0.9348  0.6118
18431TIP3    H276785   2.780   5.048  17.228  0.7864 -1.1370 -1.4756
18432TIP3   OH276786   5.776   4.653   0.876 -0.2429  0.0584 -0.0796
18432TIP3    H176787   5.813   4.568   0.853  0.3300 -0.4661  2.4707
18432TIP3    H276788   5.820   4.716   0.819 -0.8197 -1.3240 -2.1378
18433TIP3   OH276789   0.064   5.097   0.010  0.7019  0.2650 -0.2771
18433TIP3    H176790   0.051   5.176   0.062 -1.1075  0.7656 -1.3800
18433TIP3    H276791   0.125   5.123  -0.059  0.1762  0.7152 -0.5874
18434TIP3   OH276792   0.182   4.388  14.950 -0.0758  0.0377  0.2292
18434TIP3    H176793   0.159   4.360  14.862 -1.5938 -0.6101  0.7947
18434TIP3    H276794   0.098   4.408  14.992  0.6924  1.6274  1.1273
18435TIP3   OH276795   4.444   6.550   1.142  0.2893 -0.5700  0.0434
18435TIP3    H176796   4.525   6.601   1.143  0.3588 -0.6876  0.9968
18435TIP3    H276797   4.453   6.488   1.215  0.1817 -1.9257 -1.0397
18436TIP3   OH276798   5.511   5.446   3.077  0.0729  0.3582  0.0890
18436TIP3    H176799   5.436   5.493   3.114 -0.5232  0.8254 -1.5822
18436TIP3    H276800   5.472   5.383   3.016  0.9502 -1.1252  1.0170
18437TIP3   OH276801   2.221   5.230   2.020 -0.5565 -0.2438  0.1354
18437TIP3    H176802   2.266   5.307   1.983  0.9275 -1.2156 -0.2005
18437TIP3    H276803   2.211   5.250   2.113 -0.0994  0.3129  0.0729
18438TIP3   OH276804   1.537   2.301   1.460 -0.3561 -0.5072 -0.0957
18438TIP3    H176805   1.449   2.339   1.459  0.0034  0.3478  0.0988
18438TIP3    H276806   1.522   2.207   1.468 -1.2624 -0.4237 -0.7051
18439TIP3   OH276807   6.351   2.687  13.167 -0.1804 -0.3204 -0.2161
18439TIP3    H176808   6.276   2.640  13.204 -0.2067  1.1868  1.7980
18439TIP3    H276809   6.314   2.766  13.130  0.3168  0.1368  0.2393
18440TIP3   OH276810   1.888   0.067  12.061 -0.0888 -0.0164  0.7976
18440TIP3    H176811   1.909   0.108  12.144  0.7008  1.9576 -0.3103
18440TIP3    H276812   1.960   0.006  12.045 -1.6846 -2.6617  2.8487
18441TIP3   OH276813   1.581   4.260   5.030  0.2863 -0.8140 -0.2076
18441TIP3    H176814   1.667   4.256   5.072  0.2925 -0.0039 -0.1309
18441TIP3    H276815   1.577   4.348   4.992 -1.6793  0.3402  2.3223
18442TIP3   OH276816   1.039   2.375  11.488  0.3686 -0.2976 -0.0084
18442TIP3    H176817   1.010   2.298  11.440  0.7188  0.1250 -0.9075
18442TIP3    H276818   0.994   2.448  11.446  3.9235  0.6073 -2.6152
18443TIP3   OH276819   3.964   1.307   3.627 -0.6497 -0.1107 -0.0200
18443TIP3    H176820   3.918   1.238   3.578 -1.1154  0.2678 -0.1177
18443TIP3    H276821   3.930   1.389   3.591  0.5944  0.1871 -0.5717
18444TIP3   OH276822   2.019   4.691   0.052 -0.1534 -0.3788 -0.0327
18444TIP3    H176823   2.029   4.775   0.007 -0.6640 -1.2390 -1.8580
18444TIP3    H276824   2.105   4.674   0.090 -0.1215  1.0897  0.6158
18445TIP3   OH276825   0.915   5.360   3.878  0.1956  0.5734  0.6357
18445TIP3    H176826   0.984   5.327   3.935  0.6579  2.3029  1.1447
18445TIP3    H276827   0.851   5.399   3.937 -0.2831  0.6592  0.0710
18446TIP3   OH276828   5.116   1.975  15.539 -0.6796  0.2204  0.0322
18446TIP3    H176829   5.057   2.044  15.508 -1.4561 -0.0131  0.9200
18446TIP3    H276830   5.060   1.898  15.548 -0.4274  0.1712  1.5669
18447TIP3   OH276831   6.773   0.526   2.096  0.0214  0.2074 -0.0564
18447TIP3    H176832   6.703   0.526   2.031  0.6213  0.9127 -0.7307
18447TIP3    H276833   6.761   0.609   2.143  0.0078  0.0256  0.2573
18448TIP3   OH276834   5.094   0.784  14.633  0.3463 -0.0727  0.2202
18448TIP3    H176835   5.086   0.690  14.616 -1.7771 -0.0176  0.7071
18448TIP3    H276836   5.008   0.820  14.611  0.9887  1.7085  0.4603
18449TIP3   OH276837   6.449   0.797   4.439  0.0895 -0.5036 -0.6818
18449TIP3    H176838   6.471   0.757   4.523 -0.7508 -1.3689 -0.8570
18449TIP3    H276839   6.394   0.733   4.395 -0.5564  0.4783 -1.3628
18450TIP3   OH276840   1.385   6.549   1.128 -0.0414  0.7341 -0.1519
18450TIP3    H176841   1.461   6.552   1.071 -0.1669 -1.5742 -0.5205
18450TIP3    H276842   1.420   6.529   1.215 -0.1725  0.2521 -0.2085
18451TIP3   OH276843   6.054   0.608  12.062 -0.7683 -0.3006  0.5278
18451TIP3    H176844   6.140   0.614  12.019 -0.3820 -0.8230  1.2187
18451TIP3    H276845   5.991   0.622  11.991 -0.1469 -1.4531 -0.2908
18452TIP3   OH276846   3.999   6.612   4.099  0.4891 -0.3120 -0.3541
18452TIP3    H176847   4.024   6.567   4.180  2.5383  2.5669  0.7645
18452TIP3    H276848   4.072   6.596   4.039  1.2810  1.4903  0.0882
18453TIP3   OH276849   2.386   1.613  16.926  0.0520  0.0439  0.0328
18453TIP3    H176850   2.445   1.540  16.944  0.8552  1.1499  2.2895
18453TIP3    H276851   2.412   1.645  16.840  0.3682 -1.6533 -0.5281
18454TIP3   OH276852   3.113   6.356  16.997  0.6279 -0.8341 -0.1180
18454TIP3    H176853   3.160   6.318  17.072 -0.4158  0.2270  1.1281
18454TIP3    H276854   3.045   6.292  16.977  0.4393 -0.7920  0.3558
18455TIP3   OH276855   4.552   0.153   1.900  0.2100 -0.5227 -0.0140
18455TIP3    H176856   4.618   0.165   1.969 -0.3456 -1.2020  0.6519
18455TIP3    H276857   4.563   0.062   1.872  1.6565  0.2557 -2.1362
18456TIP3   OH276858   3.492   6.331   4.848  0.2066  0.6572 -0.4394
18456TIP3    H176859   3.462   6.243   4.826  0.2037  1.1700 -2.7081
18456TIP3    H276860   3.566   6.317   4.907  0.4962 -0.8764 -1.1253
18457TIP3   OH276861   2.998   0.206  13.723 -0.1924  0.1277 -0.1222
18457TIP3    H176862   2.949   0.137  13.768  1.0040 -1.0864 -0.5764
18457TIP3    H276863   3.023   0.166  13.640 -1.5574  1.9976 -1.4996
18458TIP3   OH276864   6.467   3.953  15.520  0.6063 -0.1309  0.4582
18458TIP3    H176865   6.406   4.026  15.527  1.5819  0.6344  1.2305
18458TIP3    H276866   6.441   3.908  15.439 -1.2007 -0.0625  0.9631
18459TIP3   OH276867   5.159   1.077  15.562  0.4362  0.1420  0.3483
18459TIP3    H176868   5.085   1.115  15.609  0.2194  1.4150 -0.9467
18459TIP3    H276869   5.170   0.990  15.601  0.5038  1.2328  2.9477
18460TIP3   OH276870   3.616   1.942  13.618 -0.3853 -0.1618 -0.3031
18460TIP3    H176871   3.652   2.003  13.555  2.2943  0.9943  2.1416
18460TIP3    H276872   3.676   1.867  13.616  0.3375  0.3205  1.4636
18461TIP3   OH276873   2.656   5.039   2.510 -0.5180  0.7585  0.3776
18461TIP3    H176874   2.627   5.007   2.425  1.8109  2.4147 -1.1742
18461TIP3    H276875   2.631   5.131   2.511  0.2899  0.9824  1.0922
18462TIP3   OH276876   4.752   1.946   1.904 -0.3265 -0.4245  0.0772
18462TIP3    H176877   4.781   2.010   1.839 -0.0413 -0.0364  0.5742
18462TIP3    H276878   4.770   1.988   1.988  4.5577 -2.9417  0.6920
18463TIP3   OH276879   2.601   3.811  15.345 -0.5537 -0.2152  0.3405
18463TIP3    H176880   2.612   3.898  15.306  0.8139 -1.5876 -2.6585
18463TIP3    H276881   2.566   3.829  15.432 -2.5174  3.2300 -0.9108
18464TIP3   OH276882   0.588   2.006  15.365 -0.2318 -0.2760  0.0256
18464TIP3    H176883   0.610   1.993  15.457  0.8410 -0.9218 -0.3092
18464TIP3    H276884   0.663   1.971  15.317 -0.4305  0.7586 -1.0811
18465TIP3   OH276885   4.297   3.508   2.645  0.3504 -0.3969 -0.3364
18465TIP3    H176886   4.319   3.478   2.557 -1.0210 -1.1370 -0.4519
18465TIP3    H276887   4.202   3.498   2.651 -0.0970  2.9733  0.0204
18466TIP3   OH276888   6.109   3.255  16.198  0.2431  0.5789 -0.0630
18466TIP3    H176889   6.185   3.203  16.172 -1.5557 -2.5641  0.4364
18466TIP3    H276890   6.136   3.298  16.279  0.8031 -2.5132  1.5319
18467TIP3   OH276891   6.819   3.204   5.323  0.1343  0.1970  0.2010
18467TIP3    H176892   6.811   3.256   5.244 -0.1322 -2.3856 -1.6130
18467TIP3    H276893   6.911   3.212   5.348  0.5471 -0.0005 -1.1829
18468TIP3   OH276894   5.927   4.849   1.835 -0.1437 -0.6426  0.3035
18468TIP3    H176895   5.992   4.906   1.878 -1.1963  0.7915  0.0695
18468TIP3    H276896   5.857   4.841   1.900 -1.0294  0.2372 -0.5069
18469TIP3   OH276897   0.419   6.093   0.282  0.8140 -0.0198  0.1109
18469TIP3    H176898   0.510   6.120   0.269  0.6539  0.4837  0.0076
18469TIP3    H276899   0.380   6.095   0.195  0.3247  1.1962  0.3392
18470TIP3   OH276900   1.057   5.930   2.293 -0.0553 -0.7376 -0.2559
18470TIP3    H176901   0.996   5.883   2.351 -2.3290  0.7803 -1.2830
18470TIP3    H276902   1.096   5.861   2.240 -2.2672 -1.6821 -0.7921
18471TIP3   OH276903   4.940   1.247   2.036 -0.0421 -0.1993  0.9519
18471TIP3    H176904   5.012   1.249   1.973 -1.7864 -0.9887 -1.2052
18471TIP3    H276905   4.965   1.178   2.098  1.1253 -0.3467  0.3499
18472TIP3   OH276906   6.463   0.120  17.235  0.3430 -0.2278 -0.2287
18472TIP3    H176907   6.495   0.123  17.325 -0.6567  1.7755  0.1077
18472TIP3    H276908   6.369   0.104  17.244  0.4034 -1.1580 -1.0008
18473TIP3   OH276909   3.585   0.572   5.542  0.2033  0.5877  0.5832
18473TIP3    H176910   3.497   0.607   5.546 -0.8484 -1.7076 -0.5472
18473TIP3    H276911   3.586   0.501   5.606  0.9856  0.1364  0.0923
18474TIP3   OH276912   5.037   0.996  16.891 -0.2155 -0.7078 -0.1137
18474TIP3    H176913   4.942   1.007  16.891 -0.2301 -0.8104  0.3754
18474TIP3    H276914   5.069   1.067  16.837 -0.3499  1.3477  2.3332
18475TIP3   OH276915   0.764   2.643  12.054  0.1049 -0.3451  0.1370
18475TIP3    H176916   0.682   2.623  12.009  0.7630 -0.3639 -1.0921
18475TIP3    H276917   0.768   2.738  12.057  0.6963 -0.3170 -1.0848
18476TIP3   OH276918   6.360   0.648   2.848 -0.2416  0.6536  0.3759
18476TIP3    H176919   6.376   0.740   2.828  0.6131  0.6469  1.0095
18476TIP3    H276920   6.406   0.600   2.779 -0.0514  0.6920  0.4752
18477TIP3   OH276921   1.606   3.702   6.325 -0.1517 -0.6161  0.3143
18477TIP3    H176922   1.597   3.655   6.242 -0.7494 -2.3072  1.2967
18477TIP3    H276923   1.546   3.776   6.317  0.1562 -0.4771 -0.9336
18478TIP3   OH276924   3.299   5.821   2.319 -0.3444 -0.2105  0.1767
18478TIP3    H176925   3.336   5.778   2.241 -1.2663  3.0552 -2.2974
18478TIP3    H276926   3.363   5.888   2.342 -1.6653  1.2346 -0.1294
18479TIP3   OH276927   3.127   5.965   5.132 -0.3198 -0.0364 -0.4141
18479TIP3    H176928   3.181   6.041   5.109 -1.2966  0.6960 -0.3687
18479TIP3    H276929   3.104   5.978   5.224  0.7367 -1.1826  0.0379
18480TIP3   OH276930   1.432   0.649  14.082  0.0383 -0.1663  0.0309
18480TIP3    H176931   1.503   0.671  14.022  0.1368 -2.1337 -0.6256
18480TIP3    H276932   1.375   0.590  14.033 -0.6444 -0.6965  1.3982
18481TIP3   OH276933   6.306   5.119  14.467  0.5963 -0.5846  0.2418
18481TIP3    H176934   6.277   5.050  14.527  1.4173 -1.4504 -0.3333
18481TIP3    H276935   6.401   5.106  14.460  0.9251  1.1816  0.8343
18482TIP3   OH276936   4.446   0.097  11.112 -0.0918  0.7681 -0.1028
18482TIP3    H176937   4.453   0.158  11.185  0.2189 -1.1658  1.5528
18482TIP3    H276938   4.397   0.023  11.147 -0.2367 -0.0793 -1.9699
18483TIP3   OH276939   4.244   6.529  12.992  0.6187  0.2970 -0.0589
18483TIP3    H176940   4.338   6.511  12.999  0.8602  1.9920  3.0843
18483TIP3    H276941   4.239   6.619  12.962 -0.0176  0.2313 -0.1659
18484TIP3   OH276942   4.633   0.571   0.471 -0.0833 -0.4177 -0.6199
18484TIP3    H176943   4.544   0.573   0.436 -0.3316  2.3035 -0.0489
18484TIP3    H276944   4.664   0.481   0.455 -1.6240 -0.4627 -4.0286
18485TIP3   OH276945   0.795   0.992   0.198 -0.2231  0.1541 -0.1563
18485TIP3    H176946   0.885   1.002   0.229  0.4912  0.6853 -2.2106
18485TIP3    H276947   0.749   1.068   0.233  0.1285 -0.1057  0.8942
18486TIP3   OH276948   1.831   1.693  12.298 -0.6577 -0.1491 -0.1983
18486TIP3    H176949   1.741   1.693  12.266 -0.6768  0.7732 -0.1746
18486TIP3    H276950   1.849   1.785  12.319  0.0957 -0.4076  0.3363
18487TIP3   OH276951   0.022   2.982   0.538 -0.4891 -0.2943  0.2139
18487TIP3    H176952  -0.010   3.032   0.613  0.4557 -0.0522  0.4756
18487TIP3    H276953   0.008   3.040   0.463 -0.8958 -0.2979  0.2871
18488TIP3   OH276954   4.586   1.103  16.668  0.1692 -0.0909 -0.2841
18488TIP3    H176955   4.495   1.090  16.641  0.2198 -2.6135  0.4746
18488TIP3    H276956   4.594   1.197  16.682 -2.6572  0.0958  0.7482
18489TIP3   OH276957   6.409   5.720   5.838 -0.1655 -0.2333  0.1501
18489TIP3    H176958   6.394   5.626   5.850 -0.6631 -0.3422 -1.1458
18489TIP3    H276959   6.499   5.726   5.808 -0.2257 -0.3350 -0.0573
18490TIP3   OH276960   6.368   4.266   6.250  0.5828 -0.1229 -0.2079
18490TIP3    H176961   6.343   4.357   6.237  0.7016 -0.2337 -1.2620
18490TIP3    H276962   6.301   4.215   6.205  0.4642 -0.5724  0.4499
18491TIP3   OH276963   5.335   3.122   3.802  0.0499  1.1127 -0.4628
18491TIP3    H176964   5.309   3.033   3.826 -1.6541  1.7712  0.3202
18491TIP3    H276965   5.376   3.113   3.717  0.1284 -0.4582 -0.2862
18492TIP3   OH276966   0.676   5.473  11.495 -0.0390 -0.3017 -0.1203
18492TIP3    H176967   0.742   5.406  11.477  0.4386  0.6290 -2.0419
18492TIP3    H276968   0.604   5.452  11.437 -0.4382  0.1047  0.2218
18493TIP3   OH276969   4.162   3.325   5.551  0.1905 -0.2154  0.4939
18493TIP3    H176970   4.201   3.247   5.510 -3.1447 -1.8992  0.1681
18493TIP3    H276971   4.151   3.300   5.643 -3.3971 -1.4247 -0.1149
18494TIP3   OH276972   2.766   0.580   3.596 -0.6536 -0.8630 -0.3932
18494TIP3    H176973   2.695   0.537   3.548 -0.8502  0.6221 -1.4906
18494TIP3    H276974   2.846   0.551   3.551 -0.7619 -0.3528 -0.9220
18495TIP3   OH276975   3.263   0.157   3.872 -0.5392  0.0842  0.3505
18495TIP3    H176976   3.350   0.125   3.894  0.8589  2.4571 -1.2343
18495TIP3    H276977   3.208   0.131   3.946  1.3280 -2.0923  1.0620
18496TIP3   OH276978   0.440   0.738  13.406 -0.2417 -0.3725  0.1716
18496TIP3    H176979   0.356   0.742  13.361 -0.4738  0.2013  0.6332
18496TIP3    H276980   0.445   0.821  13.454  0.5238 -0.4631  0.2631
18497TIP3   OH276981   5.235   2.640   5.852  0.3814  0.1778  0.4468
18497TIP3    H176982   5.209   2.576   5.787  1.4631 -1.1996  1.3246
18497TIP3    H276983   5.263   2.717   5.801 -2.0038  0.4306 -0.5837
18498TIP3   OH276984   4.994   6.294   3.566 -0.2947  0.2094  0.4383
18498TIP3    H176985   4.982   6.215   3.619 -0.2089 -2.4121 -3.1024
18498TIP3    H276986   5.088   6.312   3.571 -0.5614  1.3901  2.7577
18499TIP3   OH276987   4.074   5.897   1.226 -0.4513 -0.3322  0.2719
18499TIP3    H176988   4.029   5.941   1.298 -0.7084 -0.9515  0.4964
18499TIP3    H276989   4.076   5.804   1.252 -1.4089 -0.7289 -0.9473
18500TIP3   OH276990   6.332   0.454   2.428  0.1358 -0.1223 -0.7291
18500TIP3    H176991   6.368   0.484   2.512 -3.9693  1.6050  0.6599
18500TIP3    H276992   6.286   0.373   2.448 -1.9782  0.9573 -0.8674
18501TIP3   OH276993   2.500   6.523  13.213  0.6695  0.1346 -0.0500
18501TIP3    H176994   2.555   6.448  13.237 -0.6467 -0.8113  0.0984
18501TIP3    H276995   2.540   6.557  13.133  1.8845 -0.0755  0.4439
18502TIP3   OH276996   4.991   0.356  14.862  0.5168  0.1800  0.4598
18502TIP3    H176997   5.073   0.336  14.907  0.9553  1.0767  0.0830
18502TIP3    H276998   4.938   0.278  14.873  1.1394 -0.1324  1.3512
18503TIP3   OH276999   5.637   6.265   2.321 -0.6812  0.3966  0.4629
18503TIP3    H177000   5.626   6.356   2.350  0.9188  1.2144 -1.2752
18503TIP3    H277001   5.675   6.220   2.397 -1.3559  1.1738  1.2927
18504TIP3   OH277002   3.078   0.099   2.610 -0.0345 -0.0503  0.4822
18504TIP3    H177003   3.087   0.078   2.703  1.3630  1.1414  0.6450
18504TIP3    H277004   3.162   0.074   2.571 -0.2246  0.4268 -0.2646
18505TIP3   OH277005   3.636   2.632   4.297  0.8154 -0.3076 -0.2671
18505TIP3    H177006   3.590   2.697   4.245  1.7659 -0.0483 -0.8004
18505TIP3    H277007   3.568   2.595   4.354 -0.0675  0.0052 -1.0801
18506TIP3   OH277008   4.284   0.027   1.532 -0.1264 -0.3064 -0.5133
18506TIP3    H177009   4.326   0.008   1.448  2.0273 -1.9704  0.8120
18506TIP3    H277010   4.348   0.081   1.579 -0.1300 -1.4799  0.9387
18507TIP3   OH277011   0.776   5.103   1.790 -0.1582 -0.3122  0.1657
18507TIP3    H177012   0.781   5.050   1.871 -0.0131  2.1084  1.8351
18507TIP3    H277013   0.690   5.143   1.794 -0.3206 -0.5067 -1.1619
18508TIP3   OH277014   1.128   6.343   2.749 -0.0689  0.4065  0.5511
18508TIP3    H177015   1.088   6.390   2.675 -1.5514  0.3918  1.3012
18508TIP3    H277016   1.084   6.379   2.826  0.4468 -0.5618  1.3133
18509TIP3   OH277017   5.143   3.912   5.577 -0.0863  0.8307  1.0409
18509TIP3    H177018   5.228   3.883   5.544 -0.2479  2.1327 -0.6656
18509TIP3    H277019   5.079   3.869   5.520 -0.5343  0.4570  1.8215
18510TIP3   OH277020   6.304   3.017   3.189 -0.5690 -0.0002 -0.5114
18510TIP3    H177021   6.387   3.054   3.161 -0.0427 -0.8133 -0.0649
18510TIP3    H277022   6.268   3.081   3.250  0.4517 -0.3080  0.4500
18511TIP3   OH277023   5.721   6.692   5.267 -0.3900 -0.3441  0.0173
18511TIP3    H177024   5.796   6.681   5.325 -0.2242 -1.9262 -0.4406
18511TIP3    H277025   5.646   6.665   5.320 -0.6613  1.2011  0.4629
18512TIP3   OH277026   1.201   1.081  11.161  1.0308 -0.6840 -0.7849
18512TIP3    H177027   1.290   1.114  11.171  0.0800  1.4685  1.5334
18512TIP3    H277028   1.187   1.025  11.237  0.2741 -0.6700 -0.9027
18513TIP3   OH277029   5.768   6.660  14.156 -0.1924 -0.6127  0.3768
18513TIP3    H177030   5.694   6.652  14.215 -1.5203 -0.1732 -1.1477
18513TIP3    H277031   5.749   6.599  14.085  0.5435  0.0237 -0.3992
18514TIP3   OH277032   6.557   2.011   6.629 -0.3482  0.1551 -0.2599
18514TIP3    H177033   6.631   2.067   6.610  0.2345 -0.2435  0.7442
18514TIP3    H277034   6.595   1.933   6.671 -1.4662  0.9103  2.3784
18515TIP3   OH277035   0.452   2.582  14.042 -0.6534 -0.0320 -0.1052
18515TIP3    H177036   0.537   2.621  14.064 -0.5589  0.9613 -2.0647
18515TIP3    H277037   0.390   2.654  14.051 -0.9295 -0.1631 -0.9158
18516TIP3   OH277038   3.957   2.100  16.177 -0.0822  0.1090 -0.6933
18516TIP3    H177039   3.951   2.193  16.155 -0.8801  0.7110  1.8189
18516TIP3    H277040   3.867   2.068  16.172 -0.3763  0.3805  1.9193
18517TIP3   OH277041   1.577   5.769  16.214  0.0391  0.0495 -0.3122
18517TIP3    H177042   1.614   5.757  16.301  0.6390  0.8032 -0.4445
18517TIP3    H277043   1.582   5.683  16.173 -0.9784 -0.4987  0.6585
18518TIP3   OH277044   5.524   3.308  12.942  0.4777  0.0532  0.4618
18518TIP3    H177045   5.563   3.287  13.027  1.6916 -0.0176 -0.0875
18518TIP3    H277046   5.549   3.235  12.886 -0.2189  0.1573  0.0183
18519TIP3   OH277047   4.839   3.429   2.759 -0.6863  0.1132  0.1160
18519TIP3    H177048   4.900   3.502   2.764  0.0070 -0.3961 -0.5184
18519TIP3    H277049   4.895   3.351   2.759 -1.1311 -0.3236 -2.6066
18520TIP3   OH277050   4.853   5.399   0.060 -0.0227  0.0511  0.4094
18520TIP3    H177051   4.768   5.362   0.037  0.4418  0.3037 -1.9509
18520TIP3    H277052   4.833   5.486   0.094 -0.6820  0.8776 -1.8892
18521TIP3   OH277053   6.311   0.118  11.599  0.3693  0.1227  0.0903
18521TIP3    H177054   6.300   0.148  11.689 -0.0629  0.8222 -0.1901
18521TIP3    H277055   6.244   0.165  11.549  0.0851 -0.8384 -0.4733
18522TIP3   OH277056   0.464   5.760   2.286 -0.1155 -0.2568  0.2263
18522TIP3    H177057   0.390   5.747   2.345 -0.1116 -2.9124 -0.2417
18522TIP3    H277058   0.425   5.761   2.199  0.1557  1.1425  0.0926
18523TIP3   OH277059   6.653   1.798   3.366  0.3038  0.0163  0.0387
18523TIP3    H177060   6.665   1.747   3.446 -0.5302 -0.6632 -0.2503
18523TIP3    H277061   6.644   1.888   3.396 -1.1217 -0.3570  0.8401
18524TIP3   OH277062   0.265   6.725  10.852  0.0708  0.3900 -0.2847
18524TIP3    H177063   0.241   6.776  10.775  0.7313  1.9548  0.5007
18524TIP3    H277064   0.360   6.724  10.853  0.0760 -0.5822 -0.0775
18525TIP3   OH277065   3.840   0.984  16.755 -0.4032  0.0164  0.0479
18525TIP3    H177066   3.924   0.965  16.714 -0.9733 -0.1678 -1.0741
18525TIP3    H277067   3.829   0.915  16.820  0.4044  0.1697  0.3642
18526TIP3   OH277068   3.125   2.548  16.892  0.4464 -0.1604 -0.1478
18526TIP3    H177069   3.044   2.598  16.882  0.5410  0.3384  1.4673
18526TIP3    H277070   3.180   2.578  16.819 -0.4139  0.2656 -0.6443
18527TIP3   OH277071   0.386   0.193  13.153 -0.2147 -0.0460  0.0332
18527TIP3    H177072   0.332   0.231  13.224  0.4841  1.4471 -0.1886
18527TIP3    H277073   0.472   0.181  13.193 -0.4035 -1.3932  0.0722
18528TIP3   OH277074   2.957   2.004  10.949 -0.1500 -0.2408  0.6738
18528TIP3    H177075   2.948   1.910  10.938  1.4838 -0.2935 -0.6947
18528TIP3    H277076   2.890   2.042  10.892  0.2556 -0.5887 -0.0501
18529TIP3   OH277077   0.385   5.388   2.643 -0.9219 -0.4495 -0.5035
18529TIP3    H177078   0.407   5.348   2.559  0.1530 -0.7320 -0.1029
18529TIP3    H277079   0.417   5.478   2.636 -2.0457 -0.0584 -0.8741
18530TIP3   OH277080   1.492   3.132  11.571 -0.4101  0.0395 -0.1213
18530TIP3    H177081   1.407   3.091  11.554 -0.8872 -0.2630  2.4564
18530TIP3    H277082   1.494   3.141  11.667  1.7877  1.5375 -0.2547
18531TIP3   OH277083   6.329   5.311   3.658  0.2761  0.2338 -0.4867
18531TIP3    H177084   6.400   5.297   3.721  0.3276 -0.8601 -0.7607
18531TIP3    H277085   6.271   5.235   3.671 -1.5372  1.7294  0.6037
18532TIP3   OH277086   0.010   4.151   4.167 -0.1980  0.3783 -0.5387
18532TIP3    H177087  -0.038   4.220   4.211  0.2728 -0.2586  1.0699
18532TIP3    H277088  -0.041   4.071   4.184  1.2339 -0.2691  1.0152
18533TIP3   OH277089   3.720   0.643  14.021 -0.3922 -0.2629  0.0924
18533TIP3    H177090   3.809   0.679  14.023 -0.4712 -0.0205 -0.6026
18533TIP3    H277091   3.730   0.555  14.058  0.4258 -0.8473 -1.4412
18534TIP3   OH277092   0.647   0.649  14.801 -0.0146 -0.5428  0.3137
18534TIP3    H177093   0.660   0.711  14.729  0.7997 -2.8288 -1.6487
18534TIP3    H277094   0.735   0.627  14.830 -0.2043 -1.5960  0.1680
18535TIP3   OH277095   4.310   5.551   5.097  0.3918  0.2090 -0.5738
18535TIP3    H177096   4.271   5.475   5.141  0.0231  0.2720 -0.7865
18535TIP3    H277097   4.389   5.570   5.148  0.2453 -0.0368 -0.2461
18536TIP3   OH277098   1.001   5.236   1.426  0.1744 -0.0162 -0.3793
18536TIP3    H177099   1.082   5.232   1.375  0.5238  0.9170  0.0926
18536TIP3    H277100   0.981   5.144   1.445 -0.6446 -0.5120 -3.2094
18537TIP3   OH277101   5.680   2.730  13.624 -0.1917  0.1257  0.2842
18537TIP3    H177102   5.698   2.825  13.623 -0.9326  0.2784 -1.5739
18537TIP3    H277103   5.587   2.723  13.603  0.3283 -1.0716 -1.8067
18538TIP3   OH277104   2.220   2.293   3.163 -0.3687  0.1869 -0.7534
18538TIP3    H177105   2.299   2.252   3.199 -0.1654 -0.1524 -1.5706
18538TIP3    H277106   2.172   2.221   3.123  0.0901  0.7503 -2.3952
18539TIP3   OH277107   5.517   1.626   3.275  0.4404 -0.0809 -0.0361
18539TIP3    H177108   5.569   1.676   3.212 -0.5716  1.3484  0.2060
18539TIP3    H277109   5.539   1.665   3.360 -1.5422  1.0894 -0.0012
18540TIP3   OH277110   3.564   2.999  12.084  0.1360  0.7719 -0.3590
18540TIP3    H177111   3.619   3.044  12.020  0.9365 -0.1250 -0.3238
18540TIP3    H277112   3.477   2.996  12.045  0.3664  1.2139 -0.9086
18541TIP3   OH277113   1.122   0.845  14.443  0.0340  0.1323  0.6476
18541TIP3    H177114   1.084   0.895  14.515 -3.2033  0.2798 -1.0043
18541TIP3    H277115   1.075   0.874  14.365  1.6069 -1.8366 -1.1674
18542TIP3   OH277116   3.196   3.312  16.647 -0.2906 -0.3664 -0.1692
18542TIP3    H177117   3.230   3.246  16.587  0.9045  0.3754 -0.3404
18542TIP3    H277118   3.153   3.262  16.717  0.6471 -1.3307 -0.2605
18543TIP3   OH277119   6.343   3.945  11.335  0.0000  0.0243 -0.5511
18543TIP3    H177120   6.319   3.929  11.243  0.2958 -0.0307 -0.6227
18543TIP3    H277121   6.330   4.039  11.347 -0.1914  0.0048 -0.6052
18544TIP3   OH277122   4.431   4.237  12.144  0.5323 -0.1972 -0.0202
18544TIP3    H177123   4.353   4.256  12.092  0.0437  0.7673  1.0024
18544TIP3    H277124   4.504   4.265  12.089  0.1005 -0.1517 -0.5837
18545TIP3   OH277125   1.665   4.055   2.615 -0.0556  0.0317  0.2172
18545TIP3    H177126   1.627   3.995   2.551 -0.6461  0.7128 -0.0713
18545TIP3    H277127   1.607   4.130   2.617 -0.2986 -0.1468  1.8811
18546TIP3   OH277128   6.384   1.983   2.204 -0.0255 -0.4518 -0.3562
18546TIP3    H177129   6.403   1.895   2.235  2.8492  0.0373 -0.4284
18546TIP3    H277130   6.455   2.003   2.143  0.1275  2.3278  0.5752
18547TIP3   OH277131   6.678   5.160   4.023  0.1085 -0.0441 -0.5401
18547TIP3    H177132   6.680   5.202   3.937 -1.5836  0.3062 -0.4435
18547TIP3    H277133   6.749   5.097   4.020  0.9851  0.9352 -1.6798
18548TIP3   OH277134   0.660   4.891  11.308  0.0132  0.0164 -0.8793
18548TIP3    H177135   0.632   4.924  11.223 -1.0849  2.0233  0.1910
18548TIP3    H277136   0.709   4.964  11.347  0.3202 -0.7853  0.2887
18549TIP3   OH277137   3.405   3.038  16.130  0.3164  0.5330 -0.1022
18549TIP3    H177138   3.339   3.019  16.197  1.6414  0.2189  1.1768
18549TIP3    H277139   3.417   2.955  16.084  0.1115  0.4853 -0.0714
18550TIP3   OH277140   4.357   1.271   0.877  0.1819  0.2270 -0.0229
18550TIP3    H177141   4.374   1.211   0.949  1.7054  0.0978 -0.4485
18550TIP3    H277142   4.369   1.219   0.798  2.5615  1.2443 -0.4259
18551TIP3   OH277143   2.931   0.441   4.099  0.3004  0.2393  0.1175
18551TIP3    H177144   2.950   0.383   4.173 -0.4537 -0.4738 -0.2384
18551TIP3    H277145   2.917   0.383   4.025 -1.5855  0.7960 -0.0062
18552TIP3   OH277146   2.485   6.692  16.138  0.0788 -0.0503  0.1352
18552TIP3    H177147   2.498   6.599  16.155 -0.0467  0.0701  0.9232
18552TIP3    H277148   2.432   6.695  16.058 -1.0523 -0.6881  0.8421
18553TIP3   OH277149   3.863   6.680   5.914 -0.1326  0.5980  0.3635
18553TIP3    H177150   3.957   6.663   5.907  0.4670  3.3446  0.7997
18553TIP3    H277151   3.827   6.601   5.955  2.1471 -0.0530  1.2145
18554TIP3   OH277152   4.948   4.771   1.243  0.1968 -0.0227  0.2135
18554TIP3    H177153   5.035   4.808   1.228 -0.0012  0.3685 -0.0029
18554TIP3    H277154   4.894   4.848   1.263 -0.6032  0.0255 -1.9379
18555TIP3   OH277155   1.079   0.196   4.725  0.3673  0.4064 -0.5933
18555TIP3    H177156   1.137   0.170   4.653 -1.1823 -0.6948 -1.5058
18555TIP3    H277157   1.051   0.114   4.764 -0.6183  0.9109 -0.2194
18556TIP3   OH277158   6.422   1.604   6.851 -0.2308  0.0315  0.4661
18556TIP3    H177159   6.389   1.515   6.839 -0.8430  0.1831  0.9834
18556TIP3    H277160   6.344   1.657   6.860  0.0986  0.8113 -1.0258
18557TIP3   OH277161   3.578   3.084   2.342  0.2262 -0.3503 -0.2102
18557TIP3    H177162   3.606   3.116   2.256 -2.3715 -0.6456 -1.2620
18557TIP3    H277163   3.571   2.989   2.331 -0.6229 -0.3388  0.1670
18558TIP3   OH277164   4.270   3.161   1.155  0.2933  0.5742  0.2415
18558TIP3    H177165   4.299   3.083   1.109 -0.6896  0.2424  0.1687
18558TIP3    H277166   4.179   3.143   1.179  0.2094  1.4906  0.6703
18559TIP3   OH277167   1.647   4.702  13.683  0.0780  0.2462 -0.0819
18559TIP3    H177168   1.683   4.615  13.698 -0.0450  0.4235  1.3649
18559TIP3    H277169   1.612   4.729  13.768 -1.1995  1.1156 -0.8390
18560TIP3   OH277170   5.498   1.631  12.057 -0.2730 -0.3656 -0.1351
18560TIP3    H177171   5.489   1.538  12.038  0.9353 -0.5779  0.2334
18560TIP3    H277172   5.512   1.635  12.152  0.1143  0.1539 -0.2071
18561TIP3   OH277173   1.296   1.640   0.361  0.5348  0.2931 -0.0613
18561TIP3    H177174   1.292   1.600   0.274  0.1833 -1.5838  0.7794
18561TIP3    H277175   1.378   1.608   0.399 -1.2780 -2.4614  1.8693
18562TIP3   OH277176   0.872   4.131   5.130 -0.2623  0.6978  0.6710
18562TIP3    H177177   0.875   4.094   5.218  0.8406 -0.3981  0.1993
18562TIP3    H277178   0.962   4.157   5.112  1.0266 -4.4349 -2.2541
18563TIP3   OH277179   5.103   4.977  17.069  0.6672  0.8713  0.1378
18563TIP3    H177180   5.113   4.922  16.991  0.5686  1.0079  0.0283
18563TIP3    H277181   5.118   4.917  17.142 -1.8811  0.0855  0.1280
18564TIP3   OH277182   0.862   5.236   2.162  0.7482 -0.4585  0.1961
18564TIP3    H177183   0.782   5.240   2.215  1.6950  1.6784  1.6162
18564TIP3    H277184   0.846   5.299   2.091  1.7872  1.4585  1.5584
18565TIP3   OH277185   1.203   5.722   1.559 -0.0490  0.1704  0.0412
18565TIP3    H177186   1.119   5.688   1.591 -0.5539 -0.2589 -1.6417
18565TIP3    H277187   1.179   5.792   1.499  0.6314 -1.3116 -2.0885
18566TIP3   OH277188   0.802   6.323   4.983 -0.3793  0.2460  0.3662
18566TIP3    H177189   0.801   6.411   4.945 -2.0850  1.1172  2.1876
18566TIP3    H277190   0.837   6.336   5.071 -1.4099 -0.7231  0.9504
18567TIP3   OH277191   6.656   1.503   5.497 -0.2634  0.2349  0.2376
18567TIP3    H177192   6.562   1.488   5.497 -0.4488  0.4902 -3.5474
18567TIP3    H277193   6.694   1.415   5.487 -0.0908  0.1585  1.4831
18568TIP3   OH277194   2.249   1.994  15.722  0.1072  1.0173 -0.1006
18568TIP3    H177195   2.315   1.925  15.733 -0.3322  0.5732 -0.2169
18568TIP3    H277196   2.287   2.071  15.766  0.7975  0.8339 -0.3534
18569TIP3   OH277197   3.109   3.166  11.532 -0.0793 -0.7837  0.2509
18569TIP3    H177198   3.079   3.094  11.476 -0.2066  0.7745 -1.7957
18569TIP3    H277199   3.162   3.221  11.474  0.0380  0.7597  1.7525
18570TIP3   OH277200   1.692   0.794   1.370 -0.1647 -0.2664 -0.0199
18570TIP3    H177201   1.649   0.722   1.324  0.0558  0.4124 -1.3642
18570TIP3    H277202   1.624   0.830   1.428 -1.3871  0.6034 -1.8855
18571TIP3   OH277203   1.663   1.971   0.421  0.5071 -0.0693  0.0952
18571TIP3    H177204   1.681   2.033   0.492  1.3450 -2.4902  2.1323
18571TIP3    H277205   1.572   1.944   0.435  0.0567  0.8126 -0.9465
18572TIP3   OH277206   1.891   2.744   5.138  0.4344 -0.2567 -0.9598
18572TIP3    H177207   1.869   2.660   5.179 -0.5411 -0.0558 -1.0491
18572TIP3    H277208   1.826   2.805   5.173  1.0993  0.4580 -0.9387
18573TIP3   OH277209   1.068   6.029   5.493  0.7035  0.2517  0.1883
18573TIP3    H177210   1.048   5.964   5.561 -1.5254  0.6892  0.0383
18573TIP3    H277211   1.129   5.984   5.434  0.5192 -1.1060  0.9962
18574TIP3   OH277212   5.708   6.254   0.948  0.2671  0.3594  0.4385
18574TIP3    H177213   5.796   6.219   0.965 -0.3762 -1.0151  1.0904
18574TIP3    H277214   5.658   6.232   1.026 -0.2480  2.6388  0.8001
18575TIP3   OH277215   6.708   1.247  16.354 -0.3955 -0.0655 -0.2062
18575TIP3    H177216   6.802   1.243  16.371 -0.4103 -0.9386 -0.3180
18575TIP3    H277217   6.667   1.213  16.434 -0.7018  1.7796  0.4938
18576TIP3   OH277218   6.223   4.536   4.315 -0.2886  0.2722 -0.6412
18576TIP3    H177219   6.186   4.508   4.231 -0.2801 -2.4081  0.1632
18576TIP3    H277220   6.204   4.465   4.375  2.1300  0.8424  0.9585
18577TIP3   OH277221   1.482   5.145   2.900  0.5810  0.4272  0.3480
18577TIP3    H177222   1.542   5.220   2.908  2.2663 -0.5335 -1.8649
18577TIP3    H277223   1.397   5.184   2.881  0.8077  1.8030  1.9117
18578TIP3   OH277224   6.205   3.708  12.683  0.1013  0.1951  0.5414
18578TIP3    H177225   6.255   3.788  12.664  0.5624 -0.2199 -0.0064
18578TIP3    H277226   6.160   3.728  12.765 -1.5101  1.8345 -0.6670
18579TIP3   OH277227   4.825   0.520  13.866 -0.1551 -0.0030  0.3745
18579TIP3    H177228   4.918   0.532  13.886 -0.7846  2.4816  2.2865
18579TIP3    H277229   4.784   0.603  13.891 -3.1028 -1.4855  0.8909
18580TIP3   OH277230   1.295   2.781   2.961 -0.2083  0.4002  0.1830
18580TIP3    H177231   1.303   2.812   3.051 -0.1117 -0.0104  0.3158
18580TIP3    H277232   1.221   2.720   2.963  0.7229 -0.7513  0.3001
18581TIP3   OH277233   2.777   4.148  11.783 -0.1468 -0.8162  0.1242
18581TIP3    H177234   2.828   4.228  11.786 -0.7621 -0.4396  1.1492
18581TIP3    H277235   2.710   4.164  11.716 -0.8925 -0.0615  1.0208
18582TIP3   OH277236   4.051   0.069  11.898 -0.2781  0.7521  0.5792
18582TIP3    H177237   4.145   0.087  11.901 -0.1999  0.6484 -0.7239
18582TIP3    H277238   4.034   0.019  11.977  0.7776  0.7307  0.8111
18583TIP3   OH277239   6.071   2.515   4.151 -0.4632  0.1603 -0.8831
18583TIP3    H177240   6.034   2.517   4.063 -0.4232 -2.0401 -1.0098
18583TIP3    H277241   6.157   2.474   4.140 -0.8861 -1.1255  0.2849
18584TIP3   OH277242   0.587   3.715   5.128 -0.2026 -0.2863  0.0611
18584TIP3    H177243   0.537   3.676   5.199  0.2868 -0.9648  0.0425
18584TIP3    H277244   0.521   3.748   5.067 -0.6238 -0.6601  0.3106
18585TIP3   OH277245   6.361   2.691   4.563  0.2566  0.6190 -0.0779
18585TIP3    H177246   6.297   2.702   4.633  0.0472 -0.2233 -0.1334
18585TIP3    H277247   6.309   2.667   4.487  0.4733  1.5931 -0.5594
18586TIP3   OH277248   1.823   2.061  16.551  0.4876 -0.4275  0.1326
18586TIP3    H177249   1.762   2.131  16.526 -0.1440 -0.1558  2.1928
18586TIP3    H277250   1.848   2.083  16.641  2.9592 -1.0494 -0.3404
18587TIP3   OH277251   5.776   0.264  11.347 -0.0475  0.3944  0.6938
18587TIP3    H177252   5.829   0.184  11.348 -0.1037  0.3112 -0.5068
18587TIP3    H277253   5.829   0.327  11.298  0.3295  1.3648  2.2828
18588TIP3   OH277254   0.130   1.260   3.454 -0.7601 -0.2202  0.0049
18588TIP3    H177255   0.044   1.221   3.438 -1.4973  0.6194  1.6626
18588TIP3    H277256   0.188   1.185   3.468 -2.0311 -0.8631  2.5620
18589TIP3   OH277257   2.645   1.705   1.189 -0.1332  0.0842 -0.0671
18589TIP3    H177258   2.632   1.637   1.123 -1.1977 -0.2392  0.4614
18589TIP3    H277259   2.699   1.664   1.256  0.9211  0.4025 -0.7013
18590TIP3   OH277260   3.039   0.502  12.411  0.1736  0.0348 -0.4687
18590TIP3    H177261   3.100   0.457  12.353  1.6174 -0.1662  1.1424
18590TIP3    H277262   2.953   0.488  12.371  1.0913 -0.2151 -2.4498
18591TIP3   OH277263   5.235   4.304   5.277 -0.5895 -0.1196 -0.0591
18591TIP3    H177264   5.267   4.214   5.276 -0.5489 -0.1097  0.1604
18591TIP3    H277265   5.315   4.357   5.275 -0.5714 -0.0966  0.8964
18592TIP3   OH277266   3.788   4.596   0.173  0.0484  0.5990 -0.5896
18592TIP3    H177267   3.730   4.575   0.246 -0.4702  1.4244 -0.7493
18592TIP3    H277268   3.802   4.691   0.179  1.4655  0.4100 -0.4965
18593TIP3   OH277269   5.613   2.211   0.830 -0.0778 -0.2170  0.0306
18593TIP3    H177270   5.617   2.245   0.920 -0.5808 -0.3243  0.0951
18593TIP3    H277271   5.524   2.230   0.801  0.6371  1.6436 -1.1652
18594TIP3   OH277272   6.754   4.905   0.581 -0.3468  0.2186  0.3256
18594TIP3    H177273   6.831   4.908   0.638 -1.8283  0.2376  2.4358
18594TIP3    H277274   6.734   4.996   0.562  0.8760  0.1966 -1.3943
18595TIP3   OH277275   0.632   2.799  16.860  0.1634  0.4397  0.2654
18595TIP3    H177276   0.578   2.870  16.824 -0.2451  0.9875  1.8881
18595TIP3    H277277   0.718   2.838  16.870  0.0790  0.5325  0.6281
18596TIP3   OH277278   2.035   2.750  13.771 -0.1726 -0.2687 -0.2238
18596TIP3    H177279   1.981   2.713  13.841 -0.7920 -0.0674 -0.5844
18596TIP3    H277280   2.102   2.684  13.754 -0.4658 -0.6383  0.0528
18597TIP3   OH277281   5.952   6.428   0.565  0.3871 -0.3562 -0.6539
18597TIP3    H177282   5.877   6.419   0.506  0.1551 -0.1032 -0.4016
18597TIP3    H277283   5.913   6.446   0.651  0.6449 -2.0184 -0.1406
18598TIP3   OH277284   0.645   3.791   3.272 -0.1364 -0.2433 -0.4832
18598TIP3    H177285   0.679   3.824   3.189  1.0871  0.5714  0.3035
18598TIP3    H277286   0.647   3.867   3.330 -0.9590 -0.8028  0.3062
18599TIP3   OH277287   4.116   5.566   4.886 -0.5927 -0.4607 -0.0362
18599TIP3    H177288   4.188   5.539   4.942 -0.2258 -2.8337 -1.4939
18599TIP3    H277289   4.154   5.568   4.798 -1.3373  2.3489 -0.3848
18600TIP3   OH277290   2.277   2.509   1.872  0.0388  0.2754  0.2647
18600TIP3    H177291   2.196   2.535   1.916  0.7800  1.1069  1.2061
18600TIP3    H277292   2.336   2.486   1.944  0.5122 -0.7260 -0.4249
18601TIP3   OH277293   2.149   4.612   4.215 -0.2179  0.4039  0.9796
18601TIP3    H177294   2.100   4.682   4.171 -1.9717 -0.9658  0.6708
18601TIP3    H277295   2.241   4.636   4.202 -0.5923  0.2218 -3.2905
18602TIP3   OH277296   4.664   3.807  11.594  0.3730 -0.0668  0.1332
18602TIP3    H177297   4.741   3.836  11.642 -0.2353  0.8677  0.5678
18602TIP3    H277298   4.647   3.877  11.531 -0.3139 -0.0935  0.2755
18603TIP3   OH277299   3.723   1.792  11.902 -0.4529  0.2380 -0.3231
18603TIP3    H177300   3.784   1.795  11.829 -1.0174 -1.6986 -0.9361
18603TIP3    H277301   3.636   1.792  11.861 -0.7875 -0.4693  0.3433
18604TIP3   OH277302   1.966   3.897  15.031 -0.0212 -0.3658 -0.1323
18604TIP3    H177303   2.034   3.838  15.001  1.0173  0.7174  0.0412
18604TIP3    H277304   1.990   3.982  14.995 -0.5806  0.2865  0.9862
18605TIP3   OH277305   5.142   2.561   2.510  0.0925  0.2899  0.6528
18605TIP3    H177306   5.216   2.570   2.449  0.1656  0.0290  0.7053
18605TIP3    H277307   5.134   2.467   2.526 -0.8219  0.2238 -0.0629
18606TIP3   OH277308   1.605   4.469  12.765  0.1898 -0.2300 -1.0143
18606TIP3    H177309   1.580   4.560  12.782 -0.0721 -0.6055  0.7640
18606TIP3    H277310   1.522   4.423  12.755  0.2142 -0.7713  0.9852
18607TIP3   OH277311   4.066   0.084   4.810 -0.5049  0.5824  0.0015
18607TIP3    H177312   4.045   0.178   4.806  0.9497  0.9738  0.9456
18607TIP3    H277313   4.089   0.061   4.720 -1.5436  0.9436 -0.3780
18608TIP3   OH277314   6.196   5.098  16.005  0.2101 -0.0133 -0.3716
18608TIP3    H177315   6.231   5.055  15.928  1.2934  1.0794 -0.5186
18608TIP3    H277316   6.111   5.057  16.020  1.2246 -2.2608 -0.4280
18609TIP3   OH277317   0.065   2.498  14.020 -0.1617 -0.1487  0.0050
18609TIP3    H177318   0.068   2.414  13.973 -2.2039 -1.4996  2.0815
18609TIP3    H277319   0.041   2.562  13.954 -1.2055 -1.6679 -1.1680
18610TIP3   OH277320   1.904   3.565  12.278  0.5335  0.0046  0.0690
18610TIP3    H177321   1.844   3.640  12.284  2.1432  1.5398 -1.7975
18610TIP3    H277322   1.866   3.510  12.211  0.0682 -0.1722  0.4692
18611TIP3   OH277323   6.169   0.979   4.009 -0.2618 -0.2199 -0.1681
18611TIP3    H177324   6.118   0.908   3.971 -1.0149 -0.5352  1.3284
18611TIP3    H277325   6.106   1.051   4.019  0.3993  0.5432 -1.3130
18612TIP3   OH277326   1.848   3.035   3.092 -0.2061  0.2940 -0.3653
18612TIP3    H177327   1.938   3.027   3.062 -0.7084  0.1215 -1.9327
18612TIP3    H277328   1.854   3.034   3.187  1.5347  1.3202 -0.4176
18613TIP3   OH277329   1.070   1.314  12.614 -0.8233  0.6844 -0.2895
18613TIP3    H177330   1.089   1.394  12.563 -1.2002  0.5053 -0.7217
18613TIP3    H277331   0.992   1.278  12.573  0.2533 -0.7991 -1.1499
18614TIP3   OH277332   2.056   4.412   0.218  0.1722 -0.0271  0.6240
18614TIP3    H177333   2.027   4.331   0.259 -1.4631  0.0921 -0.2334
18614TIP3    H277334   2.081   4.388   0.129 -2.2824  0.6812 -0.3202
18615TIP3   OH277335   6.020   0.388  15.049  0.3446 -0.5336  0.0199
18615TIP3    H177336   6.099   0.442  15.051  0.6230 -0.9441  0.5026
18615TIP3    H277337   5.989   0.387  15.139 -0.8779  0.5553 -0.3550
18616TIP3   OH277338   6.524   1.798   3.859  0.5424 -0.5810  0.2875
18616TIP3    H177339   6.527   1.839   3.946 -1.4253 -0.5086  0.3506
18616TIP3    H277340   6.514   1.872   3.798  0.7042 -0.7161  0.0950
18617TIP3   OH277341   4.558   5.120  12.960 -0.1308  0.0978 -0.1097
18617TIP3    H177342   4.467   5.136  12.981 -0.2625  0.6502 -1.0428
18617TIP3    H277343   4.606   5.140  13.041 -0.8318 -0.2791  0.4062
18618TIP3   OH277344   2.032   2.523  10.546  0.1781 -0.4974 -0.7732
18618TIP3    H177345   1.975   2.463  10.499 -0.5791  0.3969 -1.0269
18618TIP3    H277346   2.115   2.476  10.554  0.0969 -0.9604 -2.3530
18619TIP3   OH277347   1.759   3.986  15.971 -0.0809 -0.2053  0.0801
18619TIP3    H177348   1.760   3.894  15.999  2.6668  0.0968  1.2844
18619TIP3    H277349   1.788   4.035  16.048  0.6881  1.4281 -1.1938
18620TIP3   OH277350   2.754   0.360  11.409 -0.4801 -0.4967  0.0609
18620TIP3    H177351   2.670   0.396  11.437 -0.6133 -0.8038  0.0661
18620TIP3    H277352   2.731   0.285  11.355 -0.2090 -0.5820  0.0590
18621TIP3   OH277353   6.798   0.732   1.415 -0.0239  0.2824 -0.1763
18621TIP3    H177354   6.753   0.757   1.496 -0.8431 -0.3330 -0.4306
18621TIP3    H277355   6.728   0.701   1.357  0.9817 -4.4273  0.7443
18622TIP3   OH277356   6.443   0.014  14.256  0.2136  0.2526  0.5321
18622TIP3    H177357   6.360   0.048  14.224  0.5598  0.0988 -0.5648
18622TIP3    H277358   6.478  -0.038  14.184  1.1035  0.0251  1.1008
18623TIP3   OH277359   0.643   6.159   0.103 -0.2061 -0.3169  0.5014
18623TIP3    H177360   0.673   6.249   0.108 -0.2520 -0.1026 -2.1201
18623TIP3    H277361   0.722   6.108   0.086  0.2193 -1.1920  4.1473
18624TIP3   OH277362   3.739   2.356   2.003  0.2087 -0.4047 -0.5783
18624TIP3    H177363   3.763   2.308   1.924  0.1210 -0.6486 -0.4576
18624TIP3    H277364   3.713   2.443   1.972  0.6671 -0.3357 -0.7661
18625TIP3   OH277365   6.358   5.021   2.451 -0.6630 -0.3359 -0.4405
18625TIP3    H177366   6.277   4.980   2.419  0.0040 -0.4661 -2.0269
18625TIP3    H277367   6.397   5.062   2.374  2.6628 -3.3936 -0.6448
18626TIP3   OH277368   5.268   2.357   3.486 -0.0615  0.4051  0.8327
18626TIP3    H177369   5.186   2.399   3.459 -0.4803  0.3007  1.9072
18626TIP3    H277370   5.323   2.429   3.515  0.6596  0.5990 -0.8944
18627TIP3   OH277371   4.939   2.144  13.720 -0.4064  0.2421 -0.3577
18627TIP3    H177372   4.911   2.093  13.643 -0.4124  1.1725 -0.9985
18627TIP3    H277373   4.857   2.162  13.767 -0.4913  0.2366 -0.5014
18628TIP3   OH277374   2.739   3.304   0.601  0.1447 -0.4344 -0.5939
18628TIP3    H177375   2.762   3.213   0.622 -0.4182 -0.0373  2.1245
18628TIP3    H277376   2.645   3.301   0.583  0.0691 -0.3661 -0.2225
18629TIP3   OH277377   0.836   2.336   4.208 -0.1285 -0.0825  0.2546
18629TIP3    H177378   0.872   2.384   4.282 -0.0855 -1.6971  1.3158
18629TIP3    H277379   0.780   2.400   4.163 -0.0959  0.9509  1.6354
18630TIP3   OH277380   0.955   6.582   2.657  0.3101  0.0140 -0.3325
18630TIP3    H177381   0.883   6.530   2.621 -1.0275  0.9791  0.8037
18630TIP3    H277382   1.022   6.581   2.589 -0.5322 -1.4025 -1.2028
18631TIP3   OH277383   4.744   6.684  15.690 -0.0402 -0.0451  0.0242
18631TIP3    H177384   4.690   6.741  15.746 -1.7115 -1.3453 -0.1774
18631TIP3    H277385   4.709   6.698  15.602  0.2869 -0.5462 -0.1857
18632TIP3   OH277386   3.027   1.291  16.687 -0.2560  0.1919 -0.5790
18632TIP3    H177387   2.971   1.367  16.703 -0.4364  0.6601 -2.9820
18632TIP3    H277388   3.015   1.235  16.764  0.7061  3.0147  1.8025
18633TIP3   OH277389   4.140   1.229   2.591 -0.6559 -0.3915  0.1677
18633TIP3    H177390   4.084   1.157   2.619 -0.6081 -0.4159  0.1999
18633TIP3    H277391   4.105   1.255   2.506 -0.4239 -0.7208 -0.0315
18634TIP3   OH277392   5.341   0.063   3.474 -0.4993 -0.3848 -0.3936
18634TIP3    H177393   5.384   0.001   3.533 -0.3650 -1.8444 -1.9476
18634TIP3    H277394   5.305   0.130   3.532  0.8262 -1.0043  1.2207
18635TIP3   OH277395   0.989   0.022  11.763 -0.1096  0.1981  0.2735
18635TIP3    H177396   1.058  -0.031  11.802  1.1718  0.9236 -0.8972
18635TIP3    H277397   1.036   0.088  11.711 -1.6750  0.2004 -1.2439
18636TIP3   OH277398   0.979   2.383   0.727  0.5403 -0.1149 -0.1375
18636TIP3    H177399   0.988   2.320   0.798  1.3212  0.4147  0.2515
18636TIP3    H277400   1.011   2.338   0.650 -0.1387 -0.6323 -0.1240
18637TIP3   OH277401   5.131   2.948   3.540  0.3573  0.2904 -0.0796
18637TIP3    H177402   5.213   2.996   3.542 -0.1032  1.1502 -0.9941
18637TIP3    H277403   5.096   2.963   3.452 -0.4899 -0.5422  0.0997
18638TIP3   OH277404   3.515   0.427  14.553 -0.0000 -0.3127  0.0484
18638TIP3    H177405   3.502   0.440  14.647 -0.1290 -0.8876  0.1130
18638TIP3    H277406   3.510   0.332  14.540 -0.0786 -0.2351 -0.5518
18639TIP3   OH277407   3.646   3.447   2.681  0.4996  0.2374  0.2981
18639TIP3    H177408   3.715   3.506   2.649 -0.3075  0.3580 -1.3059
18639TIP3    H277409   3.655   3.368   2.627 -0.4080  0.1316  0.2837
18640TIP3   OH277410   6.329   1.994  11.922  0.2307  0.5926  0.7044
18640TIP3    H177411   6.289   2.066  11.970  0.4290  0.2529  1.3970
18640TIP3    H277412   6.310   1.916  11.975  0.1167  0.1482  0.0309
18641TIP3   OH277413   3.323   6.551   2.717 -0.2573  0.1358  0.0217
18641TIP3    H177414   3.419   6.548   2.711 -0.1268  1.3304  0.9655
18641TIP3    H277415   3.305   6.635   2.759 -1.5067 -1.5241  3.1800
18642TIP3   OH277416   4.976   1.214  16.678 -0.0497 -0.0381  0.0601
18642TIP3    H177417   4.894   1.244  16.718  0.1187  0.1723  0.2481
18642TIP3    H277418   4.949   1.145  16.617 -0.2077 -1.2750  1.4377
18643TIP3   OH277419   0.789   3.015  13.374 -0.3732 -0.3273  0.5421
18643TIP3    H177420   0.842   2.936  13.376 -0.5269 -0.7298 -3.1290
18643TIP3    H277421   0.844   3.081  13.331 -0.7063  1.2088  2.3436
18644TIP3   OH277422   4.692   3.489  12.960  0.0666 -0.3126  0.0409
18644TIP3    H177423   4.696   3.577  12.923  2.3406 -0.4254 -0.1037
18644TIP3    H277424   4.688   3.431  12.883 -0.9446 -0.3860  0.1297
18645TIP3   OH277425   3.570   5.071   5.445  0.3899 -0.7111 -0.5707
18645TIP3    H177426   3.504   5.009   5.415  0.8664 -0.7139 -1.6455
18645TIP3    H277427   3.536   5.157   5.418 -1.7363 -0.0619  3.4502
18646TIP3   OH277428   4.152   3.457   1.014  0.0464 -0.7387 -0.2035
18646TIP3    H177429   4.191   3.435   1.099 -0.2688 -0.8063 -0.0741
18646TIP3    H277430   4.188   3.393   0.953  1.9648  0.5856 -0.5819
18647TIP3   OH277431   6.769   5.934  11.678  0.8347  0.1365  1.0333
18647TIP3    H177432   6.798   5.935  11.587  2.3582 -3.1174  1.3356
18647TIP3    H277433   6.833   5.988  11.724 -0.7573  3.0073  0.1069
18648TIP3   OH277434   4.420   4.246   2.867  0.9078 -0.1023 -0.0403
18648TIP3    H177435   4.477   4.185   2.821  1.5818  0.5393 -0.0782
18648TIP3    H277436   4.387   4.197   2.942  2.6923 -0.0635  0.8246
18649TIP3   OH277437   3.517   0.134   5.645  0.2148  0.6252 -0.1145
18649TIP3    H177438   3.490   0.142   5.553  0.7591 -1.1196 -0.4613
18649TIP3    H277439   3.490   0.046   5.670 -0.7906  1.4151  1.7320
18650TIP3   OH277440   1.095   2.481   1.364  0.2054 -0.8008  0.5936
18650TIP3    H177441   1.143   2.398   1.368 -1.7147 -2.2448 -2.7369
18650TIP3    H277442   1.025   2.471   1.428  0.2514 -1.5765  0.5290
18651TIP3   OH277443   4.403   4.106   4.355  0.1611  0.4322 -0.9184
18651TIP3    H177444   4.421   4.159   4.433 -0.2462  0.5513 -0.9045
18651TIP3    H277445   4.430   4.161   4.282 -0.4536  0.7494 -0.9157
18652TIP3   OH277446   0.122   2.227  13.907 -0.6432  0.5713  0.5154
18652TIP3    H177447   0.193   2.169  13.880 -0.1353  1.3888  0.0668
18652TIP3    H277448   0.060   2.225  13.834 -1.5495 -0.8564  1.2892
18653TIP3   OH277449   2.067   6.491  10.686 -0.3820  0.0123  0.0486
18653TIP3    H177450   2.100   6.565  10.635 -0.5502  0.1100  0.0801
18653TIP3    H277451   2.137   6.426  10.682  1.0909  1.3014  2.5003
18654TIP3   OH277452   4.841   6.408  16.602 -0.1232 -0.2715  0.0790
18654TIP3    H177453   4.936   6.405  16.616 -0.1251  0.7218  0.3968
18654TIP3    H277454   4.814   6.316  16.600  0.7656 -0.5590  0.5649
18655TIP3   OH277455   5.083   4.183  12.141  0.0681  0.2201 -0.4019
18655TIP3    H177456   5.110   4.115  12.078  0.7589  0.7205 -0.6612
18655TIP3    H277457   5.159   4.241  12.146 -0.2144  0.5208  0.4433
18656TIP3   OH277458   0.799   0.508   2.690  0.6233 -0.5168 -0.1258
18656TIP3    H177459   0.817   0.507   2.596 -0.3612 -0.3004 -0.3236
18656TIP3    H277460   0.829   0.422   2.721 -1.4523 -1.6733 -1.1296
18657TIP3   OH277461   1.778   4.702  12.006 -0.3079 -0.1791  0.1596
18657TIP3    H177462   1.775   4.608  12.024 -2.5878  0.0333  1.2606
18657TIP3    H277463   1.707   4.738  12.059  0.2970  2.1312 -0.5112
18658TIP3   OH277464   3.523   5.318  15.284  0.2267  0.2170  0.8747
18658TIP3    H177465   3.505   5.295  15.376  4.0477 -1.1221  1.4525
18658TIP3    H277466   3.513   5.235  15.237 -2.8189  1.1012 -0.3008
18659TIP3   OH277467   5.903   2.278   4.811 -1.0275 -0.0728 -0.2339
18659TIP3    H177468   5.814   2.252   4.791 -0.6331 -1.4363 -0.2844
18659TIP3    H277469   5.912   2.262   4.905 -0.8847  0.2234 -0.1954
18660TIP3   OH277470   2.626   0.990  12.863 -0.1039 -0.0309 -0.0366
18660TIP3    H177471   2.583   0.933  12.926 -1.5619  0.6585 -0.3582
18660TIP3    H277472   2.693   0.935  12.823 -0.4034 -1.0270  0.7844
18661TIP3   OH277473   1.623   3.025   4.989 -0.4065 -0.5752 -0.4553
18661TIP3    H177474   1.674   3.000   4.912  0.2614 -0.2767 -0.1160
18661TIP3    H277475   1.664   2.979   5.062  0.8540  1.4444  0.1862
18662TIP3   OH277476   3.331   0.130  15.207  0.0472 -0.3794 -0.3781
18662TIP3    H177477   3.332   0.172  15.292 -2.8660 -1.0496  0.1012
18662TIP3    H277478   3.255   0.168  15.162 -0.1130 -1.9877 -1.5767
18663TIP3   OH277479   6.622   3.743  12.533 -0.4161 -0.3350 -0.0034
18663TIP3    H177480   6.594   3.717  12.445  0.2935  0.0512 -0.3581
18663TIP3    H277481   6.685   3.814  12.518  0.2099 -0.7026  0.7776
18664TIP3   OH277482   0.941   4.632  14.836 -0.0542  0.0495 -0.0463
18664TIP3    H177483   0.857   4.665  14.806 -1.1565 -2.4740  0.0776
18664TIP3    H277484   0.920   4.570  14.905  1.9664 -0.1060  0.5045
18665TIP3   OH277485   3.019   5.414   4.475  0.0288 -0.2925 -0.0464
18665TIP3    H177486   2.925   5.424   4.457 -0.1964 -0.7809  0.7904
18665TIP3    H277487   3.062   5.448   4.397 -0.8589 -1.2479 -0.9731
18666TIP3   OH277488   1.532   1.427  12.837  0.2909 -0.0700  0.4119
18666TIP3    H177489   1.478   1.504  12.857 -0.4499  0.0376 -1.7815
18666TIP3    H277490   1.470   1.364  12.799  1.8465  0.9316 -4.5194
18667TIP3   OH277491   3.652   0.285  11.929 -0.1930  0.0962  0.1622
18667TIP3    H177492   3.595   0.217  11.965 -1.8176  1.8413  1.1108
18667TIP3    H277493   3.600   0.327  11.861  0.9116  0.1959 -0.6555
18668TIP3   OH277494   4.594   3.556  14.314 -0.2948 -1.4645  0.0848
18668TIP3    H177495   4.517   3.594  14.273 -0.5706 -1.7582  0.3257
18668TIP3    H277496   4.596   3.595  14.402 -0.4680 -1.8534  0.2627
18669TIP3   OH277497   0.423   6.026  14.572 -0.2718  0.4049 -0.2314
18669TIP3    H177498   0.458   6.019  14.483  0.5462 -0.6402  0.1538
18669TIP3    H277499   0.422   5.936  14.605  0.5343  0.8840  1.2207
18670TIP3   OH277500   6.467   3.538   0.153  0.9000  0.1011  0.6443
18670TIP3    H177501   6.433   3.454   0.183 -0.6729  0.5478  0.2178
18670TIP3    H277502   6.515   3.517   0.073 -2.2233 -0.1153 -1.3647
18671TIP3   OH277503   2.307   4.042   5.319 -0.0104 -0.8478  0.2772
18671TIP3    H177504   2.249   3.996   5.258 -1.9655 -0.5972  1.8674
18671TIP3    H277505   2.279   4.134   5.313  1.1044 -0.4940  0.1604
18672TIP3   OH277506   4.862   1.755  15.202 -0.2864 -0.0773  0.0254
18672TIP3    H177507   4.927   1.687  15.218 -0.6320  0.0665  2.4032
18672TIP3    H277508   4.781   1.707  15.183 -0.1050 -0.2762 -0.2657
18673TIP3   OH277509   0.852   4.107   6.604 -0.8701 -0.2817 -0.0586
18673TIP3    H177510   0.946   4.103   6.621 -0.5893 -2.6213 -1.6228
18673TIP3    H277511   0.830   4.200   6.608  1.6083  0.3705 -0.1516
18674TIP3   OH277512   4.961   4.038  16.837 -0.4095  0.1890  0.2213
18674TIP3    H177513   4.944   4.080  16.921 -1.4588  0.2777 -0.0097
18674TIP3    H277514   5.048   4.067  16.812 -0.5157  1.0207  0.7775
18675TIP3   OH277515   1.950   2.117  15.573  0.0949 -0.3220 -0.1049
18675TIP3    H177516   1.966   2.022  15.568 -0.0368 -0.5209  2.3507
18675TIP3    H277517   2.031   2.156  15.539 -0.1577 -1.2686 -1.9100
18676TIP3   OH277518   2.003   5.359  11.872 -0.0251  0.7112 -0.0129
18676TIP3    H177519   2.058   5.287  11.902  0.0459  1.4726  1.8379
18676TIP3    H277520   1.913   5.325  11.878 -0.2391  1.5004  3.4959
18677TIP3   OH277521   6.426   6.389   4.711  0.4525  0.5306 -0.1359
18677TIP3    H177522   6.386   6.471   4.740  1.7703  0.4924  1.9827
18677TIP3    H277523   6.514   6.414   4.682  0.7431 -0.0632  0.2098
18678TIP3   OH277524   1.922   6.327  17.001  0.5916  0.0621  0.2415
18678TIP3    H177525   1.921   6.284  16.916 -1.1305 -0.5313  0.5215
18678TIP3    H277526   1.861   6.400  16.992  2.1392  1.4504  0.3170
18679TIP3   OH277527   0.288   3.339   6.551  0.5002  0.9097  0.2889
18679TIP3    H177528   0.322   3.423   6.582 -0.3048  1.0601  0.8084
18679TIP3    H277529   0.243   3.302   6.627 -3.3713  2.2265 -1.1164
18680TIP3   OH277530   3.951   4.586  11.877  0.4155  0.1022 -0.0144
18680TIP3    H177531   3.997   4.616  11.954 -1.4762  0.8266  0.9031
18680TIP3    H277532   3.919   4.499  11.900 -2.1572  1.2232  1.0212
18681TIP3   OH277533   5.709   3.801  13.228 -0.0579  0.1605  0.5969
18681TIP3    H177534   5.783   3.805  13.289  1.4576 -3.1478 -0.7724
18681TIP3    H277535   5.676   3.712  13.238 -1.7704  0.5455 -1.1837
18682TIP3   OH277536   6.535   5.000  13.617 -0.4381 -0.5079  0.1723
18682TIP3    H177537   6.547   5.081  13.667 -3.8233 -0.5483  1.3115
18682TIP3    H277538   6.468   5.022  13.552 -0.3019 -2.0175 -0.5237
18683TIP3   OH277539   2.729   5.220   1.562 -0.1916  0.1018  0.1144
18683TIP3    H177540   2.704   5.196   1.473  0.4101  1.3499 -0.4075
18683TIP3    H277541   2.646   5.242   1.605 -0.4606 -0.2791 -0.2021
18684TIP3   OH277542   5.961   5.115  12.321  0.4846 -0.0998 -0.3098
18684TIP3    H177543   6.027   5.135  12.255 -0.4666  0.5332 -1.1069
18684TIP3    H277544   5.933   5.026  12.301  0.7776 -0.2016 -0.2605
18685TIP3   OH277545   2.039   3.069  13.766  0.3537 -0.3416  0.0152
18685TIP3    H177546   2.018   3.062  13.859  0.1870 -0.4068 -0.0270
18685TIP3    H277547   1.973   3.015  13.723  0.4088 -0.2822 -0.1437
18686TIP3   OH277548   3.813   3.266  13.311 -0.0183  0.5143  0.2011
18686TIP3    H177549   3.725   3.267  13.349 -0.4290 -0.9548 -0.6478
18686TIP3    H277550   3.807   3.325  13.236 -0.0936  0.9280  0.5295
18687TIP3   OH277551   2.167   6.224  14.609 -0.2574 -0.4782  0.2618
18687TIP3    H177552   2.240   6.277  14.641 -0.7865  1.0899 -0.9938
18687TIP3    H277553   2.095   6.243  14.668 -0.6594  0.8423 -0.6131
18688TIP3   OH277554   1.785   2.648  12.282  0.2041 -0.1032 -0.2163
18688TIP3    H177555   1.880   2.658  12.273  0.0198 -0.1864 -3.2790
18688TIP3    H277556   1.773   2.557  12.309  0.9796 -0.8617 -2.2667
18689TIP3   OH277557   0.246   3.670   6.013  0.3648 -0.2924 -0.5620
18689TIP3    H177558   0.264   3.684   6.106 -2.4535 -1.7091  0.2873
18689TIP3    H277559   0.325   3.703   5.969  1.3815  1.3618  2.2165
18690TIP3   OH277560   5.563   5.351   6.338 -0.2598 -0.5570 -0.0236
18690TIP3    H177561   5.617   5.273   6.323  0.5370 -0.2343  1.0085
18690TIP3    H277562   5.616   5.424   6.306  0.8601 -0.0175  2.7384
18691TIP3   OH277563   4.579   5.810   2.745 -0.6504 -0.0312  0.6006
18691TIP3    H177564   4.509   5.747   2.730 -0.3163 -0.0677 -0.9628
18691TIP3    H277565   4.587   5.858   2.662  0.3939  0.7627  1.1290
18692TIP3   OH277566   6.117   2.605   4.407 -0.0753  1.0042  0.3530
18692TIP3    H177567   6.049   2.577   4.469  0.5827 -1.6373  0.0192
18692TIP3    H277568   6.090   2.568   4.323  0.5958  1.9421 -0.3000
18693TIP3   OH277569   5.039   6.126  17.047 -0.3006 -0.2974 -0.6145
18693TIP3    H177570   5.081   6.040  17.044 -0.9361 -0.6096 -2.7420
18693TIP3    H277571   4.946   6.106  17.036 -0.5384  0.6231 -0.3068
18694TIP3   OH277572   3.565   0.441  13.077 -0.0201 -0.1171 -0.0276
18694TIP3    H177573   3.550   0.492  12.997 -3.4976 -0.2587  0.3719
18694TIP3    H277574   3.583   0.353  13.046 -2.1667 -0.3630 -0.7615
18695TIP3   OH277575   2.253   5.881   3.697  0.2942  0.3202 -0.4153
18695TIP3    H177576   2.216   5.930   3.771  1.6238  0.8946 -0.1050
18695TIP3    H277577   2.342   5.858   3.725  0.1089 -1.2772 -1.0221
18696TIP3   OH277578   3.637   3.268  15.453  0.1123 -0.6727  0.6613
18696TIP3    H177579   3.682   3.193  15.414 -0.6884 -0.8116 -0.0068
18696TIP3    H277580   3.548   3.238  15.467  0.1872 -0.3531  1.8709
18697TIP3   OH277581   0.252   2.885  12.173  0.1261  0.3987  0.0973
18697TIP3    H177582   0.194   2.829  12.121  1.2236  0.0350 -0.7960
18697TIP3    H277583   0.194   2.935  12.229 -1.0786  0.3082 -1.0206
18698TIP3   OH277584   4.229   4.241  14.659  0.4199 -0.0317  0.9810
18698TIP3    H177585   4.268   4.255  14.573 -1.5684  0.7016  0.1535
18698TIP3    H277586   4.238   4.147  14.675 -0.2724 -0.3973 -0.5972
18699TIP3   OH277587   5.600   3.689   5.489 -0.1249 -0.5464 -0.4448
18699TIP3    H177588   5.630   3.601   5.510 -1.6750 -1.2439 -0.9772
18699TIP3    H277589   5.663   3.747   5.532  1.0185 -1.8960 -0.2207
18700TIP3   OH277590   2.586   0.670  11.414 -0.0617 -0.2401  0.2000
18700TIP3    H177591   2.681   0.667  11.423 -0.1431  0.0509  1.3319
18700TIP3    H277592   2.553   0.637  11.498 -0.9619 -0.8630 -0.3823
18701TIP3   OH277593   6.071   3.229   0.972  0.0451  0.1410  0.4128
18701TIP3    H177594   6.138   3.162   0.962  0.6771  0.9648 -1.2140
18701TIP3    H277595   6.027   3.233   0.887 -0.2709  1.4704  0.6075
18702TIP3   OH277596   2.516   3.646   5.379  0.2799 -0.8415  0.1926
18702TIP3    H177597   2.534   3.728   5.332 -3.2838 -1.5907 -2.9534
18702TIP3    H277598   2.511   3.580   5.310 -2.6404 -2.5894  1.8867
18703TIP3   OH277599   3.989   6.461   1.381 -0.3227  0.4280 -0.8147
18703TIP3    H177600   4.046   6.512   1.438 -1.3325 -1.2644  1.8565
18703TIP3    H277601   3.911   6.515   1.371 -0.4395  0.4331  0.0561
18704TIP3   OH277602   2.634   2.254  16.624 -0.2227 -0.1750 -0.6227
18704TIP3    H177603   2.720   2.294  16.632  0.1533 -0.8678 -1.1188
18704TIP3    H277604   2.628   2.230  16.531 -1.0407  0.0760 -0.6421
18705TIP3   OH277605   1.643   1.731   2.453  0.1757  0.1119 -0.2986
18705TIP3    H177606   1.684   1.818   2.456  1.9907 -0.7126  2.1954
18705TIP3    H277607   1.697   1.681   2.392 -0.7947  0.6525 -1.6385
18706TIP3   OH277608   1.222   4.975  14.857  0.0632 -0.1666  0.0337
18706TIP3    H177609   1.294   4.954  14.917  0.4845  0.9425 -0.0577
18706TIP3    H277610   1.265   5.014  14.781 -0.7301  3.2355  1.1532
18707TIP3   OH277611   2.989   5.438   0.596 -0.3156 -0.1054 -0.2298
18707TIP3    H177612   2.993   5.463   0.503 -2.1553 -0.6361 -0.4831
18707TIP3    H277613   3.041   5.505   0.640  0.0338  0.5487 -1.5616
18708TIP3   OH277614   2.960   1.971   0.661 -0.1925  0.0996  0.2114
18708TIP3    H177615   2.896   2.003   0.725 -1.4439 -0.2024 -0.8344
18708TIP3    H277616   2.913   1.973   0.577  0.3609 -2.4082 -0.2413
18709TIP3   OH277617   5.456   5.459   2.366  0.2635 -0.1251 -0.3720
18709TIP3    H177618   5.363   5.459   2.343  0.2539  0.5498 -0.3781
18709TIP3    H277619   5.482   5.551   2.356  1.4009 -0.5947 -2.2461
18710TIP3   OH277620   4.315   3.581   4.350  0.4570 -0.2060 -0.6240
18710TIP3    H177621   4.394   3.548   4.309  1.3724  0.4455  0.5523
18710TIP3    H277622   4.330   3.676   4.358 -1.2221  0.2305 -2.0390
18711TIP3   OH277623   6.102   6.159  15.169 -0.2740 -0.1788  0.0229
18711TIP3    H177624   6.075   6.152  15.261 -0.0152 -0.5354  0.0722
18711TIP3    H277625   6.180   6.214  15.171 -0.4681  0.0987 -0.0220
18712TIP3   OH277626   4.445   0.247  13.901 -0.3339  0.1688  0.7107
18712TIP3    H177627   4.374   0.209  13.952  1.0480 -2.8135  0.6111
18712TIP3    H277628   4.525   0.222  13.949  0.7837  1.3300 -0.4584
18713TIP3   OH277629   3.594   5.598   4.480  0.5354  0.5118  0.2937
18713TIP3    H177630   3.519   5.657   4.485 -0.1367  0.2093 -3.6684
18713TIP3    H277631   3.667   5.655   4.453  0.2607 -0.0820 -1.8731
18714TIP3   OH277632   3.442   2.414   1.721  0.1025 -0.0653  0.1177
18714TIP3    H177633   3.485   2.383   1.641  1.1427  2.5089 -0.4002
18714TIP3    H277634   3.348   2.407   1.701  0.3445  0.3816 -1.2680
18715TIP3   OH277635   6.646   2.267  17.264 -0.5515  0.4967 -0.0375
18715TIP3    H177636   6.636   2.356  17.231 -2.6177  0.6207  0.7697
18715TIP3    H277637   6.564   2.223  17.241 -0.5567 -0.4854  1.6664
18716TIP3   OH277638   2.467   0.924  11.278  0.0800 -0.6155 -0.0733
18716TIP3    H177639   2.461   0.929  11.374  1.2019  1.7389 -0.0526
18716TIP3    H277640   2.541   0.865  11.262  0.1929 -0.6465  0.5262
18717TIP3   OH277641   6.211   1.951   0.014 -0.1832 -0.0159  0.2575
18717TIP3    H177642   6.212   1.864   0.054 -0.5810  0.5247  1.4658
18717TIP3    H277643   6.148   2.001   0.065 -1.8436  0.3076 -1.9309
18718TIP3   OH277644   1.347   2.902  16.508 -0.2773 -0.1201  0.1394
18718TIP3    H177645   1.381   2.816  16.483 -0.2831  0.1610 -0.8723
18718TIP3    H277646   1.270   2.915  16.453 -0.7912  0.1637  0.9114
18719TIP3   OH277647   5.637   1.756   3.511 -0.0264 -0.5166  0.6919
18719TIP3    H177648   5.593   1.815   3.572  0.7432  0.9727 -0.1663
18719TIP3    H277649   5.690   1.699   3.567  0.3274  0.5300  1.4439
18720TIP3   OH277650   4.691   0.348  16.955  0.1728 -0.3387  1.1310
18720TIP3    H177651   4.735   0.411  17.012 -2.9830  1.6502  1.6298
18720TIP3    H277652   4.647   0.402  16.890  1.0476 -2.3972 -1.3233
18721TIP3   OH277653   0.719   3.953   6.425  0.0797  0.1355 -0.8167
18721TIP3    H177654   0.763   4.022   6.475 -1.5343  1.0739 -0.6179
18721TIP3    H277655   0.716   3.878   6.484 -0.4751  0.7544 -0.0320
18722TIP3   OH277656   6.478   2.229   3.227 -0.2536  0.4801 -0.1125
18722TIP3    H177657   6.386   2.211   3.207  0.0277 -0.8423 -0.2780
18722TIP3    H277658   6.476   2.268   3.315 -0.9331  0.0626  0.0619
18723TIP3   OH277659   3.021   2.566   1.949  0.6065 -0.2356  0.2362
18723TIP3    H177660   3.046   2.540   1.860  0.0612  1.6195 -0.5070
18723TIP3    H277661   3.017   2.661   1.946 -2.0935 -0.1988  1.5081
18724TIP3   OH277662   2.368   5.308  15.141 -0.1476 -0.1642 -0.6665
18724TIP3    H177663   2.298   5.246  15.122  0.8057 -1.2672 -0.6485
18724TIP3    H277664   2.449   5.262  15.118  0.6383  0.7574  0.1569
18725TIP3   OH277665   6.515   5.582   0.773 -0.2676  0.6822 -0.3996
18725TIP3    H177666   6.494   5.665   0.730 -0.3552  1.9883  2.0356
18725TIP3    H277667   6.609   5.586   0.789 -0.5963  1.3187  1.6205
18726TIP3   OH277668   5.489   6.750  15.467 -0.2098 -0.0449 -0.1174
18726TIP3    H177669   5.532   6.665  15.462  1.3949  0.5904  1.5946
18726TIP3    H277670   5.506   6.790  15.382  0.9589 -0.5879 -0.1688
18727TIP3   OH277671   2.077   4.026   4.557 -0.4626 -0.3471 -0.2685
18727TIP3    H177672   2.006   3.992   4.611  0.1800  0.7184  1.3202
18727TIP3    H277673   2.035   4.051   4.474 -2.0676  0.7501  0.8272
18728TIP3   OH277674   0.230   6.201   5.972  0.4423 -0.0578  0.0535
18728TIP3    H177675   0.259   6.264   6.038  0.6302 -0.6682  0.5604
18728TIP3    H277676   0.159   6.153   6.014  0.6440 -0.5321 -0.1401
18729TIP3   OH277677   5.265   4.706  14.886  0.6386  0.1866 -0.1820
18729TIP3    H177678   5.187   4.691  14.833  0.3360  0.3952  0.2042
18729TIP3    H277679   5.232   4.726  14.974  1.1402 -0.4241  0.1605
18730TIP3   OH277680   3.136   3.587  12.311  0.0313  0.4439  0.1311
18730TIP3    H177681   3.105   3.565  12.398 -0.7267 -1.5895 -0.6043
18730TIP3    H277682   3.075   3.655  12.280  0.1963  1.0384  1.0789
18731TIP3   OH277683   5.846   1.784   3.359  0.0760 -0.1024  0.0358
18731TIP3    H177684   5.890   1.831   3.430 -0.7498  0.7005  0.0424
18731TIP3    H277685   5.754   1.780   3.386 -0.2780  0.3300 -1.0301
18732TIP3   OH277686   3.899   2.609  13.812 -0.3252 -0.1382 -0.3177
18732TIP3    H177687   3.803   2.615  13.816 -0.3325 -0.2180 -0.3666
18732TIP3    H277688   3.928   2.699  13.802 -0.4043 -0.1268 -0.4561
18733TIP3   OH277689   3.623   1.062  12.200  0.8986 -0.1732 -0.0049
18733TIP3    H177690   3.688   1.099  12.259  3.6866 -3.0808 -0.9381
18733TIP3    H277691   3.619   0.969  12.223 -0.4498 -0.7445 -2.1710
18734TIP3   OH277692   4.798   6.229   1.143  0.7341  0.0609 -0.1268
18734TIP3    H177693   4.817   6.317   1.176  1.7171 -0.3996  0.5913
18734TIP3    H277694   4.884   6.191   1.123  0.3265 -0.7357 -0.4209
18735TIP3   OH277695   5.335   6.762  14.023  0.6244  0.3509  0.7459
18735TIP3    H177696   5.397   6.813  13.971  0.8081  0.6924  1.2900
18735TIP3    H277697   5.356   6.785  14.114 -0.4435  0.6370  0.9340
18736TIP3   OH277698   2.226   6.162  15.089 -0.1809 -0.1467 -0.3443
18736TIP3    H177699   2.178   6.243  15.076  0.6302  0.1695 -1.5578
18736TIP3    H277700   2.318   6.189  15.096 -0.0792 -0.7885  1.2784
18737TIP3   OH277701   6.438   2.585   3.832 -0.6243 -0.2805 -0.4603
18737TIP3    H177702   6.521   2.555   3.867 -1.1983  0.3054  1.5089
18737TIP3    H277703   6.389   2.505   3.813 -0.6205 -0.6383  0.9427
18738TIP3   OH277704   2.346   1.805  13.219 -0.5062  0.1197 -0.1160
18738TIP3    H177705   2.351   1.711  13.203 -1.0766  0.0371  0.1550
18738TIP3    H277706   2.398   1.819  13.299 -2.0317 -0.2836  1.0015
18739TIP3   OH277707   5.573   2.095  16.242 -0.3928 -0.0079  0.2506
18739TIP3    H177708   5.518   2.173  16.252 -3.5350 -1.9261 -0.5959
18739TIP3    H277709   5.638   2.120  16.176 -2.0940  1.5611 -0.9614
18740TIP3   OH277710   6.139   1.093   1.213  0.4559  0.2342  0.0202
18740TIP3    H177711   6.076   1.090   1.140  0.4146  0.7366  0.0327
18740TIP3    H277712   6.220   1.058   1.176  0.4487  0.5335 -0.2875
18741TIP3   OH277713   5.775   5.097   0.302  0.6030  0.5997  0.2067
18741TIP3    H177714   5.804   5.177   0.346  0.0494  1.4667 -0.9611
18741TIP3    H277715   5.692   5.120   0.262  0.3169 -0.6416  0.0343
18742TIP3   OH277716   3.359   4.222  16.246 -0.1075  1.4232  0.3504
18742TIP3    H177717   3.425   4.247  16.181 -1.4165  2.2884 -0.6774
18742TIP3    H277718   3.410   4.205  16.326  1.3631  2.0184 -0.4222
18743TIP3   OH277719   3.596   3.963  13.311 -0.1218  0.1679  0.4045
18743TIP3    H177720   3.573   4.011  13.232 -0.1497  0.4007  0.5530
18743TIP3    H277721   3.570   4.021  13.383 -0.2644 -0.1186  0.5851
18744TIP3   OH277722   6.797   2.051   0.974 -0.5566 -0.1199  0.5024
18744TIP3    H177723   6.867   1.995   1.008 -0.0683  0.2674  0.1567
18744TIP3    H277724   6.726   1.990   0.954  0.2130 -0.7267 -0.5230
18745TIP3   OH277725   2.484   5.984  15.608  0.3357 -0.0718  0.1970
18745TIP3    H177726   2.417   6.037  15.566 -1.1884 -1.6104  0.5901
18745TIP3    H277727   2.436   5.918  15.657  2.1296 -0.6420  1.3015
18746TIP3   OH277728   3.221   3.503   1.677 -0.3531 -0.0298 -0.1869
18746TIP3    H177729   3.181   3.509   1.764 -1.8758  1.7344 -0.9493
18746TIP3    H277730   3.157   3.458   1.624 -0.1408  0.3608 -0.7844
18747TIP3   OH277731   5.078   0.102   0.307 -0.3212 -0.3056 -0.3604
18747TIP3    H177732   5.171   0.107   0.288 -0.5129 -0.2252 -1.3323
18747TIP3    H277733   5.070   0.133   0.397  0.6940 -1.2039  0.0546
18748TIP3   OH277734   3.093   2.879   1.422  0.6833  0.1562 -0.7006
18748TIP3    H177735   3.022   2.851   1.480  1.2254 -1.6000 -0.8204
18748TIP3    H277736   3.131   2.954   1.465 -0.2743  0.1789  0.1435
18749TIP3   OH277737   0.629   3.656   2.210 -0.2132 -0.4442 -0.0501
18749TIP3    H177738   0.723   3.662   2.228 -0.4220  1.4202  0.6313
18749TIP3    H277739   0.591   3.616   2.288 -0.1967  0.7042  0.5777
18750TIP3   OH277740   5.954   1.146   4.036 -0.0533  0.2833 -0.0835
18750TIP3    H177741   5.889   1.212   4.062 -0.8581  0.3165 -2.0553
18750TIP3    H277742   5.903   1.076   3.996  1.0317 -0.2083 -0.6577
18751TIP3   OH277743   2.535   2.070  15.024 -0.6559  0.0794 -0.0758
18751TIP3    H177744   2.492   2.058  14.939 -0.2087  0.0046 -0.2975
18751TIP3    H277745   2.578   2.155  15.017 -1.0829  0.3292  0.2854
18752TIP3   OH277746   1.888   4.064  12.305 -0.1050  0.0754 -0.2351
18752TIP3    H177747   1.958   4.103  12.356  1.4147  0.2254 -2.3154
18752TIP3    H277748   1.885   3.973  12.334  1.7367 -0.2212 -0.8552
18753TIP3   OH277749   4.221   5.697   3.191  0.1464  0.7589 -0.5882
18753TIP3    H177750   4.216   5.709   3.097  1.9869  2.0297 -0.5724
18753TIP3    H277751   4.144   5.742   3.226  0.3492  1.7228 -1.3683
18754TIP3   OH277752   0.885   5.698  17.032 -0.2229 -0.2103 -0.3171
18754TIP3    H177753   0.840   5.668  17.111 -0.2646  0.3600 -0.1200
18754TIP3    H277754   0.920   5.618  16.992  1.5357 -0.3328  1.3309
18755TIP3   OH277755   2.269   1.554  13.880  0.1524  0.2506  0.1752
18755TIP3    H177756   2.345   1.532  13.825 -0.4795 -1.1107 -0.1892
18755TIP3    H277757   2.267   1.485  13.947 -0.8467  0.1924  0.0912
18756TIP3   OH277758   5.274   4.051  13.031  0.2998 -0.2324 -0.1840
18756TIP3    H177759   5.255   4.144  13.036 -0.5516 -0.4439  0.9678
18756TIP3    H277760   5.235   4.014  13.110 -3.4180 -2.2248 -2.6161
18757TIP3   OH277761   4.998   6.626  14.372  0.6553 -0.5203  0.2153
18757TIP3    H177762   4.906   6.609  14.349  0.8768  0.3036 -1.4665
18757TIP3    H277763   5.044   6.547  14.344  0.4281 -1.1072  1.4441
18758TIP3   OH277764   6.489   3.770  16.485 -0.6848  0.1334 -0.5832
18758TIP3    H177765   6.578   3.761  16.518 -1.2069 -1.3729  0.5011
18758TIP3    H277766   6.436   3.789  16.563 -1.7775 -2.3490 -0.6472
18759TIP3   OH277767   4.138   5.747   1.518  0.1431 -0.2583 -0.6890
18759TIP3    H177768   4.043   5.750   1.529  0.1230 -0.0259 -0.9091
18759TIP3    H277769   4.166   5.672   1.570 -0.3586 -1.4250 -2.0498
18760TIP3   OH277770   2.738   1.662  15.595 -0.2621 -0.7878  0.2297
18760TIP3    H177771   2.761   1.631  15.507  0.2440 -0.6981  0.3336
18760TIP3    H277772   2.756   1.756  15.594 -0.2133 -0.7936  0.4453
18761TIP3   OH277773   4.690   5.825   3.641 -0.7420 -0.3051 -0.7223
18761TIP3    H177774   4.762   5.772   3.675  0.2003  1.3143 -0.0572
18761TIP3    H277775   4.612   5.772   3.656  0.1944 -1.6608 -0.4749
18762TIP3   OH277776   0.163   3.716   2.706 -0.0804  0.0985 -0.4694
18762TIP3    H177777   0.212   3.745   2.784  0.2719 -1.3530 -0.1227
18762TIP3    H277778   0.170   3.790   2.645  3.5588 -0.3941 -0.8989
18763TIP3   OH277779   1.928   1.580   2.876 -0.5417 -0.2077  0.1371
18763TIP3    H177780   1.946   1.584   2.782 -3.0932  1.9513 -0.3727
18763TIP3    H277781   2.002   1.627   2.916 -1.4707  2.6633 -1.2457
18764TIP3   OH277782   6.707   1.131   3.422  0.4013  0.3321  0.4383
18764TIP3    H177783   6.633   1.079   3.452  0.3638  0.2039  0.1306
18764TIP3    H277784   6.667   1.209   3.384  0.3548 -0.2488 -0.7507
18765TIP3   OH277785   6.084   4.442  12.369  0.9604  0.2594  0.4317
18765TIP3    H177786   6.021   4.513  12.361  1.0717  0.2806 -0.3775
18765TIP3    H277787   6.092   4.427  12.463  0.2718  0.7187  0.5722
18766TIP3   OH277788   4.230   5.306   5.163 -0.1856  0.2166  0.4042
18766TIP3    H177789   4.278   5.304   5.245  0.0560  1.5723  0.3261
18766TIP3    H277790   4.168   5.233   5.169 -1.5364  1.4297  2.6400
18767TIP3   OH277791   3.419   1.136   5.821 -0.2347 -0.1140 -0.0098
18767TIP3    H177792   3.414   1.088   5.739 -0.2006 -0.7766  0.3692
18767TIP3    H277793   3.454   1.222   5.797  0.8563 -0.6880 -0.5367
18768TIP3   OH277794   6.056   4.038   0.058 -0.1619  0.0724  0.7469
18768TIP3    H177795   5.993   4.043   0.129  2.7565  0.8156  3.4950
18768TIP3    H277796   6.088   3.948   0.060  0.4872  0.2993  0.9232
18769TIP3   OH277797   0.429   0.993  14.478  0.4100  0.3621 -0.2978
18769TIP3    H177798   0.364   0.991  14.549  0.4503 -0.1613 -0.2739
18769TIP3    H277799   0.395   0.932  14.413  0.8432  0.1441 -0.3194
18770TIP3   OH277800   1.142   6.508  16.080 -0.0288  0.3773  0.3308
18770TIP3    H177801   1.203   6.461  16.136  0.8512  0.4625 -0.5239
18770TIP3    H277802   1.081   6.441  16.049  0.8641 -0.1071 -0.4185
18771TIP3   OH277803   5.915   4.538   2.898 -0.4531  0.1747 -0.7429
18771TIP3    H177804   5.876   4.475   2.959  1.3423  0.9070  1.3064
18771TIP3    H277805   6.008   4.516   2.898  0.1262  2.4015 -0.4568
18772TIP3   OH277806   6.429   2.464  16.833 -0.9651  0.1901  0.0849
18772TIP3    H177807   6.426   2.401  16.905 -0.6913  0.6529  0.5069
18772TIP3    H277808   6.424   2.411  16.754 -1.0965 -0.3349  0.4434
18773TIP3   OH277809   4.267   0.673   2.990 -0.2450  0.1922  0.2164
18773TIP3    H177810   4.323   0.694   2.915 -1.3110  0.3788 -0.5438
18773TIP3    H277811   4.258   0.755   3.038  2.6439 -0.4587  2.1452
18774TIP3   OH277812   1.719   1.356  10.253 -0.1608 -0.3534 -0.3898
18774TIP3    H177813   1.695   1.272  10.292 -0.7257  0.4067  0.9494
18774TIP3    H277814   1.788   1.390  10.311 -1.3224  1.0016  0.2381
18775TIP3   OH277815   1.057   2.702   3.878  0.0049  0.1339  0.6348
18775TIP3    H177816   1.118   2.717   3.950  0.3143  0.0684  0.3879
18775TIP3    H277817   0.974   2.679   3.921 -0.6308  2.9102  1.0633
18776TIP3   OH277818   5.269   0.167  12.046 -0.1404 -0.0749  0.1141
18776TIP3    H177819   5.344   0.196  11.995 -2.0169  1.2775 -2.0343
18776TIP3    H277820   5.277   0.072  12.048  0.2487 -0.1634 -2.3968
18777TIP3   OH277821   6.107   1.080  16.872 -0.1380 -0.4611 -0.0766
18777TIP3    H177822   6.133   1.096  16.963 -1.1715  2.5716 -0.1795
18777TIP3    H277823   6.119   0.986  16.859 -1.1749 -1.2582  3.5770
18778TIP3   OH277824   0.480   3.629  12.546 -0.3190  0.8217 -0.0425
18778TIP3    H177825   0.418   3.570  12.504  1.0938 -1.0312  0.3197
18778TIP3    H277826   0.465   3.616  12.640  0.4425  0.4994  0.0457
18779TIP3   OH277827   2.572   6.425   5.218 -0.2054  0.5484  0.1085
18779TIP3    H177828   2.611   6.345   5.255 -0.2073  1.0551  1.2468
18779TIP3    H277829   2.488   6.434   5.263  0.0445  1.4952  0.4090
18780TIP3   OH277830   5.122   0.177   0.562  0.0275  0.1683 -0.3867
18780TIP3    H177831   5.080   0.152   0.644  0.7475  1.6267  0.4460
18780TIP3    H277832   5.211   0.143   0.569  0.6321  1.8069  0.2193
18781TIP3   OH277833   2.880   5.411   4.154 -0.0057  0.3669  0.5227
18781TIP3    H177834   2.840   5.362   4.082  0.1509 -0.0243  0.6999
18781TIP3    H277835   2.848   5.367   4.233  0.2165  0.4867  0.6800
18782TIP3   OH277836   3.635   1.073   2.053  0.3512  0.9549  0.2232
18782TIP3    H177837   3.628   1.031   1.967  2.1250  1.2264 -0.0923
18782TIP3    H277838   3.576   1.023   2.109 -0.0374  0.1039 -0.9028
18783TIP3   OH277839   5.713   3.095  11.278 -0.4413  0.0451 -0.1344
18783TIP3    H177840   5.649   3.064  11.342 -0.3803 -0.1221 -0.1544
18783TIP3    H277841   5.718   3.025  11.213 -0.9067  0.4448 -0.6186
18784TIP3   OH277842   6.782   0.480  16.332 -0.2084  0.0722  0.0098
18784TIP3    H177843   6.742   0.473  16.418 -0.5793 -2.2530 -0.2878
18784TIP3    H277844   6.869   0.440  16.342  0.6659  1.8125 -0.2092
18785TIP3   OH277845   4.836   0.044   4.965 -0.7070  0.0705 -0.6709
18785TIP3    H177846   4.899   0.111   4.992 -1.8369  0.9200 -0.0849
18785TIP3    H277847   4.875   0.005   4.887  0.2691  0.9642 -0.6544
18786TIP3   OH277848   6.693   5.526   5.719  0.2135  0.1607  0.4254
18786TIP3    H177849   6.698   5.496   5.810  0.3943 -1.4926 -0.0964
18786TIP3    H277850   6.779   5.562   5.701  0.1671  0.5296  0.9145
18787TIP3   OH277851   1.394   4.064  11.872  0.1540  0.1525  0.4074
18787TIP3    H177852   1.335   4.002  11.916  0.9109 -0.8698  0.0319
18787TIP3    H277853   1.446   4.102  11.943 -0.6083  0.6922  0.6867
18788TIP3   OH277854   0.016   6.642  15.231  0.2413 -0.5940  0.1107
18788TIP3    H177855   0.043   6.733  15.242  0.5336 -0.2518 -2.7450
18788TIP3    H277856   0.094   6.591  15.257  0.9460  0.0764 -0.6587
18789TIP3   OH277857   6.551   5.662   5.254 -0.3091 -0.0134 -0.3465
18789TIP3    H177858   6.610   5.645   5.327 -0.8011 -1.0574 -0.1707
18789TIP3    H277859   6.561   5.755   5.236  1.4466 -0.1608 -0.3745
18790TIP3   OH277860   3.152   2.973  13.686  0.2930  0.4089  0.5675
18790TIP3    H177861   3.081   2.916  13.656 -0.7311  1.6523  0.5734
18790TIP3    H277862   3.215   2.973  13.614 -0.4545  0.5307 -0.0991
18791TIP3   OH277863   4.725   2.870  14.262  0.6559 -0.1794 -0.2695
18791TIP3    H177864   4.808   2.913  14.281  0.2910  0.2615  0.3640
18791TIP3    H277865   4.699   2.830  14.345  0.4868 -0.7594 -0.5948
18792TIP3   OH277866   4.195   5.341   4.134 -0.3898  0.1199  0.7778
18792TIP3    H177867   4.258   5.270   4.145  0.5112  0.8905  0.7921
18792TIP3    H277868   4.157   5.327   4.048 -0.8960 -0.8799  1.1432
18793TIP3   OH277869   0.983   4.092  12.522  0.0306 -0.4072 -0.3770
18793TIP3    H177870   0.997   4.069  12.614  4.8396  0.1512 -0.7461
18793TIP3    H277871   0.990   4.187  12.519 -2.7065 -0.1232 -1.1479
18794TIP3   OH277872   2.778   5.765   5.869  0.8803 -0.5566 -0.0698
18794TIP3    H177873   2.836   5.841   5.879  1.8881 -1.2161 -0.8039
18794TIP3    H277874   2.823   5.708   5.808 -0.8701 -0.7909 -1.2117
18795TIP3   OH277875   1.919   0.502  11.788  0.4910  0.4901 -0.3587
18795TIP3    H177876   1.909   0.488  11.694  0.4485  0.2378 -0.3162
18795TIP3    H277877   2.013   0.515  11.800  0.4711  0.7523 -0.4656
18796TIP3   OH277878   3.164   5.502   1.374  0.5941 -0.6803  0.0811
18796TIP3    H177879   3.087   5.452   1.402  0.9110 -0.7120  0.8995
18796TIP3    H277880   3.135   5.593   1.374  0.4371 -0.7287 -0.0250
18797TIP3   OH277881   5.519   0.733  14.895  0.0902  0.7972 -0.3559
18797TIP3    H177882   5.441   0.786  14.877 -0.9517 -0.8244 -0.8721
18797TIP3    H277883   5.497   0.681  14.972  0.0631 -0.7255 -1.3419
18798TIP3   OH277884   1.349   5.748  15.724  0.6889  0.3635 -0.3927
18798TIP3    H177885   1.260   5.755  15.689  0.0876  2.4770  1.3004
18798TIP3    H277886   1.398   5.704  15.656 -1.7290 -1.2499 -1.2341
18799TIP3   OH277887   3.031   6.366  11.958 -0.8324  0.2011  0.1634
18799TIP3    H177888   3.053   6.314  11.880 -2.1756  0.9340 -0.7350
18799TIP3    H277889   3.096   6.437  11.958 -0.9905  0.3518 -0.4484
18800TIP3   OH277890   1.040   1.547   3.472  0.2477 -0.4036  0.7820
18800TIP3    H177891   1.077   1.571   3.387  0.8947  0.3093  1.2481
18800TIP3    H277892   0.959   1.598   3.478  0.9707  0.7475  1.2180
18801TIP3   OH277893   0.590   0.744  12.368 -0.7819  0.2678 -0.5969
18801TIP3    H177894   0.520   0.717  12.309 -0.6834 -3.1853  0.6360
18801TIP3    H277895   0.556   0.729  12.455  1.5524 -2.0680  0.0394
18802TIP3   OH277896   0.525   1.349  17.232  0.2503  0.3332 -0.0995
18802TIP3    H177897   0.515   1.297  17.153 -0.4200  0.1585  0.0932
18802TIP3    H277898   0.438   1.350  17.272  0.5576  0.4941  0.5871
18803TIP3   OH277899   1.637   1.120  16.665  0.3308 -0.3863  0.4784
18803TIP3    H177900   1.606   1.030  16.652  0.2297 -0.1605 -1.0025
18803TIP3    H277901   1.558   1.168  16.692 -0.0506 -0.3522 -0.6670
18804TIP3   OH277902   3.104   4.212  11.922 -0.1726 -0.4286 -0.0171
18804TIP3    H177903   3.066   4.149  11.984  0.4617 -0.5995  0.2072
18804TIP3    H277904   3.118   4.162  11.842 -0.6997 -0.2870 -0.2024
18805TIP3   OH277905   5.407   6.768   2.345 -0.4475  0.6728 -0.2999
18805TIP3    H177906   5.388   6.792   2.436  0.3188  0.9765 -0.2069
18805TIP3    H277907   5.431   6.851   2.303  1.1015  0.2768 -0.2767
18806TIP3   OH277908   5.280   0.744  14.339 -0.1007 -0.6738 -0.1218
18806TIP3    H177909   5.348   0.678  14.344  2.3711  1.7197  0.3516
18806TIP3    H277910   5.291   0.796  14.419 -2.4460 -0.1239 -0.0846
18807TIP3   OH277911   2.582   0.215  14.737 -0.6649  0.0375 -0.5325
18807TIP3    H177912   2.649   0.255  14.682 -1.6021  0.4808 -1.3783
18807TIP3    H277913   2.511   0.195  14.677 -0.1184 -3.2935 -0.2671
18808TIP3   OH277914   1.501   1.922   4.197 -0.4560 -0.2566 -0.2559
18808TIP3    H177915   1.472   1.835   4.223 -0.7577  0.0679  0.5154
18808TIP3    H277916   1.454   1.982   4.255 -0.1882  0.4199 -0.7173
18809TIP3   OH277917   4.164   2.548  13.963  0.0270 -0.6873 -0.1577
18809TIP3    H177918   4.251   2.584  13.951  0.2768 -1.2458 -0.0705
18809TIP3    H277919   4.115   2.577  13.886  0.0603  0.2721  0.1727
18810TIP3   OH277920   3.091   6.095   0.818  0.4809 -0.5081  0.5272
18810TIP3    H177921   3.139   6.028   0.770 -0.4881 -1.0103  0.2429
18810TIP3    H277922   3.081   6.167   0.756 -0.6119 -1.0838  0.0199
18811TIP3   OH277923   4.403   2.270   4.827 -0.1177 -0.5579 -0.1414
18811TIP3    H177924   4.425   2.195   4.883 -0.4251  0.8022  1.9165
18811TIP3    H277925   4.394   2.343   4.888 -1.9968  0.7100 -1.8334
18812TIP3   OH277926   6.500   3.071   2.702  0.5349 -0.2923 -0.0902
18812TIP3    H177927   6.468   3.043   2.788  0.2721 -0.6716 -0.3072
18812TIP3    H277928   6.594   3.049   2.704  0.3609 -1.1048 -0.2097
18813TIP3   OH277929   5.784   0.918   4.661 -0.1214  0.4003  0.0038
18813TIP3    H177930   5.865   0.969   4.664  0.6463 -0.7248 -1.0628
18813TIP3    H277931   5.762   0.902   4.753  1.1414  0.3038  0.2966
18814TIP3   OH277932   4.879   2.633  13.502 -0.2931  0.6554 -0.2447
18814TIP3    H177933   4.966   2.607  13.474  0.2458  3.0880 -0.9995
18814TIP3    H277934   4.836   2.665  13.423 -0.9009  2.0232  0.6025
18815TIP3   OH277935   6.374   6.416  14.090  0.1114 -0.0466 -0.1093
18815TIP3    H177936   6.297   6.360  14.104 -0.0293  0.2110  0.1362
18815TIP3    H277937   6.444   6.354  14.068 -0.2549 -0.2570 -0.7142
18816TIP3   OH277938   1.170   0.146   0.611  0.2249  0.4680  0.2212
18816TIP3    H177939   1.110   0.102   0.671 -0.3395 -0.2019 -0.8005
18816TIP3    H277940   1.158   0.239   0.629 -1.7010  0.4005 -0.4656
18817TIP3   OH277941   4.125   5.157   0.308  0.5491  0.1592 -0.0057
18817TIP3    H177942   4.124   5.252   0.320 -1.1874  0.3145 -1.1695
18817TIP3    H277943   4.078   5.123   0.383 -1.9724  0.5045 -1.3390
18818TIP3   OH277944   6.724   3.048   3.383 -0.0315  0.5019 -0.5690
18818TIP3    H177945   6.734   2.967   3.333 -3.4781 -0.7545  0.5110
18818TIP3    H277946   6.660   3.099   3.333 -0.6425  0.9047  0.6021
18819TIP3   OH277947   5.662   3.496   1.862 -0.7512 -0.4943 -0.3985
18819TIP3    H177948   5.671   3.565   1.928 -1.4795 -2.7215  2.1750
18819TIP3    H277949   5.586   3.522   1.811 -0.5846  0.9567  0.0416
18820TIP3   OH277950   0.827   2.640   4.029 -0.2384  0.3351  0.7096
18820TIP3    H177951   0.741   2.661   3.992 -0.2597  0.8743  1.0542
18820TIP3    H277952   0.822   2.671   4.119  0.7355  1.5221  0.3829
18821TIP3   OH277953   3.538   0.968  14.501 -0.0194  0.2038  0.6748
18821TIP3    H177954   3.442   0.972  14.497 -0.0330 -0.7241 -0.7569
18821TIP3    H277955   3.557   0.946  14.592 -1.3257 -2.3595  0.4181
18822TIP3   OH277956   5.508   0.865  15.221  0.4034  0.1557 -0.5018
18822TIP3    H177957   5.560   0.942  15.241 -0.1839  0.7868 -1.3341
18822TIP3    H277958   5.418   0.890  15.241 -0.0102  0.2888 -2.3419
18823TIP3   OH277959   4.986   1.161  13.741  0.2143 -0.6519  0.2167
18823TIP3    H177960   4.913   1.104  13.762 -0.1494 -1.1146 -2.0651
18823TIP3    H277961   5.046   1.153  13.815 -1.1412 -1.7782  1.2176
18824TIP3   OH277962   0.954   3.285  11.132  0.0322  0.5767 -0.0524
18824TIP3    H177963   0.876   3.233  11.153 -0.1905  1.0365  0.2751
18824TIP3    H277964   0.956   3.288  11.036  0.1740 -0.2181 -0.0810
18825TIP3   OH277965   5.686   6.696  11.470  0.0913  0.0277 -0.6042
18825TIP3    H177966   5.606   6.664  11.428 -0.6095  1.1074 -0.1309
18825TIP3    H277967   5.739   6.617  11.483 -1.3437 -0.8731  0.0037
18826TIP3   OH277968   3.667   6.367  15.043  0.9603  0.0664  0.1839
18826TIP3    H177969   3.761   6.380  15.050  0.6619  4.2373 -1.0111
18826TIP3    H277970   3.630   6.414  15.118 -0.2403 -0.5911  0.0401
18827TIP3   OH277971   6.713   0.767  16.304 -0.2955 -0.1770 -0.1433
18827TIP3    H177972   6.789   0.741  16.355 -0.5601  0.7786  0.7939
18827TIP3    H277973   6.683   0.687  16.262  1.2382 -0.5577 -0.5535
18828TIP3   OH277974   2.174   6.159   4.488 -0.0380 -0.2698 -0.5928
18828TIP3    H177975   2.198   6.162   4.396 -1.1996  1.0895 -0.8869
18828TIP3    H277976   2.181   6.250   4.518  1.3135 -0.8290  0.9555
18829TIP3   OH277977   5.310   5.225  17.041  0.1938 -0.1853 -0.0133
18829TIP3    H177978   5.226   5.190  17.011  0.4323  0.2875 -1.3152
18829TIP3    H277979   5.311   5.315  17.009  0.4813  0.3526  1.4690
18830TIP3   OH277980   6.458   4.429   1.719 -0.0732 -0.1343 -0.0440
18830TIP3    H177981   6.374   4.410   1.762  1.3261 -0.6543  2.6528
18830TIP3    H277982   6.483   4.515   1.752  2.2200 -1.5875  2.3643
18831TIP3   OH277983   2.265   1.090   3.933 -0.3254 -0.3800  0.0769
18831TIP3    H177984   2.224   1.156   3.990  0.9491  0.5734 -0.0765
18831TIP3    H277985   2.199   1.021   3.927 -1.3728  0.4890  0.9256
18832TIP3   OH277986   3.358   1.184  12.227  0.6161 -0.6882  0.0359
18832TIP3    H177987   3.444   1.149  12.201 -0.1439 -3.0793  0.4697
18832TIP3    H277988   3.366   1.200  12.321  0.2627 -2.1181  0.3354
18833TIP3   OH277989   6.165   3.163  12.733 -0.1682  0.5689 -0.0375
18833TIP3    H177990   6.137   3.234  12.675  2.9015 -0.6276 -3.3044
18833TIP3    H277991   6.247   3.194  12.771  0.8732 -0.8780 -1.0033
18834TIP3   OH277992   2.185   4.384  15.040  0.8702  0.2201 -0.1660
18834TIP3    H177993   2.093   4.400  15.017  1.0498  1.1590 -0.2799
18834TIP3    H277994   2.221   4.339  14.964  0.2096 -1.3226  0.3861
18835TIP3   OH277995   6.523   3.660  13.581  0.1295 -0.4800  0.0389
18835TIP3    H177996   6.451   3.606  13.613  0.4592 -0.6403  0.5134
18835TIP3    H277997   6.497   3.749  13.604  0.7667 -0.6631  1.5708
18836TIP3   OH277998   5.303   1.011  11.128  0.0248 -0.7236 -0.1164
18836TIP3    H177999   5.261   1.074  11.186  2.8394  0.8584  0.4017
18836TIP3    H278000   5.271   0.926  11.158 -2.0018  0.3017  0.7867
18837TIP3   OH278001   5.897   1.295  14.909 -0.4609  0.2729  0.7686
18837TIP3    H178002   5.976   1.301  14.963 -1.1604 -0.6396  1.9489
18837TIP3    H278003   5.825   1.299  14.972 -1.3592  0.7566 -0.2561
18838TIP3   OH278004   5.003   5.503  11.714  0.4976 -0.0437 -0.3604
18838TIP3    H178005   5.064   5.492  11.787  2.0590  0.6120 -1.4880
18838TIP3    H278006   5.025   5.590  11.678 -0.5406 -0.1540 -1.3038
18839TIP3   OH278007   6.361   3.370  15.120  0.6127  0.1464 -0.4212
18839TIP3    H178008   6.349   3.306  15.190 -0.2399 -1.1268 -1.6590
18839TIP3    H278009   6.449   3.353  15.086  0.5487 -0.0854 -0.4722
18840TIP3   OH278010   6.804   4.990  15.252 -0.2515  0.1215 -0.1535
18840TIP3    H178011   6.851   5.074  15.258  1.0585 -0.5764 -0.1873
18840TIP3    H278012   6.805   4.968  15.159 -0.4140 -0.0340 -0.1189
18841TIP3   OH278013   5.681   3.256  16.766 -0.1311 -0.3766  0.0099
18841TIP3    H178014   5.644   3.270  16.679  0.3440  0.4238 -0.0663
18841TIP3    H278015   5.774   3.240  16.751  0.0916  0.4613  0.4069
18842TIP3   OH278016   4.292   0.976   1.847 -0.1837 -0.3653  0.2535
18842TIP3    H178017   4.372   1.001   1.894  0.2960  0.2953 -0.8691
18842TIP3    H278018   4.222   1.023   1.891  0.3975  1.0746 -0.3207
18843TIP3   OH278019   5.233   4.555   5.572  0.2246  0.1380  0.0795
18843TIP3    H178020   5.152   4.530   5.528  0.6936 -0.3771 -0.5161
18843TIP3    H278021   5.270   4.472   5.602  0.4756  0.3806  0.4495
18844TIP3   OH278022   1.123   5.796   2.616 -0.0136 -0.5993 -0.8045
18844TIP3    H178023   1.092   5.723   2.669 -0.5296  1.5278  2.0904
18844TIP3    H278024   1.216   5.802   2.635  0.3676 -1.3212 -2.2314
18845TIP3   OH278025   2.260   3.130   4.731 -0.1996  0.6429 -0.2035
18845TIP3    H178026   2.234   3.058   4.789  0.3590  1.1367  0.6763
18845TIP3    H278027   2.258   3.091   4.643  2.0249 -1.0586  0.3869
18846TIP3   OH278028   3.957   0.141   1.005  0.0402 -0.3229  1.0109
18846TIP3    H178029   3.981   0.049   1.015 -1.1976 -0.7211  0.5490
18846TIP3    H278030   3.951   0.154   0.910  0.2305  0.2436  1.0701
18847TIP3   OH278031   2.370   0.698   0.851  0.1769  0.0648  0.0509
18847TIP3    H178032   2.298   0.675   0.792  0.6609  0.4471 -0.6998
18847TIP3    H278033   2.330   0.755   0.917 -0.4158 -0.5540  0.2447
18848TIP3   OH278034   5.753   4.528   3.443  0.3318 -0.2102  0.3663
18848TIP3    H178035   5.666   4.553   3.412  0.4384  1.4554  1.2832
18848TIP3    H278036   5.788   4.470   3.375  0.4963  3.0217 -2.5739
18849TIP3   OH278037   4.059   4.129   4.531  0.1501  0.0491 -0.2531
18849TIP3    H178038   4.110   4.059   4.573  0.0034 -0.6360 -1.1685
18849TIP3    H278039   4.065   4.109   4.437 -1.4713  0.1657 -0.4082
18850TIP3   OH278040   1.145   3.484   1.601 -0.4316 -0.2800  0.2179
18850TIP3    H178041   1.205   3.483   1.526 -0.3339 -2.5293  0.2722
18850TIP3    H278042   1.176   3.558   1.654  1.6442 -0.7001 -0.2930
18851TIP3   OH278043   3.053   3.021  16.718  0.6080  0.6262  0.1709
18851TIP3    H178044   3.125   2.997  16.775  1.3373 -0.6905 -1.2283
18851TIP3    H278045   3.061   2.963  16.642 -0.6668  1.8734 -1.0021
18852TIP3   OH278046   3.157   5.983   2.867 -0.1847  0.0017  0.0005
18852TIP3    H178047   3.161   6.079   2.862  1.9694 -0.0968 -2.2002
18852TIP3    H278048   3.101   5.957   2.794  1.0288 -0.4469 -0.7954
18853TIP3   OH278049   4.264   6.561   3.333  0.3626 -0.3074  0.4729
18853TIP3    H178050   4.230   6.568   3.422  1.9022  0.2939  1.0545
18853TIP3    H278051   4.296   6.649   3.312 -1.6892  0.0540 -1.4370
18854TIP3   OH278052   1.101   5.653  15.609  0.2141 -0.1923  0.2746
18854TIP3    H178053   1.010   5.624  15.613 -0.2424 -0.4319 -5.0117
18854TIP3    H278054   1.096   5.748  15.612 -0.2292 -0.2015 -0.1269
18855TIP3   OH278055   2.796   1.537   2.250  0.3000  0.1350 -0.3362
18855TIP3    H178056   2.861   1.606   2.239  0.8260 -0.5948 -2.2433
18855TIP3    H278057   2.819   1.495   2.333  0.7527  1.4187  0.2067
18856TIP3   OH278058   1.522   1.745  12.654 -0.1181 -0.1095  0.2971
18856TIP3    H178059   1.555   1.825  12.695 -2.3167  1.0176 -0.0014
18856TIP3    H278060   1.507   1.769  12.563 -0.0036 -1.1171  0.0014
18857TIP3   OH278061   3.877   5.080   4.399  0.2653 -0.1637  0.2425
18857TIP3    H178062   3.947   5.106   4.458  0.1691 -1.0401  0.7582
18857TIP3    H278063   3.851   4.993   4.429 -1.6094  0.4702  0.5832
18858TIP3   OH278064   0.770   2.821   0.375  0.5658  0.0914 -0.3626
18858TIP3    H178065   0.708   2.766   0.327 -0.8538  0.0601  1.3885
18858TIP3    H278066   0.803   2.765   0.445 -0.5658  1.2856  1.1880
18859TIP3   OH278067   6.440   4.552   0.942 -0.2816  0.0880 -0.0810
18859TIP3    H178068   6.412   4.589   0.858 -0.5652  2.9809  1.1495
18859TIP3    H278069   6.362   4.509   0.976  0.3717 -3.0074 -2.0867
18860TIP3   OH278070   5.231   4.814  13.698  0.5918  0.3131 -0.2865
18860TIP3    H178071   5.317   4.856  13.692  0.1117  1.1460 -1.6847
18860TIP3    H278072   5.247   4.724  13.670  1.2374  0.0740  0.7643
18861TIP3   OH278073   2.478   0.193   4.317  0.0091  0.2019  0.4126
18861TIP3    H178074   2.563   0.228   4.343  1.2552 -0.9033 -1.8424
18861TIP3    H278075   2.426   0.270   4.295  1.8942  0.8899 -2.1942
18862TIP3   OH278076   4.744   0.366  11.064 -0.0556 -0.4206  0.0287
18862TIP3    H178077   4.718   0.292  11.008  1.7449 -0.7527 -0.4491
18862TIP3    H278078   4.780   0.431  11.002 -0.2104  0.2084  0.5893
18863TIP3   OH278079   0.959   5.244  16.175  0.4676  0.0996  0.3026
18863TIP3    H178080   0.863   5.249  16.174  0.4359 -0.1069 -1.7642
18863TIP3    H278081   0.987   5.335  16.188  0.0345  0.0265  2.0191
18864TIP3   OH278082   1.972   0.566  14.661 -0.4632  0.5073  0.2610
18864TIP3    H178083   2.055   0.541  14.702  0.2075  1.6881 -0.3288
18864TIP3    H278084   1.973   0.662  14.663 -0.9853  0.5641 -1.3932
18865TIP3   OH278085   6.148   5.529   3.698 -0.0790 -0.2480  0.1139
18865TIP3    H178086   6.199   5.448   3.693 -0.4462 -0.6083  1.7434
18865TIP3    H278087   6.080   5.511   3.763 -1.2735  0.7798 -0.7956
18866TIP3   OH278088   4.504   4.434  15.405 -0.3398 -0.2027 -0.3227
18866TIP3    H178089   4.561   4.360  15.384 -0.3884  0.1090 -1.7070
18866TIP3    H278090   4.504   4.487  15.325 -1.3242  0.6165  0.1948
18867TIP3   OH278091   1.637   5.770   4.352 -0.3966 -0.0001  0.8627
18867TIP3    H178092   1.703   5.820   4.400  0.9458 -1.6319  0.7769
18867TIP3    H278093   1.669   5.767   4.262 -1.5432  0.7294  0.3985
18868TIP3   OH278094   0.913   4.380   5.359 -0.4630  0.6803  0.4930
18868TIP3    H178095   1.007   4.372   5.342 -0.6236  0.0623 -0.1912
18868TIP3    H278096   0.895   4.473   5.350 -0.0573  0.7004 -0.1959
18869TIP3   OH278097   2.203   3.852  13.475  0.4558 -0.1701  0.0112
18869TIP3    H178098   2.241   3.765  13.467 -0.2110 -0.3476 -1.8120
18869TIP3    H278099   2.234   3.885  13.559  1.0841 -1.9788  0.5186
18870TIP3   OH278100   3.970   0.437   3.991 -0.0722  0.1516  0.4841
18870TIP3    H178101   4.043   0.408   4.045 -0.1406  0.0538  0.5234
18870TIP3    H278102   3.934   0.513   4.037 -2.3181 -1.9217  2.4443
18871TIP3   OH278103   0.548   3.262  12.364  0.1370 -0.1763 -0.2781
18871TIP3    H178104   0.598   3.290  12.440 -0.1033  1.1311 -0.5843
18871TIP3    H278105   0.508   3.342  12.330  1.2592 -0.5097 -2.5368
18872TIP3   OH278106   3.094   0.980  11.788  0.3498 -0.0229  0.5426
18872TIP3    H178107   3.168   0.950  11.735 -1.1556  0.5541 -2.0963
18872TIP3    H278108   3.032   0.907  11.787 -0.2463  0.4732  0.3771
18873TIP3   OH278109   4.903   0.394  13.193  0.1716  0.0464 -0.4954
18873TIP3    H178110   4.861   0.342  13.262  1.4068  1.1593  1.1951
18873TIP3    H278111   4.952   0.331  13.141  2.3187 -0.5215  2.0060
18874TIP3   OH278112   0.619   1.605  13.822  0.4525  0.1402  0.1155
18874TIP3    H178113   0.642   1.512  13.820 -1.0554 -0.2530 -0.0705
18874TIP3    H278114   0.524   1.606  13.826  0.4546  1.6896  0.3417
18875TIP3   OH278115   1.135   0.429  11.435 -0.2946 -0.0545  0.0551
18875TIP3    H178116   1.053   0.410  11.388  0.7471 -0.2823 -1.7845
18875TIP3    H278117   1.203   0.393  11.378  1.2227  1.9544  0.5176
18876TIP3   OH278118   5.735   5.841   3.213  0.0884 -0.1580  0.4393
18876TIP3    H178119   5.645   5.863   3.237  0.3664  1.6643 -0.0651
18876TIP3    H278120   5.790   5.900   3.265  0.8720  0.5712 -1.1490
18877TIP3   OH278121   3.851   4.156  16.210 -0.3091 -0.2626 -0.0040
18877TIP3    H178122   3.907   4.233  16.214 -1.1298  0.4132 -1.0518
18877TIP3    H278123   3.794   4.171  16.134 -1.2674 -1.3536  0.4614
18878TIP3   OH278124   0.410   4.700  12.489 -0.9368  0.6663 -0.2025
18878TIP3    H178125   0.376   4.787  12.507 -0.9771  0.8933 -1.3105
18878TIP3    H278126   0.374   4.645  12.559 -1.5144  1.3859  0.0768
18879TIP3   OH278127   2.817   5.339  11.461 -0.4590  0.2509 -0.1268
18879TIP3    H178128   2.748   5.315  11.399 -0.3483 -0.9636  0.1917
18879TIP3    H278129   2.840   5.429  11.438 -1.4709  0.3352 -0.8610
18880TIP3   OH278130   5.402   6.173   0.925 -0.2383  0.8763  0.6088
18880TIP3    H178131   5.494   6.181   0.900 -0.6143  0.7263 -0.9160
18880TIP3    H278132   5.402   6.183   1.021  1.4041  0.4475  0.6863
18881TIP3   OH278133   2.189   5.850  17.119  0.1717  0.0941  0.1240
18881TIP3    H178134   2.244   5.929  17.114  0.8641 -0.3749  0.1933
18881TIP3    H278135   2.108   5.874  17.074 -0.0079  1.1527  0.9704
18882TIP3   OH278136   0.169   6.344   3.436  0.0107  0.1064 -0.6287
18882TIP3    H178137   0.077   6.319   3.427  0.4742 -1.1506 -2.5719
18882TIP3    H278138   0.167   6.434   3.468 -1.8976  0.0938 -0.6232
18883TIP3   OH278139   1.878   6.398  16.311  0.1038 -0.5644  0.1152
18883TIP3    H178140   1.878   6.346  16.391 -0.3496 -0.1009  0.4272
18883TIP3    H278141   1.794   6.378  16.270 -0.7885  1.0870  1.0343
18884TIP3   OH278142   6.595   6.699  12.330  0.4693  0.1625 -0.2855
18884TIP3    H178143   6.603   6.754  12.408  0.5195 -0.1698 -0.0537
18884TIP3    H278144   6.670   6.725  12.275  0.8772 -0.1369  0.1177
18885TIP3   OH278145   2.691   3.302   3.546 -0.4304 -0.0729  0.4580
18885TIP3    H178146   2.611   3.343   3.580 -1.2069 -0.4539 -0.8214
18885TIP3    H278147   2.695   3.330   3.454  2.5156  2.3312  1.1365
18886TIP3   OH278148   5.587   4.358   5.037 -0.6020 -0.1143  0.7247
18886TIP3    H178149   5.664   4.327   5.085 -1.0354  0.7687  2.0329
18886TIP3    H278150   5.531   4.398   5.103 -0.7456  2.1440 -0.6333
18887TIP3   OH278151   2.795   2.664  12.412 -0.3616 -0.4805 -0.0688
18887TIP3    H178152   2.830   2.741  12.368 -0.7854 -1.0423 -1.4278
18887TIP3    H278153   2.743   2.699  12.484  0.0497  0.4709 -0.2189
18888TIP3   OH278154   5.224   4.801   1.238  0.0094 -0.4287  0.6378
18888TIP3    H178155   5.229   4.764   1.327  3.8511 -2.3587 -0.1486
18888TIP3    H278156   5.302   4.857   1.232  0.6347 -1.4353 -1.8603
18889TIP3   OH278157   0.171   4.721  12.799 -0.0560 -0.2503 -0.0723
18889TIP3    H178158   0.164   4.815  12.814  0.8575 -0.1927  0.0198
18889TIP3    H278159   0.081   4.689  12.807 -0.3094  0.5434  0.3503
18890TIP3   OH278160   6.549   0.432   6.078  0.0726  0.1066  0.7003
18890TIP3    H178161   6.636   0.432   6.040 -0.4645 -0.4702 -0.6045
18890TIP3    H278162   6.525   0.339   6.083 -0.1510  0.2139  1.8025
18891TIP3   OH278163   2.050   6.460   1.893 -0.0573 -0.9324  0.0192
18891TIP3    H178164   2.131   6.426   1.931  0.3208 -1.1313 -0.9579
18891TIP3    H278165   1.996   6.382   1.879 -0.2231 -0.8507  0.1975
18892TIP3   OH278166   4.290   0.487  15.526  0.5671  0.1122  0.0496
18892TIP3    H178167   4.267   0.539  15.603  0.4340  0.5180 -0.2598
18892TIP3    H278168   4.327   0.407  15.562  2.8528  1.3072  0.5501
18893TIP3   OH278169   3.805   2.201   4.066  0.3106  0.5808  0.0510
18893TIP3    H178170   3.880   2.259   4.077  2.4931 -2.1342  0.7394
18893TIP3    H278171   3.754   2.211   4.147  1.1726  0.8309  0.5727
18894TIP3   OH278172   6.258   2.326   2.230  0.1405 -0.2889 -0.4586
18894TIP3    H178173   6.199   2.347   2.302  1.5859  4.3260 -0.2635
18894TIP3    H278174   6.224   2.376   2.156  2.3996  0.5931 -0.9755
18895TIP3   OH278175   0.483   4.693   4.304 -0.1014  0.1063  0.1443
18895TIP3    H178176   0.514   4.610   4.267 -0.3995 -0.3503  0.9003
18895TIP3    H278177   0.520   4.760   4.247  2.2897 -0.3952  0.9997
18896TIP3   OH278178   4.719   6.453  13.280  0.8560  0.0931 -0.1543
18896TIP3    H178179   4.730   6.379  13.339  1.9088 -1.8826 -2.6332
18896TIP3    H278180   4.799   6.504  13.288  2.0231 -1.4434 -1.4372
18897TIP3   OH278181   4.766   0.440  14.609 -0.3643  0.3118  0.2566
18897TIP3    H178182   4.720   0.524  14.608 -0.9693 -0.0174 -0.0905
18897TIP3    H278183   4.710   0.381  14.660  0.4853  0.3428  1.2551
18898TIP3   OH278184   1.833   1.599   2.283 -0.0305  0.2478  0.3489
18898TIP3    H178185   1.889   1.636   2.215 -0.7697  2.7469  0.9920
18898TIP3    H278186   1.874   1.516   2.305  1.7376  0.6303 -1.2425
18899TIP3   OH278187   2.658   5.587   6.038  0.7357  0.3716 -1.0262
18899TIP3    H178188   2.604   5.625   6.107 -0.2130 -1.4066 -0.7103
18899TIP3    H278189   2.694   5.662   5.991  0.2135  1.6179  0.4754
18900TIP3   OH278190   2.283   4.654   3.551  0.6020 -0.5622  0.8573
18900TIP3    H178191   2.282   4.717   3.479 -1.4196  0.2423  1.5218
18900TIP3    H278192   2.318   4.703   3.626 -1.5835  0.0552  1.5448
18901TIP3   OH278193   6.327   0.696   5.710  0.2980  0.0230  0.5144
18901TIP3    H178194   6.237   0.727   5.714  0.2593 -0.0055 -0.1397
18901TIP3    H278195   6.361   0.713   5.798 -0.7556 -1.2343  1.1982
18902TIP3   OH278196   6.764   0.912  10.617  0.0018 -0.0720  0.1368
18902TIP3    H178197   6.725   0.988  10.659 -0.4668  0.0496 -0.5106
18902TIP3    H278198   6.826   0.878  10.682 -1.7977 -0.7912  1.5712
18903TIP3   OH278199   6.530   1.203  16.185 -0.1657 -0.4073  0.2989
18903TIP3    H178200   6.586   1.224  16.260  0.8317 -0.6464 -0.3679
18903TIP3    H278201   6.484   1.123  16.211 -1.1584  0.4664  1.3417
18904TIP3   OH278202   0.731   2.507   2.179 -0.4949  0.2284  0.3223
18904TIP3    H178203   0.717   2.548   2.264 -1.4594 -1.1367  0.8524
18904TIP3    H278204   0.688   2.567   2.117 -0.4082  0.8628  0.8619
18905TIP3   OH278205   5.343   6.635  16.862 -0.4026  0.0703  0.0015
18905TIP3    H178206   5.353   6.589  16.945  1.2343  1.3676  0.6018
18905TIP3    H278207   5.340   6.728  16.887 -2.9826  0.3786 -1.1910
18906TIP3   OH278208   4.556   5.327  16.482 -0.7533 -0.3085 -0.5234
18906TIP3    H178209   4.642   5.321  16.523 -1.4351 -2.7698  0.8112
18906TIP3    H278210   4.573   5.330  16.388  0.7875  0.8617 -0.2342
18907TIP3   OH278211   4.859   4.686  16.639 -0.0098  0.1490  0.5663
18907TIP3    H178212   4.769   4.675  16.610  0.4278 -0.6247 -0.5922
18907TIP3    H278213   4.911   4.670  16.560  1.2053 -0.9029  1.5465
18908TIP3   OH278214   1.497   0.000  11.773 -0.0625  0.1941 -0.3928
18908TIP3    H178215   1.588   0.030  11.778  0.5638 -1.7643  1.1264
18908TIP3    H278216   1.494  -0.057  11.697 -0.0250  0.2547 -0.4396
18909TIP3   OH278217   4.786   0.615  11.625 -0.1122 -0.7137 -0.1161
18909TIP3    H178218   4.863   0.596  11.572 -0.2571 -0.4370 -0.4287
18909TIP3    H278219   4.713   0.579  11.575 -0.4185  0.7922 -0.8158
18910TIP3   OH278220   3.362   0.763  15.219 -0.0851 -0.3763 -0.2638
18910TIP3    H178221   3.424   0.702  15.258  1.0706  0.3265 -0.9470
18910TIP3    H278222   3.288   0.708  15.191  0.2355 -1.2258  0.5239
18911TIP3   OH278223   6.112   6.203  11.685  0.1937 -0.1314 -0.0166
18911TIP3    H178224   6.062   6.228  11.606  0.0844 -2.1596 -0.6552
18911TIP3    H278225   6.141   6.114  11.667  1.5335 -0.0661  1.6156
18912TIP3   OH278226   1.896   2.397   1.085  0.0066  0.3226 -0.0929
18912TIP3    H178227   1.887   2.308   1.119  0.9441  0.6376  1.0170
18912TIP3    H278228   1.852   2.452   1.151 -1.2367  0.6393 -1.1401
18913TIP3   OH278229   1.137   2.368  13.821  0.4424  0.3223  0.3143
18913TIP3    H178230   1.170   2.307  13.886  1.8866 -1.4705 -1.9661
18913TIP3    H278231   1.207   2.432  13.810 -0.8810  2.2994  2.3599
18914TIP3   OH278232   0.093   3.123   1.392 -0.4566 -0.8466  0.1071
18914TIP3    H178233   0.051   3.202   1.426 -0.4486 -0.5987 -0.4384
18914TIP3    H278234   0.173   3.155   1.349  0.6409 -1.3721  1.6618
18915TIP3   OH278235   6.505   6.607  11.548  0.2112  0.1407 -0.2309
18915TIP3    H178236   6.558   6.684  11.566  1.7218 -1.0731  0.7286
18915TIP3    H278237   6.528   6.581  11.459  2.1387 -0.9882  0.5243
18916TIP3   OH278238   5.508   2.735   5.216  0.1665 -0.4059  0.4321
18916TIP3    H178239   5.603   2.725   5.229  0.2208  0.9417  1.2690
18916TIP3    H278240   5.486   2.815   5.263 -1.5558 -1.1529  0.9747
18917TIP3   OH278241   3.240   1.341   1.486  0.5886 -0.1506  0.2052
18917TIP3    H178242   3.199   1.428   1.485 -0.2576 -0.5382 -0.1137
18917TIP3    H278243   3.250   1.321   1.579  1.1518  0.4468  0.2826
18918TIP3   OH278244   3.035   1.061   2.747 -0.3337  0.7619 -0.1963
18918TIP3    H178245   2.965   0.996   2.743 -1.0444  1.5557 -1.3504
18918TIP3    H278246   2.996   1.136   2.791  0.1036  0.8557  0.0410
18919TIP3   OH278247   4.855   1.694   3.512  0.1683 -0.3243  0.3751
18919TIP3    H178248   4.877   1.601   3.498 -0.0645 -0.3110 -0.1349
18919TIP3    H278249   4.854   1.731   3.423 -0.3727  0.0221  0.5260
18920TIP3   OH278250   3.547   4.082  16.939 -0.2145 -0.1820  0.5371
18920TIP3    H178251   3.480   4.043  16.995  1.0188 -1.6576  1.0248
18920TIP3    H278252   3.607   4.126  16.999  0.1826 -0.3037  0.2376
18921TIP3   OH278253   2.644   0.793   1.812 -0.4587 -0.2978  0.1946
18921TIP3    H178254   2.719   0.735   1.823 -0.4470 -0.5114 -0.9316
18921TIP3    H278255   2.612   0.807   1.901 -0.8913 -2.6232  0.4745
18922TIP3   OH278256   4.711   2.177  13.861 -0.3381  0.2615  0.6690
18922TIP3    H178257   4.757   2.207  13.939  0.6143  0.8276 -0.0869
18922TIP3    H278258   4.655   2.106  13.892 -0.1796  0.6529  1.9078
18923TIP3   OH278259   0.631   2.728  14.208 -0.0981  0.1353 -0.2092
18923TIP3    H178260   0.639   2.765  14.296 -1.7835  0.0215  0.0380
18923TIP3    H278261   0.674   2.643  14.213 -0.3583  0.0438  0.5710
18924TIP3   OH278262   0.163   0.045   2.826  0.2840  0.7715  0.1905
18924TIP3    H178263   0.094   0.085   2.773 -0.4853 -0.4935  0.1832
18924TIP3    H278264   0.215  -0.005   2.763 -1.4403 -1.8592  0.6961
18925TIP3   OH278265   0.268   5.980   3.879  0.0161 -0.1475  0.4214
18925TIP3    H178266   0.336   6.030   3.924 -0.0532  0.9390 -0.6279
18925TIP3    H278267   0.236   5.918   3.945  0.8462  0.4726  1.4370
18926TIP3   OH278268   5.786   3.757   4.444  0.1635 -0.3575  0.3039
18926TIP3    H178269   5.718   3.690   4.447 -0.8543  0.6230 -0.2952
18926TIP3    H278270   5.743   3.834   4.407  1.4899  0.4200  0.3082
18927TIP3   OH278271   3.579   6.114  15.133 -0.0746 -0.5348  0.0975
18927TIP3    H178272   3.623   6.185  15.087 -1.7712  0.3209 -0.2584
18927TIP3    H278273   3.563   6.047  15.066  0.4466 -0.7440  0.1775
18928TIP3   OH278274   5.680   4.885  11.463 -0.3895 -0.1853 -0.2415
18928TIP3    H178275   5.594   4.913  11.430 -0.5305 -0.4172 -0.0776
18928TIP3    H278276   5.736   4.882  11.385 -0.5035  0.0666 -0.3332
18929TIP3   OH278277   3.446   4.573   1.605 -0.2449  0.3458 -0.2002
18929TIP3    H178278   3.383   4.609   1.543 -0.4382 -1.7831 -1.3543
18929TIP3    H278279   3.407   4.491   1.634  0.7627  0.3235  1.2061
18930TIP3   OH278280   0.138   2.881  11.658 -0.0122  0.1301 -0.3612
18930TIP3    H178281   0.164   2.972  11.646  0.5668  0.2141  1.2063
18930TIP3    H278282   0.073   2.884  11.728  2.0525 -0.8552  1.7373
18931TIP3   OH278283   1.545   2.553  14.327  0.5174  0.3748  0.1285
18931TIP3    H178284   1.543   2.623  14.263 -1.1706 -0.4405 -0.7704
18931TIP3    H278285   1.455   2.522  14.332  0.9639 -0.8323  1.5175
18932TIP3   OH278286   5.027   3.427  14.825  0.1497  0.0571 -0.9860
18932TIP3    H178287   5.079   3.506  14.813  1.7022 -0.9130 -0.8621
18932TIP3    H278288   4.972   3.446  14.901 -0.4376  1.4594 -1.7156
18933TIP3   OH278289   6.160   3.363  14.698  0.0164 -0.1930  0.3714
18933TIP3    H178290   6.158   3.305  14.774 -1.6022 -1.8118 -0.8106
18933TIP3    H278291   6.253   3.380  14.683  0.3984 -0.4886  2.1972
18934TIP3   OH278292   2.965   1.141   0.615 -0.5054  0.0771  0.3817
18934TIP3    H178293   3.003   1.209   0.560  1.0285  0.1626  1.5090
18934TIP3    H278294   3.004   1.060   0.584  0.2038  0.1016  1.1836
18935TIP3   OH278295   6.366   6.546   2.056 -0.0833  0.4639  0.0820
18935TIP3    H178296   6.450   6.541   2.012  0.1972 -0.4984  0.6923
18935TIP3    H278297   6.370   6.479   2.125 -1.0783  0.8757  0.5762
18936TIP3   OH278298   4.803   2.651   6.049  0.1420  0.4000 -0.2318
18936TIP3    H178299   4.894   2.677   6.056  0.1938  0.1977 -0.1424
18936TIP3    H278300   4.803   2.582   5.982  0.0179  0.5770 -0.4173
18937TIP3   OH278301   5.178   2.952   6.200  0.4941  0.1383  0.5129
18937TIP3    H178302   5.242   2.992   6.142  0.8034  0.5022  1.0961
18937TIP3    H278303   5.202   2.983   6.287 -0.1343 -0.1732  0.8026
18938TIP3   OH278304   0.365   6.425   2.567 -0.3655 -1.1377  0.3197
18938TIP3    H178305   0.440   6.372   2.593  0.8019 -0.3504 -1.2796
18938TIP3    H278306   0.352   6.486   2.639  1.7248 -0.0787 -0.1254
18939TIP3   OH278307   3.820   3.778  11.937 -0.2956 -0.3160  0.0703
18939TIP3    H178308   3.780   3.702  11.895 -1.0314  0.0386  0.1166
18939TIP3    H278309   3.813   3.760  12.031 -1.9124  0.5004  0.1426
18940TIP3   OH278310   0.390   4.887   4.524  0.7919 -0.1023  0.3547
18940TIP3    H178311   0.355   4.841   4.447  0.5006 -0.4690  0.6998
18940TIP3    H278312   0.394   4.979   4.497 -2.5505  0.3705  0.9738
18941TIP3   OH278313   6.633   4.823   1.119 -0.4650  0.4153 -0.0300
18941TIP3    H178314   6.653   4.736   1.155 -0.9030 -0.0578 -0.8950
18941TIP3    H278315   6.589   4.869   1.191 -0.1903 -0.0558  0.4520
18942TIP3   OH278316   3.526   0.584  12.176  0.0118 -0.1552  0.7732
18942TIP3    H178317   3.502   0.493  12.192 -1.0002 -0.1313 -0.4864
18942TIP3    H278318   3.454   0.620  12.124  1.8202  0.4590 -1.4944
18943TIP3   OH278319   0.555   2.239  11.479 -0.3964 -0.6121 -0.0717
18943TIP3    H178320   0.602   2.189  11.413  0.0902 -0.7397  0.3606
18943TIP3    H278321   0.480   2.277  11.433  1.3698  1.5250 -1.3774
18944TIP3   OH278322   4.030   3.129   1.272 -0.4114 -0.5837 -0.0318
18944TIP3    H178323   4.068   3.150   1.358 -0.7859  0.6398 -0.1490
18944TIP3    H278324   3.945   3.173   1.272 -0.3876 -0.5206 -1.0572
18945TIP3   OH278325   0.977   1.621   1.620  0.6830  0.1954  0.5191
18945TIP3    H178326   1.069   1.599   1.634  1.2883  1.8918 -0.4211
18945TIP3    H278327   0.979   1.710   1.584 -1.3940  0.8147  1.7442
18946TIP3   OH278328   0.139   5.834  12.540 -0.0175  0.8526  0.8679
18946TIP3    H178329   0.104   5.745  12.535 -0.5575  1.1096 -0.8586
18946TIP3    H278330   0.234   5.823  12.539 -0.0204  0.2820 -1.7124
18947TIP3   OH278331   6.048   4.326   3.720  0.7805 -0.1201 -0.2147
18947TIP3    H178332   6.024   4.269   3.647 -0.5187 -0.4470  0.4372
18947TIP3    H278333   6.004   4.287   3.795 -0.1807  1.7758  0.2472
18948TIP3   OH278334   4.050   6.415  14.764  0.0068  0.1392 -0.2109
18948TIP3    H178335   4.080   6.417  14.673 -0.4024  1.1547 -0.3286
18948TIP3    H278336   4.007   6.499  14.778 -3.2183 -1.3847 -0.1742
18949TIP3   OH278337   3.470   1.712   5.883  0.1831  0.1326  0.5984
18949TIP3    H178338   3.507   1.770   5.949 -1.3129  0.7586  0.9270
18949TIP3    H278339   3.535   1.711   5.813  1.4422  0.0668  1.7255
18950TIP3   OH278340   5.399   6.589   4.616 -0.5731  0.1214  0.0279
18950TIP3    H178341   5.491   6.563   4.625  0.1425  2.6701  0.9354
18950TIP3    H278342   5.363   6.529   4.550  2.0661 -0.1030 -1.3325
18951TIP3   OH278343   5.139   0.095   1.339 -0.0897  0.0195 -0.4877
18951TIP3    H178344   5.134   0.143   1.421  1.1786 -0.7653  0.0907
18951TIP3    H278345   5.160   0.005   1.365 -2.3976 -0.8915 -1.5316
18952TIP3   OH278346   5.172   1.257   3.761 -0.8072 -0.2016  0.2662
18952TIP3    H178347   5.155   1.167   3.730 -0.0468  0.5032 -2.5396
18952TIP3    H278348   5.148   1.312   3.686  0.9940  1.7626  1.0510
18953TIP3   OH278349   3.983   6.370  13.896 -0.0257  0.4030 -0.8053
18953TIP3    H178350   4.044   6.413  13.837  0.8773  0.1266 -0.1040
18953TIP3    H278351   4.021   6.382  13.983 -0.5769 -0.4395 -0.4288
18954TIP3   OH278352   5.082   2.258  13.210 -0.0003  0.2577  0.0414
18954TIP3    H178353   5.071   2.277  13.303 -0.2088  0.0506  0.0588
18954TIP3    H278354   5.005   2.297  13.168 -0.5896 -0.8187  0.1141
18955TIP3   OH278355   6.357   6.338  17.081  0.7982 -0.1335  0.0535
18955TIP3    H178356   6.336   6.247  17.062  0.2186  0.0061  0.0084
18955TIP3    H278357   6.326   6.352  17.171  0.8489  0.0262  0.0470
18956TIP3   OH278358   4.227   1.419  12.232 -0.1388  0.1711  0.6616
18956TIP3    H178359   4.149   1.401  12.180  0.2039 -1.6222  0.7104
18956TIP3    H278360   4.254   1.333  12.265  1.4514  0.8575  1.2208
18957TIP3   OH278361   0.338   4.932   2.478  0.1969  0.2600 -0.7214
18957TIP3    H178362   0.342   4.847   2.522 -0.4353  0.3112 -0.5616
18957TIP3    H278363   0.319   4.994   2.548 -0.5851  0.3747 -1.0355
18958TIP3   OH278364   2.272   2.329   0.244 -0.2687 -0.2373  0.3295
18958TIP3    H178365   2.245   2.238   0.255  0.5219 -0.3878  1.1466
18958TIP3    H278366   2.334   2.326   0.171  1.1022 -0.6593  1.4765
18959TIP3   OH278367   5.654   2.122  14.894 -0.0353  0.5112  0.3961
18959TIP3    H178368   5.616   2.055  14.836 -1.0835  1.5897 -0.2129
18959TIP3    H278369   5.730   2.154  14.845  0.3014 -0.0119  0.5614
18960TIP3   OH278370   4.664   2.720   3.249 -0.0816  0.1179 -0.1288
18960TIP3    H178371   4.728   2.686   3.186 -1.3299 -2.9985  0.0847
18960TIP3    H278372   4.716   2.757   3.320  1.3702  1.2194 -1.7042
18961TIP3   OH278373   0.241   5.607  14.540  0.0298  0.1482  0.5494
18961TIP3    H178374   0.261   5.515  14.523 -0.6275 -0.2925  2.0298
18961TIP3    H278375   0.290   5.655  14.472  0.4402 -1.2692 -0.1933
18962TIP3   OH278376   2.071   4.660  12.596 -0.3332  0.1559  0.0369
18962TIP3    H178377   2.138   4.594  12.581 -0.8784 -0.2579 -0.6602
18962TIP3    H278378   2.082   4.685  12.688  1.5231  0.9611 -0.3625
18963TIP3   OH278379   5.913   0.089   5.774  0.0236 -0.2000  0.7318
18963TIP3    H178380   6.003   0.059   5.789 -0.3699 -2.0765 -0.3480
18963TIP3    H278381   5.864   0.055   5.849 -0.0466 -0.4303  0.5811
18964TIP3   OH278382   4.219   3.987   2.061  0.0117 -0.0955 -0.1008
18964TIP3    H178383   4.162   4.062   2.053 -0.1345 -0.1532  0.3609
18964TIP3    H278384   4.207   3.938   1.980 -0.7534 -0.2174  0.0824
18965TIP3   OH278385   0.936   5.747  13.787 -0.2278  0.5695 -0.1749
18965TIP3    H178386   0.857   5.761  13.734  0.0112  1.2311 -0.3734
18965TIP3    H278387   0.911   5.680  13.850 -1.7728  2.5108  1.4070
18966TIP3   OH278388   2.362   1.932   5.623 -0.2063 -0.2889  0.1058
18966TIP3    H178389   2.412   1.956   5.546 -1.2658 -1.6332 -1.0530
18966TIP3    H278390   2.419   1.954   5.697  1.2950 -0.0576 -1.0783
18967TIP3   OH278391   0.858   2.640   0.068 -0.2652 -0.1318 -0.2990
18967TIP3    H178392   0.795   2.683   0.010  0.0624  2.2646  0.9809
18967TIP3    H278393   0.900   2.573   0.014 -2.8776 -0.8344 -1.5701
18968TIP3   OH278394   0.898   5.828   1.652 -0.4811  0.3079  0.5738
18968TIP3    H178395   0.810   5.796   1.670 -1.3662  1.7272 -0.8482
18968TIP3    H278396   0.916   5.890   1.723 -1.2554  1.0834  0.1177
18969TIP3   OH278397   3.122   2.816   5.792  0.1045 -0.1914  0.3797
18969TIP3    H178398   3.180   2.854   5.725 -0.3886 -1.0819 -0.5634
18969TIP3    H278399   3.151   2.725   5.801  2.5660  0.6982  4.0087
18970TIP3   OH278400   1.284   2.058  11.626  0.2607  0.9183  0.1438
18970TIP3    H178401   1.311   1.968  11.644 -1.0998  0.4028 -0.2685
18970TIP3    H278402   1.281   2.063  11.531  1.4604  1.7784  0.1253
18971TIP3   OH278403   4.749   0.662   1.197  0.0933  0.2751  0.5324
18971TIP3    H178404   4.757   0.711   1.115  0.7032 -0.4300  0.1571
18971TIP3    H278405   4.810   0.589   1.187  1.1122  0.8538  2.1328
18972TIP3   OH278406   2.372   0.168  14.923  0.1010  0.5426  0.2193
18972TIP3    H178407   2.436   0.229  14.888  0.5333  0.3379  0.6332
18972TIP3    H278408   2.318   0.143  14.848 -0.7290  2.1938  0.2211
18973TIP3   OH278409   2.790   6.812  13.777  0.1929 -0.1544  0.2646
18973TIP3    H178410   2.825   6.736  13.824 -0.5683 -0.7105 -0.0522
18973TIP3    H278411   2.717   6.842  13.831 -0.9200 -1.0172 -0.6994
18974TIP3   OH278412   5.711   0.678   4.246  0.7405  0.1056  0.2746
18974TIP3    H178413   5.790   0.631   4.273  0.9245 -0.0182 -0.4517
18974TIP3    H278414   5.703   0.750   4.307  0.8536 -0.4634  0.9745
18975TIP3   OH278415   0.563   1.708  11.329 -0.6229 -0.1989 -0.2192
18975TIP3    H178416   0.632   1.709  11.396 -1.3548 -0.0905  0.5633
18975TIP3    H278417   0.556   1.616  11.303  0.6481 -0.0375 -1.2181
18976TIP3   OH278418   2.831   5.243  13.991  0.1426 -0.4231 -0.2134
18976TIP3    H178419   2.811   5.296  14.068  1.0070 -0.2119 -0.1198
18976TIP3    H278420   2.751   5.246  13.938 -0.5105 -0.6914  0.7366
18977TIP3   OH278421   1.666   1.426   2.952 -1.1060  0.2647 -0.4658
18977TIP3    H178422   1.716   1.416   2.871  0.0673  2.1009 -0.0375
18977TIP3    H278423   1.727   1.398   3.021 -1.8664 -0.6481 -0.1344
18978TIP3   OH278424   1.288   3.457   1.369 -0.5954 -0.4938 -0.5153
18978TIP3    H178425   1.335   3.499   1.298 -0.0029  0.2916  0.3170
18978TIP3    H278426   1.316   3.366   1.366 -0.4364 -0.4248 -1.1664
18979TIP3   OH278427   4.514   5.951   5.701  0.0933 -0.3482 -0.2959
18979TIP3    H178428   4.562   5.899   5.765  0.3125 -1.2177 -1.1388
18979TIP3    H278429   4.517   5.898   5.621 -0.8580  0.3461 -0.8008
18980TIP3   OH278430   5.762   4.442   6.174 -0.0602  0.3748  0.1726
18980TIP3    H178431   5.806   4.447   6.259 -1.1588 -0.6542  0.8378
18980TIP3    H278432   5.834   4.443   6.110  0.7679  1.5617  1.0658
18981TIP3   OH278433   3.314   5.015  14.840 -0.5024 -0.1664 -0.1683
18981TIP3    H178434   3.297   5.009  14.746 -0.6059 -1.7741 -0.0838
18981TIP3    H278435   3.275   4.936  14.877 -1.2479  0.8711  1.3768
18982TIP3   OH278436   3.685   4.707   2.185  0.3745  0.9924  0.4190
18982TIP3    H178437   3.724   4.731   2.269 -1.1877  1.0250  1.1668
18982TIP3    H278438   3.715   4.775   2.124 -0.8027  2.6584  1.6268
18983TIP3   OH278439   2.016   4.979  15.722  0.4448  0.1777 -0.2660
18983TIP3    H178440   2.070   5.016  15.652 -0.8063  1.3743 -0.6519
18983TIP3    H278441   2.065   4.903  15.753  1.4569  0.1422 -1.8382
18984TIP3   OH278442   3.791   4.122   4.477  0.3371 -0.0950  0.0941
18984TIP3    H178443   3.789   4.052   4.412  3.1598  1.2856 -1.6648
18984TIP3    H278444   3.876   4.112   4.521 -0.9042 -0.1391  2.6827
18985TIP3   OH278445   6.606   6.248  14.105  0.0882 -0.3267  0.2070
18985TIP3    H178446   6.595   6.239  14.199  1.4897 -2.0053  0.2661
18985TIP3    H278447   6.601   6.158  14.071  2.2055 -0.0908 -0.9535
18986TIP3   OH278448   1.867   4.283   0.654  0.1857  0.4378 -0.6492
18986TIP3    H178449   1.928   4.357   0.650  0.9617 -0.1210  0.4239
18986TIP3    H278450   1.796   4.313   0.711  1.5575 -0.3268  1.6006
18987TIP3   OH278451   6.784   0.516   1.052  0.2933  0.2658  0.0134
18987TIP3    H178452   6.775   0.437   0.999  1.8710  1.2406 -1.8898
18987TIP3    H278453   6.788   0.587   0.987  3.2081  1.4539  1.3132
18988TIP3   OH278454   1.031   5.365  13.641 -0.5523 -0.4141  0.4293
18988TIP3    H178455   1.091   5.361  13.567 -1.1315 -1.3708 -0.0121
18988TIP3    H278456   1.075   5.316  13.711 -1.4789 -2.6146 -0.4246
18989TIP3   OH278457   1.038   3.817   0.463 -0.5640 -0.5261  0.2455
18989TIP3    H178458   1.123   3.825   0.507  0.1091  1.5052 -1.2569
18989TIP3    H278459   1.061   3.799   0.371 -1.8574 -2.1447  0.1959
18990TIP3   OH278460   0.872   0.282   5.274 -0.1938  0.8121 -0.1079
18990TIP3    H178461   0.941   0.300   5.210  0.1485  1.7767  0.5178
18990TIP3    H278462   0.892   0.193   5.305  1.5479  1.5208  0.9736
18991TIP3   OH278463   3.797   0.766   2.575  0.4908  0.2560 -0.2999
18991TIP3    H178464   3.860   0.794   2.641 -0.2332 -0.5686  0.7756
18991TIP3    H278465   3.810   0.671   2.568  0.6198  0.3437 -1.4202
18992TIP3   OH278466   0.073   1.581  16.793 -0.3889 -0.5902 -0.3438
18992TIP3    H178467   0.032   1.507  16.748  1.7032 -1.1441 -1.4651
18992TIP3    H278468   0.102   1.544  16.877 -0.6918 -0.6371 -0.2588
18993TIP3   OH278469   0.700   0.295   0.085 -0.0866 -0.0373 -0.2934
18993TIP3    H178470   0.678   0.343   0.005  1.7737 -0.4549 -1.1020
18993TIP3    H278471   0.693   0.203   0.059  1.6237 -0.1791 -0.3364
18994TIP3   OH278472   6.371   1.736   6.058 -0.1401 -0.7371  0.1126
18994TIP3    H178473   6.282   1.712   6.081 -0.3090  0.7847  1.2559
18994TIP3    H278474   6.372   1.832   6.062  1.8186 -0.7420  1.3904
18995TIP3   OH278475   0.388   5.872   2.777 -0.1399  0.3933  0.1735
18995TIP3    H178476   0.450   5.901   2.845  1.5595 -1.0178 -0.6783
18995TIP3    H278477   0.332   5.948   2.762  0.1091  1.0969  2.3848
18996TIP3   OH278478   2.616   1.370  11.170 -0.0774 -0.0937 -0.4327
18996TIP3    H178479   2.685   1.378  11.236 -1.3250  1.8714  0.7579
18996TIP3    H278480   2.596   1.277  11.167  0.9858 -0.4106  0.9548
18997TIP3   OH278481   2.899   2.394  14.952  0.1203  1.0483  0.5339
18997TIP3    H178482   2.950   2.357  14.879 -3.0196 -2.6334 -0.1335
18997TIP3    H278483   2.827   2.441  14.909  0.3792  2.2623  1.3793
18998TIP3   OH278484   1.199   1.589  14.224  0.1097 -0.6122 -0.3678
18998TIP3    H178485   1.186   1.670  14.174 -4.0160 -1.4243 -1.0007
18998TIP3    H278486   1.194   1.617  14.316 -0.5065 -0.0622 -0.5607
18999TIP3   OH278487   5.251   2.343   1.023 -0.0608 -0.1531  0.0328
18999TIP3    H178488   5.242   2.423   1.074 -0.5023 -0.1822 -0.0001
18999TIP3    H278489   5.343   2.317   1.034  0.6833  1.5168 -1.6816
19000TIP3   OH278490   4.326   0.777  12.264 -0.3811  0.5276  0.0060
19000TIP3    H178491   4.340   0.756  12.172 -0.6367 -2.1379  0.5101
19000TIP3    H278492   4.413   0.800  12.297 -0.0348  0.0707 -0.5655
19001TIP3   OH278493   2.460   2.775  16.025 -0.5655  0.0861 -0.4322
19001TIP3    H178494   2.380   2.745  15.983  0.3979 -3.1734 -0.1589
19001TIP3    H278495   2.448   2.870  16.033 -3.6917 -0.0724 -1.7722
19002TIP3   OH278496   3.147   5.996  13.408  0.2408  0.0241 -0.2830
19002TIP3    H178497   3.124   5.917  13.360  0.8604 -2.2383  2.8454
19002TIP3    H278498   3.068   6.019  13.456  0.8339 -0.3717  0.9174
19003TIP3   OH278499   5.150   1.739   0.215  0.2888 -0.0757 -0.9132
19003TIP3    H178500   5.075   1.755   0.158  1.9379  0.6362 -3.0033
19003TIP3    H278501   5.157   1.818   0.269 -1.1836 -0.6848  0.2379
19004TIP3   OH278502   5.124   2.877  14.474 -0.6762 -0.4914  0.2518
19004TIP3    H178503   5.052   2.896  14.414 -0.6641  2.5848  1.0253
19004TIP3    H278504   5.199   2.923  14.437 -0.4412  0.6833  2.0609
19005TIP3   OH278505   5.138   2.073   5.785 -0.3283  0.3205  0.0650
19005TIP3    H178506   5.161   1.994   5.834 -0.8945 -0.7444 -1.3385
19005TIP3    H278507   5.089   2.041   5.709 -0.1300  1.9866 -0.8039
19006TIP3   OH278508   3.470   6.108   4.607 -0.2468  0.1623 -0.3042
19006TIP3    H178509   3.548   6.088   4.659 -0.2135  0.4925 -0.2272
19006TIP3    H278510   3.397   6.072   4.658 -0.2026  0.3871 -0.0825
19007TIP3   OH278511   0.219   2.060   3.195  0.5765  0.1479 -0.4616
19007TIP3    H178512   0.142   2.097   3.152 -0.2113  1.2033  1.7535
19007TIP3    H278513   0.222   1.969   3.163 -0.3373  0.6786 -2.1774
19008TIP3   OH278514   4.884   1.217  11.184 -0.5082  0.0630 -0.1307
19008TIP3    H178515   4.854   1.236  11.273  1.5328  0.1328  0.5952
19008TIP3    H278516   4.909   1.302  11.148 -2.4162  0.2120 -1.2668
19009TIP3   OH278517   0.423   3.881  16.241  0.5527 -0.1353  0.2120
19009TIP3    H178518   0.457   3.794  16.220  1.6262  0.4170 -0.4418
19009TIP3    H278519   0.366   3.903  16.167  0.3542 -0.2418  0.3329
19010TIP3   OH278520   0.349   5.081   4.114  0.4032 -0.3218  0.2582
19010TIP3    H178521   0.387   5.097   4.027 -0.8524  1.2380 -0.0629
19010TIP3    H278522   0.345   5.168   4.154  0.4925 -0.9494  1.6972
19011TIP3   OH278523   5.542   3.724  15.691  0.7576 -0.9373 -0.2783
19011TIP3    H178524   5.497   3.751  15.772 -0.6850 -1.3796 -0.9010
19011TIP3    H278525   5.624   3.686  15.722  0.8554  0.1458  0.8910
19012TIP3   OH278526   3.176   4.457   4.358  0.0698  0.0940  0.1375
19012TIP3    H178527   3.270   4.472   4.366  0.2052 -1.3078  1.9003
19012TIP3    H278528   3.146   4.444   4.448 -1.3620 -1.9503 -0.5662
19013TIP3   OH278529   3.670   4.943   5.205  0.1751  0.2024 -0.4095
19013TIP3    H178530   3.687   5.023   5.255 -0.9024 -0.2916  0.8045
19013TIP3    H278531   3.733   4.946   5.133  2.3923  0.5035  1.4352
19014TIP3   OH278532   5.370   0.038  11.304 -0.2896  0.0755 -0.1845
19014TIP3    H178533   5.282   0.073  11.320 -1.3828 -1.8216 -1.6921
19014TIP3    H278534   5.367  -0.051  11.338  1.0888  0.0013 -0.2153
19015TIP3   OH278535   3.289   5.116  12.237  0.4810 -0.3447  0.2715
19015TIP3    H178536   3.213   5.121  12.296  1.0939  2.4087  0.9608
19015TIP3    H278537   3.351   5.179  12.273  2.2397 -0.9637 -1.5255
19016TIP3   OH278538   6.375   0.618  12.880  0.1078  0.1566  0.4371
19016TIP3    H178539   6.286   0.653  12.885  0.2152  0.3185  1.2923
19016TIP3    H278540   6.413   0.662  12.803 -0.2979  0.6735  0.5239
19017TIP3   OH278541   6.158   5.974   4.393 -0.2130  0.2335  0.2363
19017TIP3    H178542   6.095   5.905   4.373  0.8920 -0.7552  0.0224
19017TIP3    H278543   6.239   5.945   4.351  1.2413 -0.1008  3.0207
19018TIP3   OH278544   0.504   1.713   1.357 -0.3026  0.3729 -0.4295
19018TIP3    H178545   0.478   1.646   1.419 -0.7289 -0.4856 -1.5031
19018TIP3    H278546   0.579   1.676   1.311  0.9894  1.6247  0.5942
19019TIP3   OH278547   3.494   4.041   5.145 -0.1253  0.7824  0.2241
19019TIP3    H178548   3.576   4.011   5.106  0.4831  1.1676  1.1887
19019TIP3    H278549   3.445   4.078   5.071  0.6582  0.7554 -0.3211
19020TIP3   OH278550   2.104   1.940  16.921  0.2859 -0.5191 -0.1478
19020TIP3    H178551   2.129   1.893  17.000 -1.2633  0.8594  1.2289
19020TIP3    H278552   2.127   1.881  16.850 -0.0094 -2.6286  1.4201
19021TIP3   OH278553   2.349   5.138   3.665  0.2092 -0.3463 -0.8092
19021TIP3    H178554   2.412   5.182   3.609 -1.6896  0.4052 -2.4988
19021TIP3    H278555   2.281   5.107   3.605 -2.4930  1.4285  1.0756
19022TIP3   OH278556   5.487   6.211   0.210 -1.0684 -0.0850  0.6199
19022TIP3    H178557   5.531   6.145   0.262 -0.6889 -0.7072 -0.4694
19022TIP3    H278558   5.393   6.192   0.221 -0.9665 -0.7052  0.4439
19023TIP3   OH278559   0.604   4.023  14.186 -0.0563 -0.8198  0.6118
19023TIP3    H178560   0.627   4.086  14.255 -0.3414 -0.8183  0.7052
19023TIP3    H278561   0.536   3.968  14.225  1.1043 -2.0319  1.0025
19024TIP3   OH278562   1.076   1.248  16.097  0.2828  0.0985 -0.0138
19024TIP3    H178563   1.091   1.194  16.175 -0.7311 -1.4229 -0.8206
19024TIP3    H278564   1.122   1.203  16.027  0.1131  0.7462 -0.5509
19025TIP3   OH278565   6.001   1.600  16.262  0.1317 -0.0839  0.5508
19025TIP3    H178566   6.036   1.560  16.182 -1.1444  0.0640 -0.1033
19025TIP3    H278567   6.041   1.687  16.263 -2.3244  1.2468 -1.8106
19026TIP3   OH278568   3.951   2.356  12.576  0.0270 -0.1621 -0.1713
19026TIP3    H178569   3.969   2.383  12.666  0.0394  0.5097 -0.3678
19026TIP3    H278570   3.942   2.261  12.581 -0.8703 -0.0528  0.6958
19027TIP3   OH278571   4.278   1.426  14.454 -0.1028 -0.3192  0.4275
19027TIP3    H178572   4.239   1.466  14.531 -0.4316 -2.3910  1.4093
19027TIP3    H278573   4.205   1.412  14.393 -0.1469 -0.3277  0.4831
19028TIP3   OH278574   2.218   6.329   0.685  0.3700 -0.1890  0.0466
19028TIP3    H178575   2.232   6.303   0.594  3.0885 -3.8136  1.2654
19028TIP3    H278576   2.298   6.376   0.709  0.0397 -0.0017  0.8190
19029TIP3   OH278577   2.221   5.173   4.465  0.0113  0.5084  0.1948
19029TIP3    H178578   2.130   5.196   4.486  0.1432  0.4656  0.8369
19029TIP3    H278579   2.221   5.077   4.465 -0.0861  0.5033 -0.4629
19030TIP3   OH278580   4.416   4.553  16.327 -0.3144 -0.3520 -0.4653
19030TIP3    H178581   4.444   4.593  16.409  0.5229 -1.5570 -0.1601
19030TIP3    H278582   4.451   4.464  16.329 -1.2058 -0.7585 -1.6418
19031TIP3   OH278583   4.256   6.064   2.448  0.0835 -0.2540 -0.2341
19031TIP3    H178584   4.252   5.984   2.396  1.8702 -1.1469  0.8850
19031TIP3    H278585   4.250   6.135   2.384 -0.2250 -1.2881 -1.3863
19032TIP3   OH278586   0.811   2.108   5.561 -0.4136 -0.0246  0.1805
19032TIP3    H178587   0.755   2.130   5.635 -3.0388 -0.3275 -1.5435
19032TIP3    H278588   0.855   2.190   5.538 -1.5769  0.7207  0.5253
19033TIP3   OH278589   5.384   5.972  14.610 -0.0497 -0.0100  0.4350
19033TIP3    H178590   5.309   5.941  14.559  0.4953  0.1549 -0.4937
19033TIP3    H278591   5.424   5.893  14.645 -0.7516 -0.0881  1.0970
19034TIP3   OH278592   4.180   1.162  16.070 -0.3076  0.4063 -0.0139
19034TIP3    H178593   4.199   1.250  16.103 -1.1009  0.7677 -0.4742
19034TIP3    H278594   4.243   1.106  16.113  2.2432  1.5936 -1.8897
19035TIP3   OH278595   0.717   1.681   5.607 -0.0541  0.0570  0.7798
19035TIP3    H178596   0.778   1.754   5.600 -1.2220  1.1484  1.4597
19035TIP3    H278597   0.652   1.697   5.538  0.8506 -1.5978 -0.5702
19036TIP3   OH278598   6.511   0.233  14.430 -0.2659  0.3080  0.2090
19036TIP3    H178599   6.482   0.323  14.442  0.3972  0.6178 -0.4007
19036TIP3    H278600   6.433   0.186  14.400 -0.8715  0.4388  1.5291
19037TIP3   OH278601   2.359   1.627   0.952 -0.0117  0.0984 -0.1946
19037TIP3    H178602   2.380   1.714   0.986  1.2256 -0.2103 -0.1056
19037TIP3    H278603   2.420   1.615   0.879 -0.2720 -0.6387 -0.2980
19038TIP3   OH278604   4.127   0.840   5.068  0.0190 -0.2475 -0.4009
19038TIP3    H178605   4.118   0.917   5.124  0.0336  0.7151 -1.6869
19038TIP3    H278606   4.064   0.778   5.103  2.3572 -1.0508  2.8233
19039TIP3   OH278607   1.658   5.606  11.886 -0.5366 -0.2979 -0.0769
19039TIP3    H178608   1.751   5.584  11.878 -0.7943 -2.0697  1.1154
19039TIP3    H278609   1.644   5.676  11.822  1.5664 -0.1113 -0.4059
19040TIP3   OH278610   6.441   3.271   3.907  0.0205  0.2275 -0.7518
19040TIP3    H178611   6.368   3.254   3.966  0.4559 -0.6533 -0.4618
19040TIP3    H278612   6.466   3.186   3.872  1.8441  0.2864  0.2673
19041TIP3   OH278613   5.503   4.490  15.533  0.3355  0.1014 -0.3971
19041TIP3    H178614   5.567   4.459  15.598  0.4824 -1.2765 -1.1781
19041TIP3    H278615   5.424   4.508  15.585  0.1853 -1.7592  0.0997
19042TIP3   OH278616   0.309   1.923  16.308  0.0534  0.4144  0.2422
19042TIP3    H178617   0.256   1.882  16.376 -1.0111 -0.0632 -0.8449
19042TIP3    H278618   0.361   1.851  16.272 -1.7637 -0.0622 -1.6177
19043TIP3   OH278619   6.074   0.607   5.446 -1.3310  0.6915  0.4848
19043TIP3    H178620   6.022   0.675   5.404 -1.0458 -0.5358 -2.0599
19043TIP3    H278621   6.019   0.529   5.442  0.4320 -0.5693 -2.0276
19044TIP3   OH278622   2.504   3.394   0.932  0.4846  0.5559  0.1061
19044TIP3    H178623   2.535   3.377   0.843 -0.6615 -0.8440 -0.0637
19044TIP3    H278624   2.421   3.438   0.921 -0.1023 -0.4251  0.4345
19045TIP3   OH278625   2.392   2.854   4.266  0.0996 -0.4546  0.0074
19045TIP3    H178626   2.465   2.867   4.205  0.3146  1.6458  0.6196
19045TIP3    H278627   2.367   2.763   4.254  0.1503 -0.1758 -3.1700
19046TIP3   OH278628   6.718   3.762   0.499  0.2897 -0.2417  0.3729
19046TIP3    H178629   6.646   3.705   0.474  0.2455  0.0323 -0.1316
19046TIP3    H278630   6.776   3.764   0.423  0.4205  0.1808  0.4775
19047TIP3   OH278631   4.194   6.199  14.915 -0.5093  0.7682  0.0957
19047TIP3    H178632   4.121   6.240  14.868 -0.1801  0.4806 -0.6727
19047TIP3    H278633   4.239   6.147  14.849 -0.0970  0.2778  0.7555
19048TIP3   OH278634   0.825   5.359  15.485 -0.0435 -0.7591  0.5257
19048TIP3    H178635   0.865   5.416  15.418  0.8678 -0.9432  0.8942
19048TIP3    H278636   0.798   5.281  15.437 -0.6747 -0.3089  0.1350
19049TIP3   OH278637   1.639   3.325  17.143  0.5085  0.0125 -0.0113
19049TIP3    H178638   1.708   3.364  17.197  0.3354  1.4852 -0.8202
19049TIP3    H278639   1.656   3.357  17.055 -0.9436  0.0111 -0.3089
19050TIP3   OH278640   4.851   1.038  10.336  0.3739  0.1412 -0.0807
19050TIP3    H178641   4.834   0.948  10.364  1.0180 -0.3038 -1.0324
19050TIP3    H278642   4.788   1.091  10.384 -2.0611 -1.1228 -1.6825
19051TIP3   OH278643   1.794   6.130  10.607  0.2531  0.1560  0.2339
19051TIP3    H178644   1.714   6.143  10.556  1.1937 -1.4036 -1.7919
19051TIP3    H278645   1.807   6.213  10.653 -2.2197  0.6283  0.2012
19052TIP3   OH278646   5.713   0.644   5.553 -0.4199 -0.2489 -0.3499
19052TIP3    H178647   5.661   0.625   5.475  0.2533 -0.7687 -0.6921
19052TIP3    H278648   5.770   0.567   5.562 -2.2626 -1.4562  2.1861
19053TIP3   OH278649   1.323   0.232   0.241  0.0921  0.0620  0.2364
19053TIP3    H178650   1.375   0.284   0.302  0.2896 -0.8216  0.8418
19053TIP3    H278651   1.381   0.161   0.213 -0.4897 -0.4299  0.2376
19054TIP3   OH278652   0.069   0.720  12.234 -0.5154 -0.3953  0.2290
19054TIP3    H178653   0.022   0.664  12.173  1.9058  0.2547 -2.4899
19054TIP3    H278654   0.042   0.809  12.212 -0.6058 -0.2131  1.0385
19055TIP3   OH278655   3.453   1.350  11.796 -0.0001 -0.0872  0.4570
19055TIP3    H178656   3.435   1.429  11.847 -1.6617 -0.5695  0.6773
19055TIP3    H278657   3.534   1.316  11.834 -0.9827 -0.2378  2.6106
19056TIP3   OH278658   1.652   6.710   2.974  0.5459 -0.0721  0.1688
19056TIP3    H178659   1.650   6.635   2.914 -0.1473 -0.4843  0.6782
19056TIP3    H278660   1.744   6.720   2.997  0.5549 -1.3469  0.7794
19057TIP3   OH278661   5.027   3.714   3.291 -0.4919 -0.5788  0.4923
19057TIP3    H178662   4.991   3.798   3.262 -0.9656 -0.6203  0.9451
19057TIP3    H278663   5.096   3.739   3.353  1.2375 -0.4566 -1.3726
19058TIP3   OH278664   5.033   0.695  15.937  0.9691  0.1006 -0.1199
19058TIP3    H178665   4.998   0.743  15.862  2.3254  0.7532 -0.3532
19058TIP3    H278666   5.001   0.605  15.924  0.9683  0.2542 -1.3376
19059TIP3   OH278667   3.941   4.478  13.598 -0.2308  1.0083 -0.1940
19059TIP3    H178668   3.931   4.562  13.554  1.1718  0.8115 -0.9164
19059TIP3    H278669   4.026   4.445  13.570 -0.3370 -0.2245  0.8196
19060TIP3   OH278670   2.331   2.561   1.309  1.1310  0.6575  0.0757
19060TIP3    H178671   2.379   2.479   1.318 -0.5039 -0.3307  0.2034
19060TIP3    H278672   2.302   2.563   1.217 -1.3295 -0.4347  0.7354
19061TIP3   OH278673   6.627   3.031   1.572 -0.1073 -0.2622  0.2645
19061TIP3    H178674   6.667   3.112   1.604  2.5273 -0.0608 -2.9666
19061TIP3    H278675   6.690   2.963   1.595 -0.5165 -0.8136 -0.2325
19062TIP3   OH278676   5.354   4.084  12.699 -0.5262  0.3094  0.3767
19062TIP3    H178677   5.286   4.065  12.634  1.1666  0.6065 -1.5809
19062TIP3    H278678   5.331   4.172  12.732 -0.0743  1.2601 -1.7090
19063TIP3   OH278679   0.550   4.406   4.659 -0.8383 -0.4758 -0.4475
19063TIP3    H178680   0.465   4.445   4.680 -0.6213 -0.4949  0.5141
19063TIP3    H278681   0.559   4.334   4.721 -0.3765 -0.8530 -0.9410
19064TIP3   OH278682   5.467   3.025   2.214  0.1639  0.1164  0.3011
19064TIP3    H178683   5.467   2.930   2.214  0.0015  0.0972 -1.0061
19064TIP3    H278684   5.404   3.049   2.282  0.7622 -0.6841  1.1604
19065TIP3   OH278685   1.359   4.679   5.613 -0.0278 -0.5979 -0.6161
19065TIP3    H178686   1.403   4.637   5.539 -0.1578 -2.1101  0.1333
19065TIP3    H278687   1.288   4.729   5.573  0.9825  0.0736 -1.6476
19066TIP3   OH278688   3.171   4.445   3.276 -0.0509  0.0138  0.0289
19066TIP3    H178689   3.106   4.422   3.342 -0.4815 -1.6543 -0.8997
19066TIP3    H278690   3.143   4.530   3.242  0.3530  1.0591  2.1360
19067TIP3   OH278691   0.936   4.477   0.989  0.2225 -0.4654  0.5221
19067TIP3    H178692   0.978   4.515   0.912 -0.3623  1.2391  1.0016
19067TIP3    H278693   1.008   4.458   1.048  0.6538 -1.5320 -0.3231
19068TIP3   OH278694   5.613   4.318  17.107 -0.3012  0.2405 -0.2799
19068TIP3    H178695   5.560   4.260  17.161  0.1646 -1.0268 -1.1211
19068TIP3    H278696   5.691   4.335  17.159 -0.7641  0.7105  0.2643
19069TIP3   OH278697   4.384   6.004   3.390  0.0925  0.3356 -0.0587
19069TIP3    H178698   4.306   5.964   3.428  0.1122  0.7277  0.4037
19069TIP3    H278699   4.351   6.073   3.332  0.0993  0.5251  0.1646
19070TIP3   OH278700   5.093   2.290   2.640  0.6586  0.8661 -0.1356
19070TIP3    H178701   5.021   2.237   2.674  0.9677 -0.4020 -1.3725
19070TIP3    H278702   5.170   2.261   2.689  0.7633  0.4398 -0.5535
19071TIP3   OH278703   5.832   2.625   1.123 -0.4212 -0.0100  0.4407
19071TIP3    H178704   5.828   2.582   1.037 -0.5023 -2.4075  1.5611
19071TIP3    H278705   5.908   2.586   1.166 -0.1457  1.4463  1.3497
19072TIP3   OH278706   2.038   3.270   1.333 -0.1405 -0.1041  0.5279
19072TIP3    H178707   2.092   3.191   1.339 -1.9281 -1.5984 -1.6033
19072TIP3    H278708   2.069   3.315   1.255 -2.2456 -1.3303 -1.1225
19073TIP3   OH278709   4.818   0.458  15.057 -0.2276  0.2663  0.4162
19073TIP3    H178710   4.898   0.435  15.010 -2.4474 -1.3296 -2.9953
19073TIP3    H278711   4.809   0.552  15.045  0.5327  0.2822 -0.1041
19074TIP3   OH278712   0.092   4.314   6.528 -0.0501 -0.3894  0.0245
19074TIP3    H178713   0.116   4.227   6.561  1.3069 -0.4003 -0.9288
19074TIP3    H278714   0.013   4.299   6.477  0.7972 -1.2856 -1.0657
19075TIP3   OH278715   4.584   3.678   4.203  0.8297 -0.3381 -0.1222
19075TIP3    H178716   4.556   3.701   4.114 -1.7988  0.0920  0.7212
19075TIP3    H278717   4.591   3.762   4.248 -2.0845 -0.6611  1.1479
19076TIP3   OH278718   2.205   0.462  11.701 -0.1272  0.3430  0.0522
19076TIP3    H178719   2.166   0.398  11.641 -1.7212  1.3888 -0.0849
19076TIP3    H278720   2.255   0.521  11.644 -1.2572  1.0596 -0.2288
19077TIP3   OH278721   3.712   1.122  13.734 -0.4521 -0.0089  0.3134
19077TIP3    H178722   3.636   1.100  13.681 -0.0452  1.0419 -0.7590
19077TIP3    H278723   3.763   1.041  13.738 -0.0334  0.1063 -1.7184
19078TIP3   OH278724   5.047   5.232   0.793 -0.0558  0.1880  0.3703
19078TIP3    H178725   4.974   5.280   0.831 -1.6615 -1.1327 -0.8849
19078TIP3    H278726   5.036   5.142   0.825 -0.5025 -0.5835 -1.7853
19079TIP3   OH278727   1.763   5.977   1.440 -0.6287 -0.0051  0.0832
19079TIP3    H178728   1.845   5.953   1.397 -0.1981  0.4969  0.6167
19079TIP3    H278729   1.745   6.066   1.412 -1.6462 -0.5244 -1.0045
19080TIP3   OH278730   6.623   1.392   5.171  0.5405  0.4861  0.1162
19080TIP3    H178731   6.671   1.366   5.250 -0.1456 -1.2982 -0.0243
19080TIP3    H278732   6.676   1.361   5.098 -0.2667 -0.5371 -0.0566
19081TIP3   OH278733   5.715   5.017  12.168 -0.2518 -0.1915  0.1391
19081TIP3    H178734   5.716   5.085  12.100 -0.5566  1.1071  1.3832
19081TIP3    H278735   5.635   4.968  12.151 -0.0788 -0.1796 -0.7292
19082TIP3   OH278736   6.085   4.242  14.863 -0.3978 -0.1921  0.6426
19082TIP3    H178737   6.052   4.245  14.953  1.4882 -1.9804  1.4880
19082TIP3    H278738   6.173   4.204  14.871  0.8860  1.9420 -1.7076
19083TIP3   OH278739   4.420   5.714  16.120 -0.0986  0.4731 -0.0226
19083TIP3    H178740   4.332   5.738  16.150 -0.4459 -2.2774  1.4402
19083TIP3    H278741   4.472   5.708  16.200  0.8915  0.0307 -0.6794
19084TIP3   OH278742   4.452   4.019  14.719  0.1059  0.0709 -0.0687
19084TIP3    H178743   4.503   3.957  14.771  2.1297  1.9553  0.3194
19084TIP3    H278744   4.431   4.090  14.780 -3.9849 -0.9985  0.0891
19085TIP3   OH278745   6.113   0.287  11.479  0.6279  0.0897 -0.3513
19085TIP3    H178746   6.054   0.221  11.513  0.4867  1.2368  1.8106
19085TIP3    H278747   6.097   0.288  11.385 -0.0136 -2.2600 -0.3160
19086TIP3   OH278748   2.282   2.765   2.071  0.2958  0.3584  0.4952
19086TIP3    H178749   2.314   2.816   2.145  1.8513 -0.8766  0.7355
19086TIP3    H278750   2.324   2.805   1.994 -0.8350  1.2563  0.3213
19087TIP3   OH278751   1.614   2.997  13.223 -0.2637 -0.1644  0.4006
19087TIP3    H178752   1.643   2.940  13.294  0.0623  0.5653  0.8635
19087TIP3    H278753   1.691   3.006  13.167 -1.1330 -2.6023 -1.3566
19088TIP3   OH278754   6.073   6.721   0.622 -0.0477 -0.0671 -0.2361
19088TIP3    H178755   6.033   6.649   0.574 -1.3944 -1.3929  2.6167
19088TIP3    H278756   6.092   6.787   0.555  1.2719 -2.9948 -3.0033
19089TIP3   OH278757   1.730   0.847   1.100 -0.5539 -0.4588 -0.5351
19089TIP3    H178758   1.703   0.849   1.192  1.1588  1.5376 -0.0043
19089TIP3    H278759   1.763   0.935   1.083  1.6063 -1.5237 -2.3108
19090TIP3   OH278760   5.947   0.600  15.256  0.6482 -0.0563 -0.4527
19090TIP3    H178761   5.942   0.691  15.226 -1.9930  0.1517  0.3682
19090TIP3    H278762   6.018   0.600  15.320  0.5750  1.4847 -0.3285
19091TIP3   OH278763   2.639   6.613  11.636  0.7694  0.3835  0.2065
19091TIP3    H178764   2.725   6.571  11.630  0.7186  0.4783 -1.9032
19091TIP3    H278765   2.592   6.584  11.558 -0.7705  1.1204  0.8084
19092TIP3   OH278766   1.904   0.996   1.894 -0.4831  0.2078  0.0308
19092TIP3    H178767   1.932   1.043   1.973 -2.4539  1.8277 -0.1711
19092TIP3    H278768   1.870   0.913   1.927 -0.5378  0.5290  0.8213
19093TIP3   OH278769   1.981   6.651  12.734 -0.0656  0.0328  0.2173
19093TIP3    H178770   1.983   6.661  12.829  1.5345  1.4364  0.0838
19093TIP3    H278771   2.033   6.573  12.717 -2.5595 -1.8214  0.5867
19094TIP3   OH278772   1.481   2.576   5.662 -0.2335  0.0248 -0.3066
19094TIP3    H178773   1.482   2.622   5.746  0.1422  1.2591 -0.9616
19094TIP3    H278774   1.445   2.639   5.600 -1.2408 -1.1295 -0.9556
19095TIP3   OH278775   3.754   3.178   1.496 -0.1863 -0.9185 -0.0514
19095TIP3    H178776   3.779   3.250   1.553 -0.7169  0.7920 -1.8839
19095TIP3    H278777   3.679   3.137   1.540 -2.8256  2.4571 -0.9381
19096TIP3   OH278778   3.517   3.086  10.889 -0.3557  0.0634  0.5978
19096TIP3    H178779   3.540   3.172  10.854  1.8869 -0.6086  0.2790
19096TIP3    H278780   3.468   3.044  10.819 -0.1591  0.5292  0.1721
19097TIP3   OH278781   4.823   1.041   3.744 -0.1120 -0.2499  0.6131
19097TIP3    H178782   4.869   1.121   3.770 -2.2832  0.8602  1.2659
19097TIP3    H278783   4.744   1.072   3.699 -0.2119 -2.0729 -0.5431
19098TIP3   OH278784   2.804   6.212  14.610 -0.4349 -0.0878  0.3160
19098TIP3    H178785   2.745   6.194  14.536 -0.4920  2.3085 -0.2944
19098TIP3    H278786   2.891   6.213  14.571 -0.4687  1.2259  0.2283
19099TIP3   OH278787   3.503   1.432   5.301 -0.4101  0.2106 -0.0016
19099TIP3    H178788   3.501   1.513   5.249 -0.6143  1.4111  1.7905
19099TIP3    H278789   3.417   1.427   5.342  0.1457 -0.0106  1.1960
19100TIP3   OH278790   1.649   1.339  13.498 -0.0056 -0.4376 -0.4309
19100TIP3    H178791   1.672   1.413  13.555 -2.1274 -0.5270  0.6285
19100TIP3    H278792   1.591   1.377  13.433 -0.2862 -0.9838 -0.5022
19101TIP3   OH278793   0.172   0.876   2.950 -0.4232 -0.0998 -0.2712
19101TIP3    H178794   0.115   0.826   3.008 -0.0487  0.0073  0.1965
19101TIP3    H278795   0.244   0.817   2.930  0.2690  0.4145  0.6776
19102TIP3   OH278796   5.316   4.845   2.732  0.2336 -0.2240  0.3914
19102TIP3    H178797   5.226   4.878   2.735 -0.1230 -1.2205  1.4269
19102TIP3    H278798   5.354   4.873   2.815  0.6354 -0.4641  0.2882
19103TIP3   OH278799   6.059   2.414   2.387 -0.1267 -0.2175  0.8071
19103TIP3    H178800   6.112   2.491   2.404 -0.1294 -0.0559  0.0937
19103TIP3    H278801   5.977   2.448   2.351 -0.0789 -0.5526  0.3649
19104TIP3   OH278802   1.245   4.801  12.047 -0.3100  0.2026 -0.1974
19104TIP3    H178803   1.155   4.775  12.068 -0.8267  0.5815 -1.8292
19104TIP3    H278804   1.269   4.861  12.118 -1.0989 -0.4017  0.6051
19105TIP3   OH278805   3.110   0.151   3.178 -0.6297 -0.0730 -0.1247
19105TIP3    H178806   3.173   0.218   3.206 -0.2649  0.8149 -2.8407
19105TIP3    H278807   3.033   0.201   3.153 -0.5566 -0.6980 -1.6629
19106TIP3   OH278808   2.623   2.816   2.517  0.1109 -0.4945  0.2178
19106TIP3    H178809   2.688   2.776   2.575  0.1278  0.7246  1.0779
19106TIP3    H278810   2.661   2.807   2.430  1.9307  0.9777  0.7755
19107TIP3   OH278811   2.532   1.471   2.383 -0.1691 -0.4512  0.2090
19107TIP3    H178812   2.580   1.414   2.323  0.1367 -0.1814  0.1999
19107TIP3    H278813   2.599   1.524   2.425 -0.5031  0.2628 -0.1536
19108TIP3   OH278814   5.510   2.100   1.752  0.7740 -0.2523 -0.3442
19108TIP3    H178815   5.544   2.076   1.666  0.4393  1.3621 -0.9534
19108TIP3    H278816   5.547   2.186   1.770 -1.5356  0.8046 -0.2607
19109TIP3   OH278817   0.412   6.113  13.686 -0.2279  0.0814  0.5156
19109TIP3    H178818   0.448   6.200  13.701 -0.2480  0.0128  0.9719
19109TIP3    H278819   0.413   6.071  13.772  0.5802 -0.6737  0.1552
19110TIP3   OH278820   5.038   2.901  13.523  0.3880  0.3361  0.0538
19110TIP3    H178821   4.961   2.889  13.579  1.3079  0.0792  1.2900
19110TIP3    H278822   5.010   2.867  13.437  0.2225 -3.2243  1.3391
19111TIP3   OH278823   4.573   3.979  11.099  0.4065 -0.4499  0.3295
19111TIP3    H178824   4.482   3.977  11.069  0.7586 -1.6501 -0.7340
19111TIP3    H278825   4.593   3.887  11.120  1.7048 -0.3697 -0.4809
19112TIP3   OH278826   3.762   0.662   0.421  0.0492 -0.1726 -0.0757
19112TIP3    H178827   3.695   0.622   0.366 -0.7705  1.3897 -0.2498
19112TIP3    H278828   3.730   0.648   0.511 -1.1083  1.5283 -0.1917
19113TIP3   OH278829   1.619   2.014  12.384 -0.6548  0.1339 -0.3127
19113TIP3    H178830   1.583   2.099  12.360 -0.6760  0.4332  0.7573
19113TIP3    H278831   1.550   1.952  12.360 -0.0405  0.2171 -2.5436
19114TIP3   OH278832   4.103   4.219   1.971  0.3600  0.0779  0.1095
19114TIP3    H178833   4.047   4.267   1.911  0.6463  0.5959  0.2563
19114TIP3    H278834   4.055   4.220   2.054  0.8326  1.0000  0.3808
19115TIP3   OH278835   6.357   4.475   5.078  0.3321  0.1100  0.1661
19115TIP3    H178836   6.430   4.518   5.033  0.3351 -0.8812 -0.8452
19115TIP3    H278837   6.368   4.382   5.057 -0.3602 -0.2390  1.2763
19116TIP3   OH278838   1.158   5.816  11.946  0.9205 -0.2620 -0.1126
19116TIP3    H178839   1.157   5.910  11.928  1.4243 -0.2578 -0.1360
19116TIP3    H278840   1.161   5.776  11.859  1.9400 -0.2702 -0.0873
19117TIP3   OH278841   0.809   4.265  16.654 -0.0340  0.2031 -0.3145
19117TIP3    H178842   0.789   4.211  16.577  0.5287 -0.2694 -0.1382
19117TIP3    H278843   0.801   4.355  16.623  2.5186  0.0820 -1.6057
19118TIP3   OH278844   0.313   5.072  14.261 -0.5188  0.4455  0.2502
19118TIP3    H178845   0.389   5.116  14.222 -0.6887  0.7187  0.2252
19118TIP3    H278846   0.259   5.143  14.294 -0.4530  0.2202  0.8455
19119TIP3   OH278847   3.102   3.779   2.789  0.0429  0.5923 -0.2790
19119TIP3    H178848   3.123   3.860   2.743  1.5715  1.4938  1.8615
19119TIP3    H278849   3.139   3.791   2.877 -1.5152 -1.5964  0.7515
19120TIP3   OH278850   3.281   4.052  16.009 -0.3244  0.2940 -0.3814
19120TIP3    H178851   3.312   4.115  15.944  1.3312  0.6209  0.6639
19120TIP3    H278852   3.279   4.101  16.091 -0.2981 -0.6709  0.2051
19121TIP3   OH278853   0.331   2.703  12.524  0.2843  0.8277  0.2551
19121TIP3    H178854   0.346   2.682  12.432  4.1338  0.4404  0.8080
19121TIP3    H278855   0.337   2.619  12.569  0.8555  1.2976  1.0762
19122TIP3   OH278856   2.825   5.061  15.713  0.4615 -0.1276  0.4199
19122TIP3    H178857   2.795   5.050  15.803  0.4122  1.0687  0.5719
19122TIP3    H278858   2.761   5.015  15.660  0.2456 -0.4712  0.9740
19123TIP3   OH278859   0.250   1.546   2.873 -0.5479 -0.3626 -0.3199
19123TIP3    H178860   0.263   1.637   2.847  1.1149 -1.2715 -3.0943
19123TIP3    H278861   0.242   1.549   2.969  0.6319  2.5536 -0.2255
19124TIP3   OH278862   0.286   1.932   5.204  0.5669 -0.5035 -0.0688
19124TIP3    H178863   0.218   1.933   5.136 -0.7571 -0.8562  1.2010
19124TIP3    H278864   0.305   2.024   5.220 -0.1901 -0.3766  0.1199
19125TIP3   OH278865   3.759   3.415  13.913  0.0703  0.4647 -0.4207
19125TIP3    H178866   3.708   3.346  13.870  1.2373 -0.7362  0.0436
19125TIP3    H278867   3.697   3.459  13.971 -0.6665 -0.2665 -0.6332
19126TIP3   OH278868   5.228   4.860  15.486 -0.1078  0.6149 -0.1067
19126TIP3    H178869   5.300   4.907  15.527 -1.8611  1.3204  2.4289
19126TIP3    H278870   5.189   4.923  15.425 -1.7099  2.2053  2.3991
19127TIP3   OH278871   1.872   6.331  12.563 -0.6189  0.6514 -0.1688
19127TIP3    H178872   1.813   6.317  12.489  0.0273 -1.1861 -0.3944
19127TIP3    H278873   1.903   6.243  12.585  1.8549  1.5296  0.0902
19128TIP3   OH278874   2.139   1.300  12.297 -0.3484  0.1298  0.2648
19128TIP3    H178875   2.129   1.387  12.260 -0.2599  0.0776  0.1154
19128TIP3    H278876   2.146   1.314  12.391 -0.4896  0.2701  0.2538
19129TIP3   OH278877   2.593   5.625   6.578  0.2827 -0.1732  0.0939
19129TIP3    H178878   2.531   5.587   6.640  0.6379  0.0201  0.5746
19129TIP3    H278879   2.542   5.693   6.533 -0.1822 -0.8024 -0.3510
19130TIP3   OH278880   1.204   2.760  13.653 -0.4226 -0.0639  0.0169
19130TIP3    H178881   1.150   2.705  13.596  0.5537  0.0017 -1.0048
19130TIP3    H278882   1.206   2.845  13.608  0.5733 -0.0896 -0.0027
19131TIP3   OH278883   1.777   1.012   4.015 -0.0634 -0.4560  0.1858
19131TIP3    H178884   1.774   0.968   3.930  0.0561 -0.8150  0.3646
19131TIP3    H278885   1.688   1.005   4.050 -0.0059 -0.6989  0.2847
19132TIP3   OH278886   1.875   5.143   3.540 -0.4278 -0.0411 -0.4563
19132TIP3    H178887   1.955   5.195   3.547 -1.1568  0.9979  0.5966
19132TIP3    H278888   1.824   5.185   3.470 -0.6130  0.1047 -0.2365
19133TIP3   OH278889   2.315   4.037  14.992  0.1959  0.1565 -0.2943
19133TIP3    H178890   2.298   4.022  15.085 -1.1299 -1.9117 -0.8091
19133TIP3    H278891   2.396   3.990  14.974 -0.4192 -0.8499 -0.5024
19134TIP3   OH278892   2.822   5.869  13.933 -0.3852 -0.2490 -0.0081
19134TIP3    H178893   2.897   5.883  13.876 -1.2672  2.0311 -0.7165
19134TIP3    H278894   2.756   5.828  13.877  0.7015 -3.6528  0.9718
19135TIP3   OH278895   6.084   4.896   1.145 -0.2502  0.4149 -0.0370
19135TIP3    H178896   6.102   4.823   1.205 -0.8895  0.3525  0.0834
19135TIP3    H278897   6.171   4.926   1.118  0.0601  0.4626  0.9457
19136TIP3   OH278898   6.439   5.169   2.210 -0.2680  0.4084 -0.5769
19136TIP3    H178899   6.360   5.147   2.160 -0.9957  0.2028  0.6302
19136TIP3    H278900   6.453   5.262   2.192  1.0465 -0.1909 -3.2437
19137TIP3   OH278901   3.240   4.403  12.087  0.4341 -0.0179 -0.4121
19137TIP3    H178902   3.201   4.380  12.003 -0.2021  0.5672 -0.2953
19137TIP3    H278903   3.334   4.389  12.076  0.3766  0.2466 -1.2853
19138TIP3   OH278904   0.498   0.327  13.631  0.0139  0.3615 -0.6855
19138TIP3    H178905   0.520   0.357  13.719 -0.7633  1.5389 -0.8691
19138TIP3    H278906   0.424   0.382  13.605  1.7387  1.7398 -3.0233
19139TIP3   OH278907   1.535   1.789   2.059  0.4768 -0.5426 -0.1024
19139TIP3    H178908   1.591   1.774   1.982 -0.7686  1.9244 -1.6185
19139TIP3    H278909   1.587   1.845   2.116  0.2964  0.1179 -0.5819
19140TIP3   OH278910   4.737   5.342  15.094 -0.0519 -0.3044 -0.0971
19140TIP3    H178911   4.823   5.369  15.127 -1.2473  1.2159  1.9729
19140TIP3    H278912   4.713   5.410  15.032  0.1506 -0.6547 -0.5685
19141TIP3   OH278913   2.348   5.423  16.208  0.6540 -0.0858 -0.7598
19141TIP3    H178914   2.432   5.455  16.175  1.5087 -1.8706 -0.4164
19141TIP3    H278915   2.292   5.501  16.211  2.7286  1.4301  0.4301
19142TIP3   OH278916   1.484   5.957   4.702 -0.3684 -0.5365 -0.5363
19142TIP3    H178917   1.533   5.969   4.784 -1.2348  0.1291 -0.1026
19142TIP3    H278918   1.517   5.875   4.667  1.7321  0.3380 -0.7394
19143TIP3   OH278919   2.284   1.352   0.448 -0.5191  0.4762  0.8045
19143TIP3    H178920   2.340   1.292   0.399 -0.6232 -0.2758  1.5738
19143TIP3    H278921   2.212   1.298   0.479 -1.3898  1.3158  0.3060
19144TIP3   OH278922   5.975   5.058   3.020  0.0700 -0.2330  0.3582
19144TIP3    H178923   6.058   5.106   3.025 -0.6158  0.9080  1.2428
19144TIP3    H278924   6.000   4.969   2.997  1.6389 -0.1470  1.5922
19145TIP3   OH278925   5.337   1.512  13.604 -0.1992  0.0201 -0.0122
19145TIP3    H178926   5.390   1.570  13.659 -0.3648 -2.0744  2.5568
19145TIP3    H278927   5.247   1.525  13.635 -0.6304  0.3744 -1.3437
19146TIP3   OH278928   6.511   0.140  16.448  0.0910 -0.0176 -0.1314
19146TIP3    H178929   6.461   0.190  16.383  0.2012  0.2846  0.0139
19146TIP3    H278930   6.457   0.063  16.466  0.5277 -0.6440 -1.3544
19147TIP3   OH278931   1.722   2.277   4.830 -0.2458 -0.4156  0.1373
19147TIP3    H178932   1.720   2.321   4.915  0.2257 -0.1839  0.0318
19147TIP3    H278933   1.778   2.333   4.775  0.8746 -1.4542  0.1788
19148TIP3   OH278934   0.532   1.231  16.679  0.7661 -0.2192  0.2564
19148TIP3    H178935   0.451   1.278  16.700  1.3513  0.6763  0.5692
19148TIP3    H278936   0.521   1.145  16.721 -0.1216 -0.1985  0.0808
19149TIP3   OH278937   6.716   5.819   2.155  0.1512 -0.8651  0.0830
19149TIP3    H178938   6.691   5.842   2.066 -0.0455 -0.0166  0.3529
19149TIP3    H278939   6.734   5.725   2.151 -0.8290 -1.0308 -0.6265
19150TIP3   OH278940   0.071   1.008   2.726 -0.3413  0.2728  0.0921
19150TIP3    H178941   0.124   0.957   2.787 -0.7624 -1.1726 -0.7192
19150TIP3    H278942   0.010   1.056   2.782 -1.3366 -1.7296  0.8294
19151TIP3   OH278943   2.663   2.016  12.884  0.2287  0.2895  0.1671
19151TIP3    H178944   2.591   1.957  12.910 -0.9874  1.0818 -1.2625
19151TIP3    H278945   2.708   1.969  12.814  0.6250  0.1521  0.5065
19152TIP3   OH278946   1.738   4.776   0.246 -0.1945  0.1739  0.0685
19152TIP3    H178947   1.674   4.847   0.254  0.1049  0.5521 -0.7635
19152TIP3    H278948   1.765   4.778   0.154  1.2780  0.2561  0.4734
19153TIP3   OH278949   1.032   6.666  12.658  0.0151 -0.1451 -0.2978
19153TIP3    H178950   1.092   6.708  12.596  0.7358  0.7588  0.9791
19153TIP3    H278951   1.042   6.572  12.641 -1.2002  0.0960 -2.8072
19154TIP3   OH278952   1.506   0.106  14.235 -0.4789 -0.1293  0.3954
19154TIP3    H178953   1.516   0.011  14.228  1.1555  0.1128 -1.7157
19154TIP3    H278954   1.579   0.134  14.290  0.2674  0.0426 -0.6437
19155TIP3   OH278955   1.324   5.740   3.319  0.5466  0.0910  0.2934
19155TIP3    H178956   1.366   5.655   3.331  3.8874  1.7248  1.6622
19155TIP3    H278957   1.361   5.774   3.238  0.1065  0.6686  0.3265
19156TIP3   OH278958   4.521   2.038   0.560 -0.5034 -0.8375 -0.1031
19156TIP3    H178959   4.609   2.069   0.541 -0.5313 -1.2319 -0.8945
19156TIP3    H278960   4.530   1.943   0.567 -0.5919 -0.7608  1.3554
19157TIP3   OH278961   1.922   4.342  15.172 -0.3910 -0.5524  0.5218
19157TIP3    H178962   1.851   4.387  15.217  0.2896  1.0719  0.0499
19157TIP3    H278963   1.878   4.292  15.103 -1.1833 -0.6244  1.0649
19158TIP3   OH278964   6.801   2.172   6.075  0.6112 -0.1441  0.0880
19158TIP3    H178965   6.710   2.168   6.048  0.6800 -1.3275 -0.0279
19158TIP3    H278966   6.823   2.265   6.075 -0.3404  0.0848 -0.7116
19159TIP3   OH278967   1.081   4.270  16.032 -0.0893 -0.4418 -0.5550
19159TIP3    H178968   1.078   4.182  15.995  0.5726 -0.6954 -0.0304
19159TIP3    H278969   1.042   4.262  16.119 -1.9737  0.2262 -1.2981
19160TIP3   OH278970   4.765   1.267   1.329 -0.5065 -0.2711 -0.0214
19160TIP3    H178971   4.774   1.273   1.425  0.4185 -0.3872 -0.0901
19160TIP3    H278972   4.811   1.186   1.306 -1.2777 -0.5824 -0.5090
19161TIP3   OH278973   1.009   0.595   3.301  0.0950  0.0872 -0.1242
19161TIP3    H178974   1.057   0.676   3.320 -0.2416  0.2372  0.0834
19161TIP3    H278975   1.071   0.526   3.324  0.2191  0.2792  0.1358
19162TIP3   OH278976   2.423   1.985   3.630  0.1126  0.1084  0.4125
19162TIP3    H178977   2.342   2.033   3.614 -0.7532 -1.1788  0.7836
19162TIP3    H278978   2.416   1.955   3.721  0.2119 -1.4764 -0.0781
19163TIP3   OH278979   6.745   5.143   5.185 -0.2940  0.1708  0.2144
19163TIP3    H178980   6.661   5.184   5.206 -0.1348  0.9044 -0.5502
19163TIP3    H278981   6.783   5.121   5.270 -1.7182 -1.1393  0.5632
19164TIP3   OH278982   0.702   0.572  12.129  0.6743 -0.3651  0.3047
19164TIP3    H178983   0.625   0.533  12.089  0.6521 -1.8493  1.6758
19164TIP3    H278984   0.668   0.624  12.202  0.9368 -1.1417  1.0055
19165TIP3   OH278985   5.619   2.284  15.870 -0.2166 -0.3901 -0.2719
19165TIP3    H178986   5.544   2.224  15.867  0.4175 -1.1762 -1.6187
19165TIP3    H278987   5.649   2.289  15.779  0.0041  1.6964 -0.1234
19166TIP3   OH278988   2.738   3.670   3.542 -0.1483  0.0558 -0.1128
19166TIP3    H178989   2.654   3.646   3.581  0.1154 -0.7420 -0.0291
19166TIP3    H278990   2.799   3.604   3.574  0.3523  0.1842 -0.7974
19167TIP3   OH278991   1.601   3.245   4.834  0.0576 -0.7753  0.2727
19167TIP3    H178992   1.603   3.175   4.899 -1.5093  0.4518  1.7486
19167TIP3    H278993   1.508   3.254   4.813  0.4310 -0.3579 -1.2876
19168TIP3   OH278994   6.228   6.237  16.744 -0.5588  0.1251  1.0368
19168TIP3    H178995   6.302   6.238  16.806  1.3127  2.1066 -1.0247
19168TIP3    H278996   6.157   6.281  16.791  1.3464  3.1625  1.3604
19169TIP3   OH278997   2.733   3.089  10.851 -0.0984  0.3674 -0.0842
19169TIP3    H178998   2.717   3.060  10.762  1.3806  1.0081 -0.5952
19169TIP3    H278999   2.700   3.018  10.906 -1.8648  0.3663 -1.0843
19170TIP3   OH279000   6.238   5.308  11.617  0.4146  1.0278 -0.3748
19170TIP3    H179001   6.227   5.215  11.595 -0.8178  1.0297  0.1153
19170TIP3    H279002   6.315   5.310  11.674  0.9445  0.4297 -1.0452
19171TIP3   OH279003   1.110   0.703   5.735 -0.8398 -0.2372  0.0149
19171TIP3    H179004   1.174   0.717   5.666 -0.8089 -0.6321 -0.0434
19171TIP3    H279005   1.141   0.756   5.808 -0.2351 -0.7054  0.1113
19172TIP3   OH279006   0.914   5.585  12.340  0.1009  0.4734 -0.2679
19172TIP3    H179007   0.889   5.531  12.265 -0.7024 -0.5051  0.6753
19172TIP3    H279008   0.951   5.524  12.403  1.8042  1.4293 -0.2560
19173TIP3   OH279009   3.592   2.690  14.180 -0.3368 -0.6123 -0.3530
19173TIP3    H179010   3.546   2.729  14.106  1.4367  0.9306 -0.7080
19173TIP3    H279011   3.636   2.613  14.143  0.6466  0.2254 -0.9753
19174TIP3   OH279012   4.124   2.656   1.869  0.1481 -0.2875  0.9152
19174TIP3    H179013   4.055   2.617   1.815  1.7888  1.1267 -2.5287
19174TIP3    H279014   4.077   2.710   1.933 -2.0167  0.5179 -1.1936
19175TIP3   OH279015   1.180   5.449   0.224 -0.5490 -0.3801  0.3953
19175TIP3    H179016   1.086   5.432   0.228 -0.3009 -1.6447  1.8438
19175TIP3    H279017   1.191   5.502   0.145 -2.6934  1.4756  1.2108
19176TIP3   OH279018   4.485   3.829  13.973  0.0385 -0.0852 -0.1464
19176TIP3    H179019   4.570   3.831  14.016 -0.5930  1.9955  1.1815
19176TIP3    H279020   4.440   3.907  14.007 -1.6973 -0.1064 -2.2316
19177TIP3   OH279021   3.680   1.178   4.627 -0.5736 -0.2160  0.0369
19177TIP3    H179022   3.631   1.174   4.544 -2.9091 -1.6235  1.3728
19177TIP3    H279023   3.770   1.155   4.603 -0.4850  2.1969 -2.5095
19178TIP3   OH279024   6.206   5.572  14.780  0.3670  0.4337  0.0778
19178TIP3    H179025   6.181   5.513  14.709  1.1213 -0.7238  0.7478
19178TIP3    H279026   6.137   5.639  14.782 -1.1553 -1.0848  0.0890
19179TIP3   OH279027   3.674   4.818   2.637 -0.4570 -0.1300  0.5313
19179TIP3    H179028   3.673   4.848   2.728 -1.2710 -0.0991  0.5172
19179TIP3    H279029   3.601   4.864   2.595 -0.6704 -0.8438  0.0936
19180TIP3   OH279030   5.225   4.763  15.153 -0.0324  0.2754  0.6881
19180TIP3    H179031   5.203   4.855  15.163 -0.8143  0.2745 -0.7815
19180TIP3    H279032   5.249   4.734  15.241 -0.1161  1.7846  1.2301
19181TIP3   OH279033   0.554   1.582   2.786 -0.3271 -0.1137 -0.2034
19181TIP3    H179034   0.629   1.623   2.744 -1.0584  0.0440 -1.4209
19181TIP3    H279035   0.583   1.562   2.874  0.5243  1.6936 -0.0297
19182TIP3   OH279036   3.949   0.592   1.792 -0.1005 -0.5136  0.0083
19182TIP3    H179037   3.904   0.673   1.767 -1.2668 -1.9375 -3.0081
19182TIP3    H279038   4.034   0.597   1.747  0.4145 -0.3998  0.9609
19183TIP3   OH279039   6.332   3.608   4.126  0.0640  0.1439  0.8260
19183TIP3    H179040   6.353   3.571   4.211 -0.0856  0.9363  1.2237
19183TIP3    H279041   6.416   3.614   4.080 -0.0314 -1.5102  0.3909
19184TIP3   OH279042   1.497   6.073   0.618 -0.3463 -0.1434 -0.0517
19184TIP3    H179043   1.418   6.057   0.566 -0.0110  0.1963 -0.6771
19184TIP3    H279044   1.560   6.110   0.556 -0.3670  1.5220  0.8401
19185TIP3   OH279045   3.265   5.817  12.603 -0.0393  0.4785 -0.1078
19185TIP3    H179046   3.294   5.834  12.692 -0.0492 -1.1242  0.2178
19185TIP3    H279047   3.344   5.793  12.555 -0.0701  1.1119 -0.5038
19186TIP3   OH279048   5.971   1.052  17.254  0.5292  0.0726 -0.3823
19186TIP3    H179049   5.922   1.023  17.177  0.0484 -0.8176  0.2493
19186TIP3    H279050   6.041   1.108  17.218 -1.1670  1.7453 -1.2617
19187TIP3   OH279051   0.975   1.745   3.754 -0.2908 -0.2323 -0.6652
19187TIP3    H179052   0.911   1.756   3.825 -0.0660  0.7113 -0.6030
19187TIP3    H279053   0.943   1.801   3.684  1.2612  1.4715 -0.0781
19188TIP3   OH279054   3.916   0.723  14.233 -0.3519 -0.0200 -0.1836
19188TIP3    H179055   3.901   0.817  14.228 -1.0428 -0.0626  0.8113
19188TIP3    H279056   3.833   0.687  14.265 -0.4193 -1.0855 -1.4784
19189TIP3   OH279057   4.835   1.454  12.032  0.3641 -0.3706 -0.4530
19189TIP3    H179058   4.858   1.500  12.112 -0.8764  0.2229 -0.4099
19189TIP3    H279059   4.918   1.439  11.987  0.9567  0.3195  0.3930
19190TIP3   OH279060   1.440   1.619  15.403 -0.0246  0.3850  0.1194
19190TIP3    H179061   1.459   1.713  15.401  1.1117  0.1522 -1.0242
19190TIP3    H279062   1.477   1.589  15.486 -0.8107  1.0131  0.7155
19191TIP3   OH279063   5.818   5.043  13.518 -0.2142  0.3130 -0.0496
19191TIP3    H179064   5.881   5.072  13.584 -0.2444 -0.2618  0.2485
19191TIP3    H279065   5.750   4.999  13.570 -0.6228  0.5246 -0.4069
19192TIP3   OH279066   0.897   0.925   5.031  0.3049 -0.1161 -0.2026
19192TIP3    H179067   0.888   1.006   4.981  0.2395  0.4942  0.7817
19192TIP3    H279068   0.808   0.891   5.039  0.5061 -1.2403 -2.1179
19193TIP3   OH279069   2.481   5.842   2.158 -0.0444 -0.3077  0.3186
19193TIP3    H179070   2.530   5.904   2.211 -2.1403 -0.2839  2.3879
19193TIP3    H279071   2.488   5.759   2.207  0.7242 -1.1454 -1.1497
19194TIP3   OH279072   6.200   2.944  13.770 -0.5118  0.4956  0.3152
19194TIP3    H179073   6.205   3.038  13.786  1.6448  0.6937 -1.1073
19194TIP3    H279074   6.254   2.905  13.838  1.3100  0.6218 -0.9771
19195TIP3   OH279075   6.582   2.196   5.719  0.0931  0.1431 -0.2613
19195TIP3    H179076   6.639   2.265   5.686 -0.0987  0.7303  0.6102
19195TIP3    H279077   6.642   2.134   5.761  0.2089  0.0757 -0.5221
19196TIP3   OH279078   1.088   2.884  15.126  0.2488 -0.3038 -0.4718
19196TIP3    H179079   1.086   2.790  15.111  0.8003 -0.5126  0.6262
19196TIP3    H279080   1.000   2.906  15.156  0.7548 -0.9546  1.7183
19197TIP3   OH279081   1.023   3.755  14.008 -0.3494 -0.1076 -0.0351
19197TIP3    H179082   1.087   3.816  13.972 -1.6937 -0.1821 -2.8169
19197TIP3    H279083   0.956   3.811  14.048 -0.7969  0.2113 -1.1938
19198TIP3   OH279084   3.912   6.163   5.486 -0.0859 -0.1532 -0.1101
19198TIP3    H179085   3.855   6.201   5.552  0.1450 -0.0888  0.0553
19198TIP3    H279086   3.996   6.209   5.497 -0.5759  1.2227 -1.7091
19199TIP3   OH279087   3.962   5.090   1.820  0.3356 -0.2588  0.4617
19199TIP3    H179088   3.898   5.152   1.854  0.3837 -0.2429  0.5245
19199TIP3    H279089   3.932   5.070   1.731  0.3247 -0.1392  0.4383
19200TIP3   OH279090   2.547   1.645   3.262 -0.2760  0.4128 -0.2019
19200TIP3    H179091   2.631   1.690   3.264  0.1165 -0.3383  1.2770
19200TIP3    H279092   2.491   1.692   3.323 -0.4685  0.0326 -0.0768
19201TIP3   OH279093   0.668   1.863   3.762 -0.1176  0.0829  0.2861
19201TIP3    H179094   0.700   1.937   3.712 -0.4653  0.1109  0.0972
19201TIP3    H279095   0.674   1.890   3.853 -1.2858  0.7763  0.1701
19202TIP3   OH279096   3.293   0.341   1.494 -0.0525 -0.0952  0.9170
19202TIP3    H179097   3.337   0.423   1.472 -0.6861 -0.2774 -1.2545
19202TIP3    H279098   3.271   0.302   1.410 -1.9075 -1.3591  1.9096
19203TIP3   OH279099   1.019   3.099   4.393  0.1720  0.1890  0.4146
19203TIP3    H179100   1.047   3.135   4.308 -2.1108  0.3599 -0.3271
19203TIP3    H279101   1.098   3.104   4.447  1.0323  2.5604 -0.8747
19204TIP3   OH279102   2.996   3.173  13.789  0.0794 -0.4899 -0.2306
19204TIP3    H179103   2.920   3.180  13.731 -0.9553 -3.1946  0.6340
19204TIP3    H279104   3.061   3.125  13.738  0.7027  0.5680 -0.4640
19205TIP3   OH279105   5.847   5.015   5.504  0.1873 -0.2025 -0.0432
19205TIP3    H179106   5.869   5.108   5.503 -0.2206 -0.0919 -1.6937
19205TIP3    H279107   5.755   5.012   5.478  0.2763 -1.0816 -0.2933
19206TIP3   OH279108   4.453   5.756   3.299 -0.1741  0.4539 -0.0056
19206TIP3    H179109   4.386   5.711   3.247  1.2934 -0.4968 -1.1705
19206TIP3    H279110   4.411   5.838   3.325 -1.7841 -0.1008 -0.6874
19207TIP3   OH279111   4.037   5.581  10.187 -0.4613  0.3405  0.2395
19207TIP3    H179112   4.017   5.595  10.279  0.3545 -1.8434  0.7819
19207TIP3    H279113   3.988   5.502  10.163  1.3498 -0.6042 -0.4760
19208TIP3   OH279114   6.575   4.107  13.294 -0.1584 -0.5000  0.5687
19208TIP3    H179115   6.521   4.185  13.281  0.7719  0.0220 -0.3721
19208TIP3    H279116   6.642   4.113  13.225  0.3370 -1.7762  0.9128
19209TIP3   OH279117   4.993   0.138   2.212 -0.1405  0.0969  0.2935
19209TIP3    H179118   4.990   0.179   2.298  0.0672 -1.4865  1.0872
19209TIP3    H279119   4.985   0.044   2.229  2.3292 -0.4919 -1.1650
19210TIP3   OH279120   0.429   6.273  11.707  0.5427  0.3231  0.6891
19210TIP3    H179121   0.456   6.364  11.695 -1.1694  0.8246  0.4142
19210TIP3    H279122   0.344   6.278  11.750  0.1204 -1.1341  0.0963
19211TIP3   OH279123   2.850   0.061  11.671  0.3790  0.2438  0.3189
19211TIP3    H179124   2.881  -0.028  11.689  0.1618  0.2828  0.9048
19211TIP3    H279125   2.876   0.078  11.581  1.4784  0.0364  0.5902
19212TIP3   OH279126   2.607   5.805   0.662 -0.2585 -0.3824  0.3015
19212TIP3    H179127   2.513   5.817   0.673 -0.2279  0.0528  0.1122
19212TIP3    H279128   2.615   5.730   0.603 -0.5614  1.2792 -1.9580
19213TIP3   OH279129   1.476   0.972   3.997  0.2807  0.0347 -0.4829
19213TIP3    H179130   1.424   0.983   4.076  0.9182  0.3584 -0.0935
19213TIP3    H279131   1.419   1.000   3.925 -0.2514 -0.1190 -0.1239
19214TIP3   OH279132   5.448   2.624  13.201  0.4072  0.1825 -0.1227
19214TIP3    H179133   5.413   2.690  13.141 -0.1708 -1.3963 -1.6145
19214TIP3    H279134   5.370   2.590  13.246  0.5397 -0.3072 -0.2550
19215TIP3   OH279135   3.775   6.518  14.582 -0.1533 -0.3440  0.3641
19215TIP3    H179136   3.816   6.557  14.659  0.4196  1.7728 -0.9104
19215TIP3    H279137   3.847   6.477  14.535  0.0883  1.0137 -0.5131
19216TIP3   OH279138   6.491   5.974  14.712 -0.0981 -0.5814 -0.1635
19216TIP3    H179139   6.532   6.001  14.795 -0.9563 -1.6122  0.6305
19216TIP3    H279140   6.409   5.932  14.739 -0.5127 -0.7116 -1.5673
19217TIP3   OH279141   2.718   5.125  16.850  0.1196 -0.6049 -0.5211
19217TIP3    H179142   2.809   5.118  16.877 -0.4012 -0.5374  1.3727
19217TIP3    H279143   2.704   5.049  16.793  0.6814 -2.1725  1.3218
19218TIP3   OH279144   4.040   5.726  12.824  0.2487  0.2696 -0.1337
19218TIP3    H179145   3.991   5.784  12.883  1.2071 -0.0924  1.0667
19218TIP3    H279146   4.041   5.772  12.741  2.5823  2.9996  1.2262
19219TIP3   OH279147   6.774   5.264  12.599  0.3389 -0.7875 -0.1965
19219TIP3    H179148   6.731   5.184  12.570 -1.0902 -0.3571  0.6197
19219TIP3    H279149   6.744   5.276  12.689 -1.6073  1.9579 -1.0575
19220TIP3   OH279150   6.082   0.204   1.104 -0.0069 -0.1232  0.0956
19220TIP3    H179151   6.176   0.190   1.116  0.4297  1.6678 -0.8973
19220TIP3    H279152   6.041   0.129   1.147  1.8228 -0.2567  1.7506
19221TIP3   OH279153   3.036   3.152   0.796  0.4597  0.1696  0.7355
19221TIP3    H179154   3.008   3.201   0.874 -0.2182 -0.0607  0.6481
19221TIP3    H279155   2.954   3.134   0.749  0.8524  0.2375  0.0092
19222TIP3   OH279156   5.659   5.793   2.954 -0.4063 -0.6831  0.4081
19222TIP3    H179157   5.673   5.698   2.950  0.4595 -0.5391 -0.6421
19222TIP3    H279158   5.705   5.820   3.034  0.7450 -0.9538 -0.1401
19223TIP3   OH279159   1.869   1.378   0.158 -0.1055  0.0698 -0.2675
19223TIP3    H179160   1.863   1.470   0.131 -1.8924  0.2983  0.7844
19223TIP3    H279161   1.858   1.329   0.076 -1.6950  0.7847 -0.5213
19224TIP3   OH279162   3.006   4.763  12.631 -0.2502  0.6156 -0.3763
19224TIP3    H179163   3.039   4.708  12.560 -1.0039  1.0301 -1.0557
19224TIP3    H279164   2.911   4.751  12.629 -0.1574 -1.1909  2.0711
19225TIP3   OH279165   4.604   0.103   3.386  0.2135 -0.0914  0.2632
19225TIP3    H179166   4.551   0.154   3.447  0.5327 -0.9451  1.2912
19225TIP3    H279167   4.643   0.168   3.327 -0.8015  0.6722  0.3970
19226TIP3   OH279168   2.476   1.710   5.755 -0.0274  0.1611 -0.5538
19226TIP3    H179169   2.395   1.757   5.733 -0.1894  0.0091 -0.2939
19226TIP3    H279170   2.446   1.636   5.808  0.3582  0.5507  0.2213
19227TIP3   OH279171   4.821   5.104   3.219  0.1791 -0.4794 -0.9749
19227TIP3    H179172   4.783   5.168   3.279  0.7282 -0.2168 -0.8956
19227TIP3    H279173   4.902   5.076   3.263 -0.1314 -1.3462 -0.9358
19228TIP3   OH279174   0.081   0.603   5.050 -0.5211 -0.0450  0.3208
19228TIP3    H179175   0.155   0.543   5.054  0.7583  1.5214  1.1875
19228TIP3    H279176   0.048   0.595   4.960  0.5006 -0.9787  0.0145
19229TIP3   OH279177   6.432   1.951   2.826  0.0706 -0.0326  0.4927
19229TIP3    H179178   6.374   1.882   2.859  1.5495 -2.0112 -0.8045
19229TIP3    H279179   6.494   1.905   2.769  1.6360  2.2858  0.1909
19230TIP3   OH279180   3.983   3.326  11.423  0.2722 -0.3878  0.1712
19230TIP3    H179181   3.978   3.418  11.396  2.1655 -0.6301 -1.2011
19230TIP3    H279182   3.903   3.286  11.390  0.6192  0.2439 -1.5210
19231TIP3   OH279183   0.333   2.720  11.821 -0.3204 -0.3184  0.0560
19231TIP3    H179184   0.292   2.776  11.755  0.6950  1.8890  1.1952
19231TIP3    H279185   0.404   2.677  11.773  0.9984  1.9592 -0.1924
19232TIP3   OH279186   6.618   5.195  13.789  0.0662  0.3553  0.2697
19232TIP3    H179187   6.531   5.234  13.800 -0.0469 -0.1259  1.1580
19232TIP3    H279188   6.637   5.155  13.873  0.5754 -0.7078 -0.3295
19233TIP3   OH279189   3.133   1.371  14.171  0.1780  0.1997 -0.3901
19233TIP3    H179190   3.112   1.439  14.236  2.5389  1.9104 -1.2913
19233TIP3    H279191   3.102   1.407  14.088  2.0904  0.5786 -0.9871
19234TIP3   OH279192   4.325   2.231  13.249  0.2153 -0.2438  0.1877
19234TIP3    H179193   4.362   2.143  13.244 -0.1421 -0.3389 -0.9711
19234TIP3    H279194   4.325   2.252  13.343 -0.1883 -1.6859  0.5285
19235TIP3   OH279195   4.252   2.858  14.110 -0.1243  0.0406 -0.0363
19235TIP3    H179196   4.246   2.882  14.018  3.3864  2.6334  0.1962
19235TIP3    H279197   4.195   2.920  14.155 -0.6949 -0.2517 -0.3574
19236TIP3   OH279198   0.201   5.669   0.952 -0.4989  0.2221  0.1144
19236TIP3    H179199   0.274   5.624   0.993 -1.5349 -0.8184  0.8955
19236TIP3    H279200   0.194   5.630   0.865 -0.3074  0.1374  0.1372
19237TIP3   OH279201   4.379   5.456  13.451  0.5160 -0.3612  0.5248
19237TIP3    H179202   4.381   5.419  13.363 -1.8914  0.3181  0.1267
19237TIP3    H279203   4.322   5.396  13.500 -2.2884  1.8970  0.2370
19238TIP3   OH279204   0.014   5.592  10.372 -0.0833 -0.2901  0.5650
19238TIP3    H179205  -0.069   5.618  10.333 -0.4598 -0.0232  1.5091
19238TIP3    H279206   0.078   5.654  10.337 -0.6408  0.7565  1.3261
19239TIP3   OH279207   5.205   2.664  17.005  0.0836  0.4713 -0.1874
19239TIP3    H179208   5.299   2.663  17.020  0.4840  0.5595 -2.3114
19239TIP3    H279209   5.177   2.574  17.018  0.6713  0.2215 -0.6233
19240TIP3   OH279210   4.452   1.010  11.877  0.5527  0.3267 -0.1771
19240TIP3    H179211   4.546   1.007  11.859  0.8327  2.1275  0.7716
19240TIP3    H279212   4.412   1.023  11.791  1.2617  0.6741 -0.4602
19241TIP3   OH279213   3.916   3.697   3.744 -0.3289 -0.3477  0.0651
19241TIP3    H179214   4.006   3.665   3.753 -0.1242  0.2499  0.1693
19241TIP3    H279215   3.881   3.649   3.669 -0.4271 -1.6943  0.9447
19242TIP3   OH279216   2.588   3.893  13.755 -0.0600  0.2912 -0.0840
19242TIP3    H179217   2.607   3.834  13.682 -1.5237  0.4828 -0.6464
19242TIP3    H279218   2.667   3.888  13.810 -1.1694 -4.5942  1.5726
19243TIP3   OH279219   1.848   4.666   5.591  0.7013 -0.0564 -0.1705
19243TIP3    H179220   1.870   4.636   5.679  0.1868  1.0792  0.3747
19243TIP3    H279221   1.932   4.691   5.552  0.8756 -0.0851  0.1888
19244TIP3   OH279222   4.155   6.176  12.827  0.1253 -0.1215 -0.6416
19244TIP3    H179223   4.062   6.159  12.842  0.3642 -0.9339  0.0320
19244TIP3    H279224   4.177   6.124  12.750  0.0647 -0.0800 -0.6872
19245TIP3   OH279225   1.863   1.740   0.704 -0.4158  0.1843 -0.1240
19245TIP3    H179226   1.829   1.698   0.626  1.0349  1.1593 -1.3199
19245TIP3    H279227   1.929   1.680   0.738 -1.5186 -0.5651  0.8131
19246TIP3   OH279228   0.283   1.728   6.736 -0.1518 -0.6155  0.2864
19246TIP3    H179229   0.234   1.671   6.794 -0.4076  2.0232  2.9183
19246TIP3    H279230   0.217   1.783   6.694  0.2418  0.0152  0.4634
19247TIP3   OH279231   0.094   1.086  17.214 -0.2333  0.3904  0.0093
19247TIP3    H179232   0.052   1.150  17.156  0.7177  1.8506  0.8631
19247TIP3    H279233   0.176   1.065  17.170 -0.8888 -0.9128 -0.6629
19248TIP3   OH279234   5.533   0.971   0.689  0.0452 -0.1586 -0.3547
19248TIP3    H179235   5.525   1.010   0.602  0.7853  0.1655 -0.2902
19248TIP3    H279236   5.485   1.030   0.747 -0.0519 -0.1218 -0.4727
19249TIP3   OH279237   4.977   4.472   4.802  0.4209  0.2815 -0.2600
19249TIP3    H179238   4.998   4.511   4.887  2.0344 -0.7201 -0.1506
19249TIP3    H279239   5.062   4.457   4.761 -0.1247 -2.3888 -0.6006
19250TIP3   OH279240   0.679   0.278  12.534 -0.1028 -0.7211  0.3236
19250TIP3    H179241   0.728   0.339  12.479 -0.0442 -0.4539  0.6703
19250TIP3    H279242   0.726   0.279  12.618  0.0233 -1.4020  0.2637
19251TIP3   OH279243   0.390   6.598   4.881 -0.4233  0.1572  0.4934
19251TIP3    H179244   0.439   6.663   4.931  0.0418 -0.1949  0.4991
19251TIP3    H279245   0.307   6.589   4.929  0.4961 -1.0914  1.9311
19252TIP3   OH279246   5.134   3.398  13.025  0.2424 -0.2922  0.4398
19252TIP3    H179247   5.061   3.392  13.087  0.1967  0.0166  0.4180
19252TIP3    H279248   5.108   3.343  12.951 -0.1615  0.1505  0.2432
19253TIP3   OH279249   3.773   2.852  16.164 -0.0077 -0.1236  0.6517
19253TIP3    H179250   3.863   2.821  16.171  0.0689 -0.5402 -1.4277
19253TIP3    H279251   3.727   2.780  16.119 -1.4112  0.0337  1.7798
19254TIP3   OH279252   5.911   5.981  12.730 -0.1968  0.3987 -0.2532
19254TIP3    H179253   5.957   6.052  12.774  1.7876 -0.2364 -1.1701
19254TIP3    H279254   5.911   6.007  12.637 -1.0570  0.0281 -0.3656
19255TIP3   OH279255   6.460   3.960   4.883 -0.0107 -0.5559  0.2331
19255TIP3    H179256   6.485   3.930   4.971  0.0477 -1.1577  0.0148
19255TIP3    H279257   6.370   3.929   4.872 -0.4728  0.6098  0.5646
19256TIP3   OH279258   2.768   6.283  17.194 -0.1301  0.7366  0.6154
19256TIP3    H179259   2.811   6.267  17.110  1.2315  1.9962  1.0336
19256TIP3    H279260   2.756   6.196  17.232  0.0457  0.2120 -0.4761
19257TIP3   OH279261   1.855   2.425  15.873  0.1042 -0.3773 -0.5640
19257TIP3    H179262   1.877   2.428  15.779  0.6054  2.3049 -0.4576
19257TIP3    H279263   1.768   2.464  15.878  0.0243 -0.6383  0.0874
19258TIP3   OH279264   1.574   4.392   6.061  0.9166 -0.2584  0.2577
19258TIP3    H179265   1.560   4.433   5.976  1.1345  0.3774  0.5213
19258TIP3    H279266   1.650   4.437   6.098 -0.3521  0.8971  1.6215
19259TIP3   OH279267   0.985   1.392  10.753 -0.2535 -0.3868  0.2163
19259TIP3    H179268   0.963   1.391  10.659  1.0250 -0.8260 -0.0982
19259TIP3    H279269   0.913   1.439  10.794 -1.9285 -2.0086 -0.7041
19260TIP3   OH279270   2.252   6.792   2.000  0.0570 -0.4758  0.1680
19260TIP3    H179271   2.207   6.855   1.943  1.0966  1.2872  1.2097
19260TIP3    H279272   2.316   6.750   1.944  0.1080  0.2093 -0.2992
19261TIP3   OH279273   1.556   3.423   0.369  0.0362 -0.3896 -0.0469
19261TIP3    H179274   1.491   3.381   0.426  1.6734 -1.5541  1.0899
19261TIP3    H279275   1.625   3.357   0.359  1.5635  1.1604 -0.2627
19262TIP3   OH279276   4.152   1.211   4.451  0.2566  0.3687  0.0934
19262TIP3    H179277   4.189   1.128   4.420  0.5890  0.7611 -0.5876
19262TIP3    H279278   4.229   1.267   4.465  0.0696  0.3662  1.1320
19263TIP3   OH279279   3.890   2.980  14.489  0.1682 -0.2024 -0.4121
19263TIP3    H179280   3.819   3.032  14.528  1.2462 -0.6895  2.4136
19263TIP3    H279281   3.844   2.913  14.438 -1.4877 -0.6719  1.5421
19264TIP3   OH279282   4.965   3.826   6.536  0.1764 -0.2211  0.4885
19264TIP3    H179283   5.015   3.885   6.593 -0.5587  1.3845 -0.4558
19264TIP3    H279284   4.999   3.843   6.449 -0.0517 -1.2233  0.1938
19265TIP3   OH279285   1.752   3.036   6.829  0.0068 -0.6059 -0.1297
19265TIP3    H179286   1.795   3.072   6.906 -1.4116  1.7033 -0.3447
19265TIP3    H279287   1.663   3.014   6.859 -0.3261 -0.3702 -0.9282
19266TIP3   OH279288   3.335   5.659   0.475  0.1986 -0.3082  0.3331
19266TIP3    H179289   3.334   5.672   0.570  1.3946 -1.2675  0.5132
19266TIP3    H279290   3.287   5.578   0.461  0.0168 -0.1636  0.1181
19267TIP3   OH279291   2.367   3.495   0.261 -0.1139  0.0102  0.1970
19267TIP3    H179292   2.458   3.469   0.273  0.7451  0.5328 -3.8170
19267TIP3    H279293   2.352   3.563   0.326  3.4788  2.2530 -1.0667
19268TIP3   OH279294   2.914   5.116  14.470  0.5826 -0.4956  0.9034
19268TIP3    H179295   2.843   5.179  14.477 -0.0705 -1.1496  0.3010
19268TIP3    H279296   2.979   5.146  14.534  0.4943  1.0427  0.3062
19269TIP3   OH279297   0.973   0.510   5.596  0.2671  0.3007  0.4343
19269TIP3    H179298   1.032   0.576   5.634 -0.0098  1.0298 -0.3691
19269TIP3    H279299   1.016   0.483   5.515 -0.7684  1.3138 -0.4966
19270TIP3   OH279300   0.542   2.541   5.121 -0.2619  0.3682 -0.3867
19270TIP3    H179301   0.575   2.629   5.141 -0.9324  0.7914 -1.0578
19270TIP3    H279302   0.585   2.517   5.039  0.2602 -0.1186  0.0316
19271TIP3   OH279303   1.364   1.455   3.031 -0.1394  0.3312  0.7499
19271TIP3    H179304   1.430   1.507   2.985 -1.3528  0.0360 -1.5021
19271TIP3    H279305   1.413   1.382   3.069  0.9055  0.2838 -0.6104
19272TIP3   OH279306   3.933   6.585  17.033 -0.4942  0.6930  0.3136
19272TIP3    H179307   3.855   6.642  17.029 -0.3065  0.9203 -0.2485
19272TIP3    H279308   3.997   6.630  16.977 -0.2947 -0.0030 -0.0199
19273TIP3   OH279309   5.326   0.454  14.533 -0.3041 -0.0593  0.2719
19273TIP3    H179310   5.306   0.361  14.535  0.2519 -0.3278 -2.5494
19273TIP3    H279311   5.245   0.497  14.561 -1.3365 -1.3466 -0.6351
19274TIP3   OH279312   6.072   0.888   2.264  0.0441 -0.2189  0.0839
19274TIP3    H179313   6.073   0.880   2.168  1.2214  2.1622 -0.1870
19274TIP3    H279314   6.162   0.911   2.286 -0.8738  2.5945  1.3488
19275TIP3   OH279315   4.903   4.975  12.667 -0.4448  0.0668  0.0298
19275TIP3    H179316   4.968   4.905  12.672 -0.6768 -0.4567 -2.7724
19275TIP3    H279317   4.944   5.049  12.713  0.3554 -1.4554  1.8753
19276TIP3   OH279318   1.507   6.377  11.443 -0.0655 -0.3732  0.1130
19276TIP3    H179319   1.569   6.304  11.437 -0.4852 -0.6516 -1.4930
19276TIP3    H279320   1.426   6.337  11.475 -0.4076 -0.7315 -1.1266
19277TIP3   OH279321   4.921   5.698  11.488  0.5619  0.5284  0.1194
19277TIP3    H179322   4.827   5.705  11.476  0.1448 -2.0594  1.1748
19277TIP3    H279323   4.957   5.695  11.400 -0.4625  0.3726 -0.3074
19278TIP3   OH279324   0.339   4.292  16.101 -0.6323 -0.4287  0.1531
19278TIP3    H179325   0.369   4.316  16.013 -0.8564  0.0997  0.2160
19278TIP3    H279326   0.353   4.197  16.106 -1.6323 -0.6591 -0.8635
19279TIP3   OH279327   4.152   2.159   6.687 -0.3614 -0.2106 -0.2186
19279TIP3    H179328   4.185   2.070   6.675  0.0184  0.1942 -2.7744
19279TIP3    H279329   4.228   2.210   6.714 -0.0921 -0.2821 -0.8341
19280TIP3   OH279330   2.504   6.815   4.977  0.1672  0.1608  0.4657
19280TIP3    H179331   2.439   6.758   5.019 -3.3833  1.6531 -2.5195
19280TIP3    H279332   2.556   6.755   4.924  1.0228 -0.9996  2.4710
19281TIP3   OH279333   1.475   3.838   5.286  0.2199 -0.1486  1.0103
19281TIP3    H179334   1.486   3.887   5.205 -0.8394 -0.7972  0.4481
19281TIP3    H279335   1.382   3.842   5.305  0.3155 -0.7959  1.6884
19282TIP3   OH279336   2.380   2.074  11.784  0.3658 -0.3787 -0.2442
19282TIP3    H179337   2.376   2.066  11.879  0.3437  0.1351 -0.1984
19282TIP3    H279338   2.466   2.042  11.760  0.3907 -0.4602 -0.0446
19283TIP3   OH279339   4.402   5.699   3.634  0.5330 -0.1972 -0.0039
19283TIP3    H179340   4.381   5.674   3.543  2.8625  0.6038 -0.8283
19283TIP3    H279341   4.340   5.768   3.655  2.7291  2.9130 -2.7451
19284TIP3   OH279342   4.496   2.853   2.071 -0.9733  0.1429 -0.8001
19284TIP3    H179343   4.579   2.839   2.116 -0.7176  0.5133 -1.1555
19284TIP3    H279344   4.484   2.774   2.017 -1.1326 -0.1653 -0.3178
19285TIP3   OH279345   2.699   2.632  12.937  0.2930  0.5336  0.0814
19285TIP3    H179346   2.751   2.552  12.947  0.9364  0.7846 -1.1553
19285TIP3    H279347   2.688   2.664  13.027  1.2267 -0.1837  0.4720
19286TIP3   OH279348   1.240   1.867  13.055  0.5250  0.1657 -0.3185
19286TIP3    H179349   1.231   1.949  13.006 -1.3813 -0.1229 -0.5103
19286TIP3    H279350   1.150   1.838  13.069  1.1642 -1.6623  0.1574
19287TIP3   OH279351   0.433   2.402   1.442 -0.1859  0.1899 -0.1089
19287TIP3    H179352   0.498   2.448   1.389  0.7002 -0.3720  0.4681
19287TIP3    H279353   0.349   2.432   1.408  0.3700  0.7960 -0.9876
19288TIP3   OH279354   3.399   0.112  12.997  0.0747 -0.1209 -0.0231
19288TIP3    H179355   3.432   0.023  13.007  0.9619  0.3314  1.4922
19288TIP3    H279356   3.478   0.165  12.981 -0.2484  0.5949  0.6875
19289TIP3   OH279357   6.512   2.519   2.774  0.4068 -0.4013 -0.2166
19289TIP3    H179358   6.537   2.429   2.755 -1.9137 -1.5166  1.4260
19289TIP3    H279359   6.418   2.522   2.757 -0.1137  0.8836  2.3329
19290TIP3   OH279360   5.289   4.012  16.427  0.8596 -0.3092 -0.4117
19290TIP3    H179361   5.361   3.949  16.419  0.6934 -0.5849  0.1865
19290TIP3    H279362   5.227   3.970  16.487  0.5244  0.2208 -0.3816
19291TIP3   OH279363   5.632   2.214   3.404  0.0310  0.1256  0.1954
19291TIP3    H179364   5.699   2.281   3.392 -1.1846  1.3715  0.1119
19291TIP3    H279365   5.648   2.179   3.491  0.2331  1.0845  0.5623
19292TIP3   OH279366   5.774   5.238  13.291 -0.3449 -0.6146  0.4714
19292TIP3    H179367   5.730   5.279  13.366  0.4466  0.1353  0.5361
19292TIP3    H279368   5.821   5.164  13.329 -0.4908 -0.6396  0.6072
19293TIP3   OH279369   4.518   3.080   6.510 -0.4421 -0.0783  0.3294
19293TIP3    H179370   4.509   2.998   6.558 -0.0835 -0.0980  0.3618
19293TIP3    H279371   4.460   3.141   6.556 -2.4792 -0.8880 -1.0119
19294TIP3   OH279372   6.575   5.890   1.006 -0.1205 -0.3026 -0.0947
19294TIP3    H179373   6.623   5.832   1.066 -1.0123 -0.9936 -0.0413
19294TIP3    H279374   6.518   5.941   1.064 -0.3771 -0.3772 -0.2849
19295TIP3   OH279375   4.021   2.161   4.494 -0.1825 -0.1636  0.3834
19295TIP3    H179376   3.952   2.226   4.507 -0.5344 -0.7706  1.6339
19295TIP3    H279377   4.094   2.192   4.547 -0.2263 -0.5949  0.7027
19296TIP3   OH279378   2.519   5.249  16.383  1.0521  0.3779 -0.4530
19296TIP3    H179379   2.500   5.272  16.292  1.4703  1.0260 -0.3862
19296TIP3    H279380   2.461   5.305  16.435 -1.3404 -2.0300 -0.3204
19297TIP3   OH279381   2.639   5.585  11.633 -0.2848  0.1862 -0.2982
19297TIP3    H179382   2.594   5.502  11.624  1.4891 -1.2626  2.6949
19297TIP3    H279383   2.695   5.591  11.556 -1.3185 -0.7641 -1.1494
19298TIP3   OH279384   3.370   6.559  14.788 -0.5408 -0.1749  0.2097
19298TIP3    H179385   3.318   6.596  14.716 -0.5191 -1.6529 -0.5921
19298TIP3    H279386   3.306   6.511  14.841  0.0796 -3.0685 -1.4661
19299TIP3   OH279387   0.623   1.490  14.388 -0.8538 -0.5827  0.0298
19299TIP3    H179388   0.705   1.520  14.348 -0.5267 -0.8436  0.4947
19299TIP3    H279389   0.572   1.455  14.315 -0.4632 -0.6078 -0.2315
19300TIP3   OH279390   4.165   6.601   1.526 -0.4949  0.3884  0.3945
19300TIP3    H179391   4.182   6.695   1.531 -1.1147  0.5647 -0.5615
19300TIP3    H279392   4.244   6.560   1.562  1.0892  1.2118 -1.9682
19301TIP3   OH279393   3.005   0.148  17.128  0.2948  0.0044 -0.4187
19301TIP3    H179394   3.014   0.188  17.215  0.9718 -1.0020 -0.0071
19301TIP3    H279395   2.936   0.199  17.085 -1.6763 -0.8402  1.5302
19302TIP3   OH279396   4.316   6.616  14.771  0.0259  0.0003  0.1525
19302TIP3    H179397   4.328   6.580  14.859  0.5658  0.7830  0.4099
19302TIP3    H279398   4.223   6.640  14.767 -0.0842 -0.3862  0.3695
19303TIP3   OH279399   0.252   0.310  12.228 -0.2938  0.1713  0.2057
19303TIP3    H179400   0.345   0.332  12.239 -0.5879  1.4549  0.2555
19303TIP3    H279401   0.208   0.359  12.298 -0.8932 -1.4911  1.0479
19304TIP3   OH279402   4.494   6.461  16.923  0.4403  0.9496  0.6124
19304TIP3    H179403   4.543   6.461  17.005  1.4025 -1.3466  0.1067
19304TIP3    H279404   4.547   6.513  16.862  1.0467  0.4670  0.7276
19305TIP3   OH279405   3.559   0.055   1.719  0.1880  0.5039 -0.7916
19305TIP3    H179406   3.570  -0.009   1.649 -0.7464 -1.0270  0.3920
19305TIP3    H279407   3.615   0.022   1.790 -1.4102  0.1407  0.3582
19306TIP3   OH279408   5.412   3.739   5.102  0.0237 -0.4224  0.5984
19306TIP3    H179409   5.364   3.803   5.051 -1.4651  1.3082  3.8587
19306TIP3    H279410   5.503   3.747   5.072 -0.4944  1.7054 -0.5356
19307TIP3   OH279411   4.550   2.602  13.737  0.5577 -0.1171  0.4859
19307TIP3    H179412   4.499   2.659  13.680  0.0996 -1.2066 -0.2197
19307TIP3    H279413   4.556   2.519  13.689  1.1466 -0.6906  1.5182
19308TIP3   OH279414   1.014   0.878   5.543 -0.8575 -0.4600 -0.6514
19308TIP3    H179415   1.010   0.852   5.452  0.9304  0.1886 -0.9688
19308TIP3    H279416   1.001   0.797   5.593  0.1125 -1.1744 -1.5230
19309TIP3   OH279417   6.599   4.683   1.502 -0.1745  0.2329  0.4625
19309TIP3    H179418   6.520   4.706   1.551  1.0277  0.6161  2.2932
19309TIP3    H279419   6.651   4.631   1.563  1.2741  0.5005 -0.4927
19310TIP3   OH279420   1.628   5.707  14.294 -0.2893 -0.2617  0.3151
19310TIP3    H179421   1.559   5.760  14.254  1.7472  1.6175 -0.9656
19310TIP3    H279422   1.635   5.740  14.384 -1.8974 -1.4145  0.9078
19311TIP3   OH279423   6.603   0.633   3.269 -0.4294  0.0546  0.1977
19311TIP3    H179424   6.684   0.630   3.319 -0.0938 -0.0031 -0.3338
19311TIP3    H279425   6.600   0.548   3.225  0.6263  1.0319 -1.9195
19312TIP3   OH279426   0.239   2.942   5.150  0.5235 -0.4352  0.4635
19312TIP3    H179427   0.208   2.991   5.074  1.6736 -1.2163 -0.5478
19312TIP3    H279428   0.294   3.004   5.198  0.3995 -0.1639  0.2586
19313TIP3   OH279429   2.055   2.604  16.427  0.0402  0.1587  0.0374
19313TIP3    H179430   1.971   2.637  16.459  0.7323  2.6058 -0.4347
19313TIP3    H279431   2.077   2.662  16.354  2.1034 -0.4698  0.1032
19314TIP3   OH279432   2.457   4.185  14.279 -0.1077 -0.0750  0.6082
19314TIP3    H179433   2.533   4.217  14.327 -1.1168  0.8848  1.6076
19314TIP3    H279434   2.383   4.196  14.339 -1.5952  2.0905 -1.4619
19315TIP3   OH279435   0.401   1.977  14.980 -0.3718 -0.3632  0.1412
19315TIP3    H179436   0.409   1.909  15.047 -1.4352 -2.0949 -1.3906
19315TIP3    H279437   0.314   2.014  14.993 -1.2614 -1.8347 -1.1909
19316TIP3   OH279438   0.884   5.743  16.199  0.6872 -0.3845 -0.0994
19316TIP3    H179439   0.799   5.774  16.229  1.8666  1.9458  1.0593
19316TIP3    H279440   0.870   5.718  16.108 -1.1580  0.2549 -0.0268
19317TIP3   OH279441   5.584   3.266  10.994  0.1931 -0.3886  0.2952
19317TIP3    H179442   5.588   3.183  11.042 -1.5226 -0.4763  0.3183
19317TIP3    H279443   5.503   3.261  10.944  0.4187  0.9997 -0.2445
19318TIP3   OH279444   2.820   6.819   1.847 -0.3008  0.5849 -0.1052
19318TIP3    H179445   2.750   6.875   1.815 -0.8532  0.4996  0.8961
19318TIP3    H279446   2.865   6.872   1.913  1.4405  1.1238 -1.6748
19319TIP3   OH279447   4.172   3.616  15.806  0.2871 -0.4013 -0.0497
19319TIP3    H179448   4.250   3.583  15.761  0.0090 -0.8997 -0.1761
19319TIP3    H279449   4.172   3.570  15.890 -0.1403 -0.7901 -0.2544
19320TIP3   OH279450   0.890   4.958   1.486 -0.4518  0.3387 -0.1679
19320TIP3    H179451   0.906   4.950   1.580  1.9837  0.0867 -0.5503
19320TIP3    H279452   0.799   4.931   1.475 -0.5691 -0.3371  2.0154
19321TIP3   OH279453   2.414   5.446  14.449 -0.1911 -0.0229  0.0201
19321TIP3    H179454   2.466   5.370  14.478  1.0602  0.3564 -1.1116
19321TIP3    H279455   2.468   5.522  14.472 -1.1085  0.4962  0.4930
19322TIP3   OH279456   5.254   6.627   1.893 -0.3613 -0.2119 -0.4798
19322TIP3    H179457   5.288   6.570   1.824  0.5829  0.8931 -0.9626
19322TIP3    H279458   5.303   6.602   1.971  0.1412  0.0180 -0.7194
19323TIP3   OH279459   0.653   6.255   4.169 -0.2441  0.8356  0.2258
19323TIP3    H179460   0.692   6.331   4.125 -0.0278 -0.4493 -1.9455
19323TIP3    H279461   0.728   6.210   4.208 -0.2154  1.0617  0.4356
19324TIP3   OH279462   5.953   5.267  14.662  0.3291 -0.3786  0.2736
19324TIP3    H179463   6.034   5.297  14.620  0.9442 -1.5603  0.5664
19324TIP3    H279464   5.887   5.330  14.633  1.0874 -0.1365 -1.0383
19325TIP3   OH279465   1.746   3.174  14.542  0.3032 -0.7609  0.3130
19325TIP3    H179466   1.813   3.110  14.567  0.5567 -0.6128  0.0215
19325TIP3    H279467   1.671   3.121  14.517 -0.0277 -0.9154  1.5410
19326TIP3   OH279468   4.108   6.725  15.439  0.4647  0.4036 -0.0126
19326TIP3    H179469   4.041   6.657  15.429  0.7077  0.0457  0.7143
19326TIP3    H279470   4.079   6.796  15.381  1.3448 -1.1540 -2.4950
19327TIP3   OH279471   5.590   3.078   0.032  0.0028 -0.2853  0.0797
19327TIP3    H179472   5.561   3.167   0.054  1.3343  0.8559 -2.3599
19327TIP3    H279473   5.509   3.028   0.021 -0.7715  0.6481  1.2740
19328TIP3   OH279474   6.313   3.247  16.784  0.1746  0.3410  0.4137
19328TIP3    H179475   6.336   3.302  16.709 -0.3882  3.7007  2.5442
19328TIP3    H279476   6.394   3.201  16.806  1.3774  2.1832  0.0096
19329TIP3   OH279477   2.488   1.418   2.994  0.1262  0.4977  0.2933
19329TIP3    H179478   2.503   1.391   2.903 -0.8207 -1.2767  0.6240
19329TIP3    H279479   2.502   1.513   2.993  3.6857  0.0956 -0.9224
19330TIP3   OH279480   3.921   3.407   0.769  0.4275  0.7376 -0.6125
19330TIP3    H179481   3.957   3.364   0.691 -0.1625 -1.6872  0.3548
19330TIP3    H279482   3.986   3.392   0.837 -1.2648 -1.8388  0.6171
19331TIP3   OH279483   6.717   2.545   1.891 -0.0709 -0.1585  0.2998
19331TIP3    H179484   6.761   2.609   1.948  0.7014  0.6374 -1.1266
19331TIP3    H279485   6.627   2.541   1.924 -0.1476  1.7019  0.4220
19332TIP3   OH279486   6.542   4.944   1.973  0.2101  0.4069  0.0220
19332TIP3    H179487   6.509   4.942   2.063 -1.3897  1.5715 -0.4769
19332TIP3    H279488   6.596   5.023   1.970  0.9444 -0.0850  0.1630
19333TIP3   OH279489   1.972   5.553  15.811 -0.4569 -0.3109  0.0551
19333TIP3    H179490   2.056   5.543  15.856 -0.5308  1.6620  0.7453
19333TIP3    H279491   1.990   5.533  15.720  1.1894  1.6508 -0.1185
19334TIP3   OH279492   2.550   0.926  13.697 -0.1754  0.4132  0.2247
19334TIP3    H179493   2.551   0.954  13.788 -3.8071 -0.7400  0.7840
19334TIP3    H279494   2.567   1.005  13.647 -0.1301  1.4793  1.8564
19335TIP3   OH279495   5.649   1.092  16.702  0.6361  0.1781  0.4824
19335TIP3    H179496   5.739   1.077  16.674 -0.7039 -0.6299 -4.4997
19335TIP3    H279497   5.631   1.183  16.678 -0.2058 -0.0688  0.1111
19336TIP3   OH279498   1.371   2.186   0.671 -0.5923 -0.1332 -0.3892
19336TIP3    H179499   1.384   2.271   0.629  1.4848 -0.5107 -0.6110
19336TIP3    H279500   1.360   2.206   0.764 -4.3109  0.6370 -0.8507
19337TIP3   OH279501   2.503   5.555   1.324  0.3178  0.6446 -0.1119
19337TIP3    H179502   2.461   5.540   1.240  0.4588  0.9757 -0.2453
19337TIP3    H279503   2.440   5.609   1.373  0.1240  0.2363  0.0946
19338TIP3   OH279504   1.970   6.440   0.779 -0.1888  0.8398 -0.3842
19338TIP3    H179505   2.057   6.411   0.751 -1.3044 -0.9950 -2.2998
19338TIP3    H279506   1.956   6.393   0.862 -0.5447 -1.4930 -1.6732
19339TIP3   OH279507   2.493   0.192  11.342 -0.0846  0.2363  0.0499
19339TIP3    H179508   2.398   0.205  11.339  0.0643  1.6167  0.5617
19339TIP3    H279509   2.511   0.166  11.432 -0.0244 -0.5750 -0.1884
19340TIP3   OH279510   0.585   3.690  11.994  0.0334  0.2162  0.2166
19340TIP3    H179511   0.562   3.632  11.922  2.5040  0.1210 -0.5652
19340TIP3    H279512   0.679   3.702  11.987  0.1724  1.2248  2.6986
19341TIP3   OH279513   4.936   2.698   1.799  0.9326  0.6307 -0.0808
19341TIP3    H179514   4.898   2.652   1.724  1.2326  0.8469 -0.3706
19341TIP3    H279515   5.020   2.655   1.814  1.7707  1.8153 -1.1107
19342TIP3   OH279516   2.654   3.716  16.959 -0.4258 -0.0606 -0.3656
19342TIP3    H179517   2.668   3.624  16.937  0.9988  0.3364 -1.2032
19342TIP3    H279518   2.596   3.749  16.890  0.9551  0.2226 -1.4427
19343TIP3   OH279519   2.919   0.311   5.083  0.1218 -0.3942  0.4119
19343TIP3    H179520   2.920   0.318   5.179  0.9384  1.6242  0.2985
19343TIP3    H279521   2.842   0.359   5.055 -0.7520 -1.9188  0.0555
19344TIP3   OH279522   4.421   5.792   1.958 -0.1517  0.1208 -0.2720
19344TIP3    H179523   4.500   5.824   2.000  0.2411 -0.3498 -0.6388
19344TIP3    H279524   4.432   5.813   1.866 -0.8441  0.8200 -0.2026
19345TIP3   OH279525   4.842   1.825  15.512 -0.6384 -0.1127 -0.2571
19345TIP3    H179526   4.825   1.794  15.423 -0.8253 -1.9797  0.3871
19345TIP3    H279527   4.867   1.747  15.560  0.0137  0.9612  1.2159
19346TIP3   OH279528   2.019   2.714  13.236  0.4558  0.0777 -0.4469
19346TIP3    H179529   2.002   2.627  13.272  1.4639 -0.4052 -1.0874
19346TIP3    H279530   2.092   2.748  13.289 -0.5289  0.9361  0.4090
19347TIP3   OH279531   3.189   1.299  15.875 -0.4404 -0.6384 -0.5369
19347TIP3    H179532   3.209   1.249  15.954  0.1130  0.9859  0.3908
19347TIP3    H279533   3.265   1.284  15.818  0.2914  0.1138  0.2306
19348TIP3   OH279534   2.821   5.689  14.371  0.2657  0.2023 -0.3390
19348TIP3    H179535   2.743   5.670  14.319  0.9363 -0.7286 -1.0354
19348TIP3    H279536   2.798   5.767  14.422 -0.5433  0.8905 -1.7174
19349TIP3   OH279537   2.183   0.429  16.181  0.0405  0.2795  0.1366
19349TIP3    H179538   2.143   0.516  16.185  0.9546  0.7999 -1.3473
19349TIP3    H279539   2.249   0.435  16.112 -0.9867 -2.0450 -1.1742
19350TIP3   OH279540   5.589   2.312  13.995  0.0696 -0.0518  0.2763
19350TIP3    H179541   5.681   2.307  13.971  0.0972  0.1070  0.3523
19350TIP3    H279542   5.580   2.395  14.043 -0.0743 -0.1546  0.4297
19351TIP3   OH279543   2.311   4.694  14.664 -0.1999 -0.0372  0.0866
19351TIP3    H179544   2.336   4.605  14.689 -0.0602  0.1688  0.6774
19351TIP3    H279545   2.216   4.694  14.668 -0.1948 -0.1234  0.2146
19352TIP3   OH279546   4.263   1.938   0.863  0.1387 -0.2232  0.3204
19352TIP3    H179547   4.230   1.899   0.782  2.4401 -0.3792 -0.6178
19352TIP3    H279548   4.291   2.026   0.838 -0.7271  0.3856  1.3783
19353TIP3   OH279549   6.593   2.865   4.410  0.1729 -0.0325 -0.0010
19353TIP3    H179550   6.636   2.808   4.473 -0.4410 -0.1672  0.3082
19353TIP3    H279551   6.553   2.804   4.346  0.2301  0.0781 -0.1430
19354TIP3   OH279552   0.099   0.854   0.316 -0.1257  0.1729 -0.0895
19354TIP3    H179553   0.069   0.945   0.313  0.6198  0.4043 -2.6671
19354TIP3    H279554   0.018   0.803   0.313 -0.4908  0.7921 -2.6865
19355TIP3   OH279555   3.074   5.992   5.397  0.2985  0.6155  0.6726
19355TIP3    H179556   3.012   5.932   5.439  0.9772 -1.0748 -0.6108
19355TIP3    H279557   3.070   6.071   5.450 -0.3573 -0.6920  2.7032
19356TIP3   OH279558   3.897   4.415  13.872 -0.3229  0.2367 -0.3174
19356TIP3    H179559   3.864   4.502  13.849 -0.2035  1.2283  2.8188
19356TIP3    H279560   3.897   4.413  13.968 -0.3579 -3.2676 -0.2408
19357TIP3   OH279561   2.628   1.523  14.205  0.1587 -0.0573 -0.1086
19357TIP3    H179562   2.573   1.453  14.170 -0.1999  0.5919 -0.8796
19357TIP3    H279563   2.576   1.565  14.273 -0.3490  0.5980 -0.8811
19358TIP3   OH279564   3.602   6.461  17.190 -0.6077  0.2323  0.2106
19358TIP3    H179565   3.527   6.496  17.141 -0.4717  0.4822  0.1741
19358TIP3    H279566   3.565   6.396  17.249 -0.5545 -1.5089 -1.5734
19359TIP3   OH279567   2.457   1.083   4.268  0.2421  0.3968 -0.0948
19359TIP3    H179568   2.399   1.007   4.277  0.0988  0.5521  0.3468
19359TIP3    H279569   2.434   1.121   4.184 -1.1041  1.1030  0.5576
19360TIP3   OH279570   0.209   1.966  12.999  0.3816  0.5648 -0.6621
19360TIP3    H179571   0.152   1.934  12.928 -1.7339  1.5242  0.4955
19360TIP3    H279572   0.217   1.891  13.058 -0.6580  0.7292 -0.2850
19361TIP3   OH279573   1.959   0.797  17.125 -0.1593 -0.6128  0.2538
19361TIP3    H179574   1.868   0.769  17.128 -0.0375 -0.9522  0.8670
19361TIP3    H279575   1.957   0.881  17.080 -0.5727 -1.4171 -1.3058
19362TIP3   OH279576   3.421   2.528   5.773 -0.6118 -0.0586 -0.7299
19362TIP3    H179577   3.464   2.562   5.695  0.2075 -1.0895 -0.7421
19362TIP3    H279578   3.455   2.439   5.783 -0.7582  0.0309  0.7575
19363TIP3   OH279579   1.770   3.836  12.453  0.6578  0.2014  0.5898
19363TIP3    H179580   1.711   3.811  12.524  1.8105 -2.3878  0.7263
19363TIP3    H279581   1.743   3.782  12.379  2.1680 -0.2816  0.3584
19364TIP3   OH279582   2.746   2.470  13.485  0.6233 -0.8922 -0.2266
19364TIP3    H179583   2.675   2.513  13.533  0.1930 -2.2716  0.4305
19364TIP3    H279584   2.754   2.520  13.404 -0.5169 -0.1822  0.0768
19365TIP3   OH279585   5.136   0.020   1.731 -0.4038 -0.2638 -0.0924
19365TIP3    H179586   5.053   0.057   1.759 -0.7301  0.0122 -1.3843
19365TIP3    H279587   5.162  -0.039   1.803  0.0408  2.2636  1.9560
19366TIP3   OH279588   3.952   3.639   2.913  0.0888  0.2441  0.2275
19366TIP3    H179589   3.917   3.626   2.825 -0.0981  0.1947  0.3083
19366TIP3    H279590   4.039   3.600   2.910  0.1958  0.4971 -0.0175
19367TIP3   OH279591   1.989   4.959  14.396  0.4760  0.4131  0.8530
19367TIP3    H179592   2.034   4.875  14.397 -0.6519 -0.1998  0.7940
19367TIP3    H279593   1.986   4.983  14.303 -1.4186 -0.7158  0.5812
19368TIP3   OH279594   3.616   0.898  15.477  0.1916 -0.2797 -0.0256
19368TIP3    H179595   3.600   0.832  15.409  2.3027  2.8882 -4.0109
19368TIP3    H279596   3.710   0.890  15.495  0.2753  0.9901  0.1428
19369TIP3   OH279597   6.031   1.132   5.366 -0.3435 -0.1768 -0.5687
19369TIP3    H179598   5.994   1.087   5.290 -1.0199 -0.4190 -0.1060
19369TIP3    H279599   6.034   1.065   5.434  1.5516 -0.3406 -0.7571
19370TIP3   OH279600   6.470   2.829   4.795 -0.2453  0.6678  0.4674
19370TIP3    H179601   6.489   2.867   4.709 -0.2036  0.8802  0.5681
19370TIP3    H279602   6.543   2.858   4.850  0.1067 -0.0633  0.4018
19371TIP3   OH279603   4.886   4.483   3.209  0.0672 -0.5509 -0.2840
19371TIP3    H179604   4.862   4.512   3.121 -0.6946 -0.3974 -0.0319
19371TIP3    H279605   4.855   4.552   3.267 -1.6799 -1.7590  0.3141
19372TIP3   OH279606   6.796   0.505   6.006  0.1070  0.4819 -0.1078
19372TIP3    H179607   6.765   0.577   5.951 -2.7334 -0.4473  0.1077
19372TIP3    H279608   6.837   0.444   5.944  3.0527  2.4012 -0.2220
19373TIP3   OH279609   3.761   0.209   1.979 -0.2800  0.1215 -0.1856
19373TIP3    H179610   3.786   0.117   1.989 -1.1785 -0.1651 -0.4751
19373TIP3    H279611   3.666   0.207   1.964 -0.1040  0.9856 -1.6615
19374TIP3   OH279612   2.660   6.112   3.302  0.4456 -0.2112  0.2786
19374TIP3    H179613   2.625   6.193   3.264 -0.2287 -0.3879  0.5004
19374TIP3    H279614   2.600   6.092   3.374  0.3033 -1.1761 -0.0925
19375TIP3   OH279615   1.667   5.539  15.629  0.0431 -0.4061  0.2300
19375TIP3    H179616   1.639   5.448  15.636  1.2169 -0.7986  0.1236
19375TIP3    H279617   1.620   5.574  15.553 -0.9716 -0.7005  0.7163
19376TIP3   OH279618   3.548   2.167   2.826  0.6128  0.0921  0.4099
19376TIP3    H179619   3.573   2.151   2.917  0.9158  0.1923  0.3454
19376TIP3    H279620   3.464   2.211   2.831  1.1114  1.0404  0.6801
19377TIP3   OH279621   1.474   0.710   3.916 -0.1781 -0.0599  0.5115
19377TIP3    H179622   1.484   0.720   3.821 -0.7707 -0.9130  0.3481
19377TIP3    H279623   1.459   0.799   3.948 -0.6989  0.1557 -0.2923
19378TIP3   OH279624   2.812   6.353   1.875  0.0851 -0.2553 -0.2154
19378TIP3    H179625   2.748   6.363   1.945 -0.1511 -1.4958 -0.2273
19378TIP3    H279626   2.762   6.315   1.802  0.2057  1.4738 -1.2632
19379TIP3   OH279627   5.361   5.196   3.288 -0.6949 -0.1938 -0.7076
19379TIP3    H179628   5.389   5.288   3.286  0.5177 -0.5088  0.2059
19379TIP3    H279629   5.267   5.199   3.273 -0.9855  1.3543  1.0375
19380TIP3   OH279630   3.203   0.175   2.347 -0.1371  0.2804  0.3878
19380TIP3    H179631   3.211   0.082   2.326 -0.4478  0.3863 -0.2199
19380TIP3    H279632   3.128   0.180   2.407 -0.8110  0.2531 -0.4250
19381TIP3   OH279633   6.203   5.041  10.566  0.0587  0.5581  0.1314
19381TIP3    H179634   6.230   5.130  10.542 -0.7432  0.4964 -1.0391
19381TIP3    H279635   6.122   5.053  10.616 -0.1015  0.4719 -0.1109
19382TIP3   OH279636   2.322   2.861   2.724  0.2652 -0.3587 -0.3645
19382TIP3    H179637   2.252   2.858   2.658  1.0660 -1.0081 -1.2047
19382TIP3    H279638   2.321   2.774   2.764  1.6534 -0.9475 -1.5343
19383TIP3   OH279639   0.459   6.178  16.103 -0.3863 -0.7118  0.0062
19383TIP3    H179640   0.539   6.217  16.069 -0.5694  0.0506  0.4175
19383TIP3    H279641   0.411   6.252  16.140 -2.4259 -0.7057 -2.3818
19384TIP3   OH279642   6.398   2.096  14.511  0.7523  0.1628  0.3613
19384TIP3    H179643   6.328   2.159  14.495 -0.1628 -0.7470  0.7193
19384TIP3    H279644   6.477   2.139  14.476 -0.2811  0.3971 -1.8738
19385TIP3   OH279645   1.172   2.317  12.046 -0.3261 -0.4486  0.2562
19385TIP3    H179646   1.079   2.324  12.067  0.0431 -0.0469  1.9138
19385TIP3    H279647   1.216   2.357  12.121  1.1479  0.7367 -1.1576
19386TIP3   OH279648   6.693   1.642  12.990 -0.3912 -0.3611 -0.0350
19386TIP3    H179649   6.775   1.665  13.033 -0.4291 -0.0634 -0.1231
19386TIP3    H279650   6.715   1.567  12.934 -0.6655 -1.8069  1.6745
19387TIP3   OH279651   3.261   6.623   4.619 -0.0992 -0.4096 -0.4541
19387TIP3    H179652   3.239   6.679   4.545 -0.1425  0.5048  0.2319
19387TIP3    H279653   3.322   6.676   4.672 -0.2476 -0.9516  0.2817
19388TIP3   OH279654   3.493   5.433  13.336  0.2143  0.4598  0.2154
19388TIP3    H179655   3.578   5.471  13.360  0.8297 -1.2157  0.8664
19388TIP3    H279656   3.514   5.362  13.276 -0.6143 -0.5649  1.0830
19389TIP3   OH279657   2.459   2.463  13.636 -0.0128 -0.4885 -0.4890
19389TIP3    H179658   2.413   2.522  13.696 -0.8499 -1.5517 -0.0592
19389TIP3    H279659   2.506   2.402  13.693  1.4866  0.2165 -0.9270
19390TIP3   OH279660   0.311   0.438  14.706 -0.0196 -0.1085 -0.2884
19390TIP3    H179661   0.216   0.449  14.718 -0.4807 -0.2881 -3.0155
19390TIP3    H279662   0.345   0.527  14.698 -0.2923 -0.0727 -1.1657
19391TIP3   OH279663   4.093   0.824  16.395  0.5802  0.5828  0.0817
19391TIP3    H179664   4.084   0.793  16.305 -0.1228  0.8945  0.0406
19391TIP3    H279665   4.083   0.746  16.449 -0.3608  0.6007 -0.0541
19392TIP3   OH279666   5.938   1.847  14.546 -0.1515 -0.3325  0.3392
19392TIP3    H179667   5.870   1.912  14.529  0.5489  0.2295 -0.4008
19392TIP3    H279668   5.957   1.809  14.460  1.2349  0.3050  0.3373
19393TIP3   OH279669   5.322   3.578   4.100  0.3999  0.2438 -0.3591
19393TIP3    H179670   5.416   3.569   4.120  0.5216 -0.5043 -1.1892
19393TIP3    H279671   5.319   3.636   4.024 -0.0064  2.3932  1.1966
19394TIP3   OH279672   0.891   3.026  16.467  0.3630 -0.2769  0.7819
19394TIP3    H179673   0.872   2.990  16.553 -0.7314 -0.4478  0.4936
19394TIP3    H279674   0.805   3.032  16.424  0.9029 -0.4073 -0.3731
19395TIP3   OH279675   1.722   1.882  17.246 -0.1547 -0.0028 -0.0313
19395TIP3    H179676   1.803   1.930  17.228 -0.4011 -0.1487 -1.7879
19395TIP3    H279677   1.653   1.942  17.218 -0.7203  0.3246  1.9325
19396TIP3   OH279678   4.548   2.337  13.097 -0.1178 -0.3010 -0.6228
19396TIP3    H179679   4.539   2.414  13.041  0.0053  0.5783  0.5415
19396TIP3    H279680   4.459   2.315  13.122 -0.2099 -0.9435 -1.4568
19397TIP3   OH279681   3.654   3.787   1.210 -0.7814  0.2331  0.6560
19397TIP3    H179682   3.668   3.752   1.298  1.4617  0.0542  0.2999
19397TIP3    H279683   3.570   3.751   1.183 -0.5883 -1.3426  1.9738
19398TIP3   OH279684   2.889   2.694   5.418 -0.5496 -0.0497 -0.0024
19398TIP3    H179685   2.891   2.790   5.418 -1.3870 -0.0235 -0.6768
19398TIP3    H279686   2.810   2.671   5.370 -0.7382 -1.0823  0.7537
19399TIP3   OH279687   2.639   3.684  16.097  0.2222  0.3210 -0.2314
19399TIP3    H179688   2.659   3.716  16.009  0.4993  0.7172 -0.0259
19399TIP3    H279689   2.615   3.762  16.146  1.9204  0.4032  0.5613
19400TIP3   OH279690   5.871   0.152  12.049  0.1137  0.3886  0.1837
19400TIP3    H179691   5.830   0.082  12.000 -0.2666  1.1409 -0.5857
19400TIP3    H279692   5.945   0.179  11.995 -0.3213  1.2359  0.0011
19401TIP3   OH279693   2.038   5.818   6.444  0.5286 -0.0460  0.9967
19401TIP3    H179694   1.987   5.860   6.513  1.2861 -0.6284  1.9159
19401TIP3    H279695   2.129   5.836   6.466  0.7698  0.3811 -0.2548
19402TIP3   OH279696   6.512   4.798  15.641 -0.6007  0.4881 -0.3853
19402TIP3    H179697   6.548   4.711  15.660 -2.2035 -0.2643 -0.6582
19402TIP3    H279698   6.544   4.817  15.553 -0.8598 -0.1818 -0.6359
19403TIP3   OH279699   2.887   6.569  16.571  0.4962 -0.4070  0.4896
19403TIP3    H179700   2.881   6.497  16.633  0.0822  0.7400  1.8240
19403TIP3    H279701   2.970   6.611  16.591  0.4150 -0.0956  0.1811
19404TIP3   OH279702   3.683   2.423   2.794  0.3216  0.4110  0.4289
19404TIP3    H179703   3.776   2.429   2.771  0.7151  0.4846  1.8740
19404TIP3    H279704   3.661   2.331   2.782  1.1547 -0.0274  1.9245
19405TIP3   OH279705   4.111   1.802   2.095 -0.0455 -0.2768 -0.3213
19405TIP3    H179706   4.123   1.829   2.004  0.1746  1.6983  0.2496
19405TIP3    H279707   4.047   1.731   2.090 -2.4097  1.7808 -1.7924
19406TIP3   OH279708   0.926   1.857  12.865 -0.2725  0.3177 -0.5771
19406TIP3    H179709   0.929   1.873  12.960 -1.9841  1.0401 -0.6056
19406TIP3    H279710   0.836   1.877  12.841  0.4649  1.4533 -2.5998
19407TIP3   OH279711   5.734   0.985   3.428  0.1948  0.3654 -0.1371
19407TIP3    H179712   5.644   1.002   3.401 -0.4508  0.0542  1.6443
19407TIP3    H279713   5.738   1.021   3.517  1.7434  0.0877 -0.0792
19408TIP3   OH279714   2.119   5.681  12.392  0.1180  0.3678 -0.3043
19408TIP3    H179715   2.196   5.735  12.375  0.8641 -0.6810 -0.3605
19408TIP3    H279716   2.142   5.630  12.470 -0.0603 -0.7733 -0.9716
19409TIP3   OH279717   5.940   0.581  12.316 -0.3388 -0.0816  0.0127
19409TIP3    H179718   5.913   0.491  12.299  2.9564 -1.4483  1.0764
19409TIP3    H279719   5.966   0.615  12.231  0.7307 -1.0813 -0.0905
19410TIP3   OH279720   4.294   3.694   0.995 -0.0388  0.0018 -0.0839
19410TIP3    H179721   4.382   3.675   1.026  0.6441  1.8320 -0.7695
19410TIP3    H279722   4.244   3.615   1.013  0.8834  0.0925  3.4360
19411TIP3   OH279723   3.375   3.839   2.723 -0.8145 -1.1956 -0.2772
19411TIP3    H179724   3.309   3.770   2.733 -0.6194 -1.1273  1.8544
19411TIP3    H279725   3.459   3.793   2.724 -0.7033 -0.9754  0.6008
19412TIP3   OH279726   4.887   4.070  10.548 -0.5407 -0.0334  0.0762
19412TIP3    H179727   4.953   4.133  10.521 -0.3223  0.4593  1.6663
19412TIP3    H279728   4.927   3.984  10.532 -0.8025  0.1852 -1.9995
19413TIP3   OH279729   0.321   1.639  11.491  0.0500 -0.1948  0.2427
19413TIP3    H179730   0.325   1.544  11.479  1.8864 -0.0734 -0.5311
19413TIP3    H279731   0.399   1.672  11.446 -1.1174  1.7971 -0.4555
19414TIP3   OH279732   2.076   6.353   5.934 -0.0361 -0.0225  0.3067
19414TIP3    H179733   1.998   6.408   5.943  0.5458  0.5601  2.4832
19414TIP3    H279734   2.043   6.263   5.943 -0.6241  0.1324 -0.2396
19415TIP3   OH279735   5.892   4.809   3.360 -0.6276  0.3023  0.1347
19415TIP3    H179736   5.913   4.745   3.292 -2.7402 -0.6562  0.3100
19415TIP3    H279737   5.880   4.892   3.313 -0.0378  0.0967 -0.3833
19416TIP3   OH279738   4.063   3.801  13.602  0.1135 -0.5087 -0.1170
19416TIP3    H179739   4.080   3.772  13.512  0.9179 -2.0002  0.4788
19416TIP3    H279740   3.973   3.832  13.600  0.2077 -0.2150 -1.5034
19417TIP3   OH279741   3.164   1.709  13.201 -0.7152  0.0741  0.1350
19417TIP3    H179742   3.247   1.687  13.244 -1.2515  0.2469  1.3157
19417TIP3    H279743   3.125   1.775  13.258 -2.1970 -0.8571  0.2525
19418TIP3   OH279744   2.694   3.538   0.057  0.0231  0.1450  0.0140
19418TIP3    H179745   2.702   3.463  -0.002  2.7307  0.8825 -0.7124
19418TIP3    H279746   2.771   3.592   0.036 -0.7282  2.0749  1.9619
19419TIP3   OH279747   1.286   4.380  16.341 -0.0349  0.2657  0.2752
19419TIP3    H179748   1.214   4.356  16.398  1.6299 -0.6750  2.1026
19419TIP3    H279749   1.254   4.456  16.293 -1.6435  0.9079  2.2264
19420TIP3   OH279750   6.776   3.829  17.216  0.2338 -0.1754  0.1597
19420TIP3    H179751   6.700   3.810  17.272  0.2877  0.4232  0.4524
19420TIP3    H279752   6.740   3.882  17.145  0.5775  1.2567  1.0134
19421TIP3   OH279753   3.115   1.036   0.951 -0.5077  0.3221 -0.0263
19421TIP3    H179754   3.118   1.079   1.037 -1.0134 -0.5896  0.4675
19421TIP3    H279755   3.192   1.068   0.905 -0.8790  1.7767  0.3041
19422TIP3   OH279756   6.687   2.985  11.784  0.0464  0.2499  0.2162
19422TIP3    H179757   6.674   3.068  11.829  1.9275  1.8017 -1.9135
19422TIP3    H279758   6.650   2.999  11.697 -1.4368 -1.8939  0.4239
19423TIP3   OH279759   4.519   6.727   4.427  0.6372  0.2020 -0.4630
19423TIP3    H179760   4.531   6.632   4.428  0.3496  0.1496  1.2589
19423TIP3    H279761   4.597   6.761   4.472  0.3042  0.7020 -0.2517
19424TIP3   OH279762   3.208   3.130   2.261  0.1551  0.6557  0.0828
19424TIP3    H179763   3.224   3.037   2.277 -1.0753  0.5516  0.8448
19424TIP3    H279764   3.289   3.162   2.221  0.6206 -0.7206 -0.1174
19425TIP3   OH279765   4.762   0.101   4.498 -0.0830  0.6272 -0.4820
19425TIP3    H179766   4.747   0.181   4.446  0.8968  1.3200  0.2516
19425TIP3    H279767   4.777   0.133   4.587 -0.8107 -0.4812  0.0597
19426TIP3   OH279768   6.347   6.723   5.655 -0.8329 -0.2586 -0.9792
19426TIP3    H179769   6.413   6.786   5.685  0.5553 -2.7822  1.7094
19426TIP3    H279770   6.384   6.686   5.575  0.0918 -0.2472 -0.5649
19427TIP3   OH279771   3.729   0.048  13.129  0.2654  0.0208  0.1802
19427TIP3    H179772   3.818   0.028  13.160  0.7404 -0.1073 -1.2176
19427TIP3    H279773   3.696   0.111  13.193  1.6157  0.5826  0.3653
19428TIP3   OH279774   6.534   2.950   4.118  0.3496 -0.8252 -0.4880
19428TIP3    H179775   6.582   2.868   4.104 -0.2524 -0.8733 -2.6101
19428TIP3    H279776   6.461   2.946   4.057 -0.9530  0.3807  0.9011
19429TIP3   OH279777   5.837   6.725  14.721 -0.7056  0.2568  0.0776
19429TIP3    H179778   5.776   6.789  14.758 -0.4617 -1.7907  4.6351
19429TIP3    H279779   5.923   6.764  14.734 -0.6460 -0.2812  1.4037
19430TIP3   OH279780   2.751   1.100  14.446 -0.9577 -0.0431 -0.3152
19430TIP3    H179781   2.765   1.041  14.373 -1.3893 -0.1723 -0.2949
19430TIP3    H279782   2.702   1.173  14.408  1.1002  1.1996 -0.7551
19431TIP3   OH279783   1.070   2.225  13.437  0.0280 -0.6968  0.0041
19431TIP3    H179784   1.119   2.304  13.456  0.3016 -1.0827  0.9181
19431TIP3    H279785   1.004   2.220  13.506 -0.5240 -0.8251 -0.5249
19432TIP3   OH279786   4.495   2.226   5.942  0.1190  0.1529  0.2743
19432TIP3    H179787   4.438   2.263   6.009 -0.0987 -2.0734  1.3904
19432TIP3    H279788   4.490   2.132   5.955  2.3426 -0.2122 -1.0229
19433TIP3   OH279789   3.395   5.440   5.025 -0.0339  0.0701 -0.1553
19433TIP3    H179790   3.400   5.439   4.929  0.4826  0.9824 -0.1441
19433TIP3    H279791   3.482   5.469   5.054 -0.5953  1.1212  0.5436
19434TIP3   OH279792   6.306   4.238  14.126 -0.3477 -0.1487  0.3419
19434TIP3    H179793   6.213   4.247  14.106 -0.1873 -0.8534 -0.7530
19434TIP3    H279794   6.328   4.148  14.104  0.7568  0.1979 -0.0707
19435TIP3   OH279795   0.409   1.087  13.198 -0.2878 -0.4719 -0.2079
19435TIP3    H179796   0.335   1.071  13.141 -0.3305  0.4666 -0.4236
19435TIP3    H279797   0.433   1.178  13.182  0.2519 -0.4571  0.6227
19436TIP3   OH279798   0.270   3.232   3.894  0.1313 -0.2372 -0.1365
19436TIP3    H179799   0.322   3.173   3.948  1.3088 -1.0032 -2.0043
19436TIP3    H279800   0.186   3.238   3.938  0.8413 -1.2871  1.4358
19437TIP3   OH279801   0.988   3.027   3.521  0.1884 -0.1950 -0.5574
19437TIP3    H179802   0.979   2.945   3.569 -0.9869 -0.2628 -0.8802
19437TIP3    H279803   1.043   3.082   3.578  0.2387 -0.8827  0.0691
19438TIP3   OH279804   6.122   6.557  13.335 -0.1432 -0.0511  0.7185
19438TIP3    H179805   6.184   6.484  13.344 -1.6947 -1.3479  1.3666
19438TIP3    H279806   6.077   6.560  13.419  0.3108  2.1136  0.9357
19439TIP3   OH279807   0.359   6.165  15.484  0.2125 -0.2588 -0.3435
19439TIP3    H179808   0.395   6.139  15.569 -0.7963  0.2348  0.2608
19439TIP3    H279809   0.377   6.259  15.479 -1.8900  0.2396  0.4747
19440TIP3   OH279810   4.547   6.381   5.617  0.1805  0.3038 -0.0473
19440TIP3    H179811   4.473   6.439   5.636 -0.6698 -0.8605  0.3738
19440TIP3    H279812   4.601   6.384   5.696  0.4106  0.9059 -0.2260
19441TIP3   OH279813   1.098   2.997   6.932 -0.2524  0.0978  0.1378
19441TIP3    H179814   1.122   3.051   6.857 -0.2290 -0.7514 -0.4771
19441TIP3    H279815   1.095   3.059   7.006  0.3008  0.8362 -0.4404
19442TIP3   OH279816   3.090   3.412   1.315 -0.0269 -0.2994 -0.2528
19442TIP3    H179817   2.995   3.409   1.311 -0.0333 -0.7971  0.2094
19442TIP3    H279818   3.116   3.452   1.232 -0.5708 -1.4796 -1.0169
19443TIP3   OH279819   3.532   2.175  11.482 -0.0567 -0.1355  0.1735
19443TIP3    H179820   3.511   2.141  11.570 -0.4262 -2.4785 -0.7480
19443TIP3    H279821   3.455   2.227  11.459  1.1721  2.8760  2.2453
19444TIP3   OH279822   0.322   1.099  14.815  0.3930 -0.5059 -0.5075
19444TIP3    H179823   0.339   1.193  14.808  0.6824 -0.6462 -2.0209
19444TIP3    H279824   0.265   1.079  14.740  0.9903 -1.6725 -0.6784
19445TIP3   OH279825   3.217   3.992  11.458  0.2961  0.0031 -0.1654
19445TIP3    H179826   3.139   3.990  11.402 -0.1195 -0.1772  0.4164
19445TIP3    H279827   3.274   3.923  11.421 -0.1107 -0.3342 -0.1697
19446TIP3   OH279828   2.302   2.659   4.793  0.1310  0.1980  0.2382
19446TIP3    H179829   2.304   2.693   4.883 -3.2962 -0.9202  0.8835
19446TIP3    H279830   2.303   2.564   4.803  0.0996  0.0574 -0.9483
19447TIP3   OH279831   0.188   0.275  10.980 -0.3797 -0.1292  0.0973
19447TIP3    H179832   0.264   0.235  10.938 -0.3124  1.9162 -1.9274
19447TIP3    H279833   0.116   0.215  10.962 -0.0500 -0.0187 -1.7768
19448TIP3   OH279834   2.880   4.448  12.825  0.2491  0.1762 -0.0931
19448TIP3    H179835   2.972   4.444  12.797  0.4244  0.7252  0.3778
19448TIP3    H279836   2.832   4.475  12.747  0.0484 -3.0079 -1.1989
19449TIP3   OH279837   4.673   6.584  16.735  0.6843  0.1022 -0.1105
19449TIP3    H179838   4.722   6.526  16.677  1.7599  1.0518 -0.1886
19449TIP3    H279839   4.734   6.655  16.755 -0.3334  0.8043  0.6028
19450TIP3   OH279840   3.870   0.107  17.135 -0.3586 -0.1863 -0.9879
19450TIP3    H179841   3.965   0.118  17.139 -0.6025  2.2300 -0.2639
19450TIP3    H279842   3.857   0.016  17.107  2.1689 -0.0656 -2.9061
19451TIP3   OH279843   1.390   0.903  14.328  0.2115 -0.0120 -0.6600
19451TIP3    H179844   1.378   0.970  14.395  1.3653 -1.7889  1.4225
19451TIP3    H279845   1.310   0.851  14.331  0.0361  0.2306 -1.0620
19452TIP3   OH279846   6.183   2.241  11.759  0.1406 -0.5564 -0.2055
19452TIP3    H179847   6.257   2.181  11.748 -0.1790 -1.0572  0.3124
19452TIP3    H279848   6.108   2.193  11.725 -0.4855 -1.2917  1.9981
19453TIP3   OH279849   2.794   2.823  11.737 -0.3698 -0.2670 -0.0826
19453TIP3    H179850   2.773   2.730  11.733  0.5972 -0.5177  0.3663
19453TIP3    H279851   2.887   2.828  11.712 -0.0287  0.4191  1.2462
19454TIP3   OH279852   4.396   2.514   5.864  0.8763  0.3908  0.2902
19454TIP3    H179853   4.318   2.459   5.867  1.6905 -0.8337  0.2070
19454TIP3    H279854   4.437   2.493   5.780  0.8045  1.7484 -0.1039
19455TIP3   OH279855   6.309   3.877   4.555 -0.2212  0.0141 -0.3760
19455TIP3    H179856   6.363   3.954   4.569  0.6024 -0.6153  0.0127
19455TIP3    H279857   6.320   3.857   4.462  0.0372  0.0240 -0.3497
19456TIP3   OH279858   5.786   2.994  13.504 -0.0085 -0.7904  0.5575
19456TIP3    H179859   5.859   2.995  13.442  0.2447  2.3030  0.7381
19456TIP3    H279860   5.736   3.073  13.484 -0.9583 -0.6286  3.0984
19457TIP3   OH279861   2.362   4.157   3.466  0.5414 -0.2470 -0.3104
19457TIP3    H179862   2.276   4.115   3.464  1.0667 -1.3740 -0.0165
19457TIP3    H279863   2.352   4.228   3.530 -0.2423 -0.1533 -0.5134
19458TIP3   OH279864   6.000   2.326   1.788  0.5456 -0.0833  0.2812
19458TIP3    H179865   6.080   2.377   1.798 -0.3689  1.2734  0.9685
19458TIP3    H279866   5.951   2.341   1.868 -0.3296 -1.0467 -0.0450
19459TIP3   OH279867   6.788   2.164   5.372 -0.0456  0.0881  0.5560
19459TIP3    H179868   6.725   2.235   5.356  0.1283  0.0038 -0.6416
19459TIP3    H279869   6.816   2.177   5.462  0.3827  1.8827  0.2118
19460TIP3   OH279870   1.302   4.522  14.459  0.0110 -0.6460  0.4400
19460TIP3    H179871   1.209   4.538  14.478 -0.0545 -1.0405  0.4551
19460TIP3    H279872   1.309   4.427  14.452  0.1352 -0.5478 -1.0461
19461TIP3   OH279873   5.172   0.082  11.708 -0.3337 -0.0105 -0.0060
19461TIP3    H179874   5.092   0.131  11.690 -0.8971 -1.0184 -0.3063
19461TIP3    H279875   5.203   0.117  11.792  0.1721  1.9773 -0.9742
19462TIP3   OH279876   3.624   4.622   0.423  0.3834  0.4142  0.2586
19462TIP3    H179877   3.680   4.699   0.415  1.8892 -0.6919 -0.5481
19462TIP3    H279878   3.669   4.566   0.487 -0.2086 -0.1655  0.1797
19463TIP3   OH279879   3.652   6.805  14.536  0.4481  0.1264  0.0372
19463TIP3    H179880   3.695   6.808  14.621  0.7861  2.3889 -0.1522
19463TIP3    H279881   3.698   6.736  14.488  0.2099 -1.2191  1.6641
19464TIP3   OH279882   2.031   0.328   2.204  0.3332  0.6071 -0.1969
19464TIP3    H179883   2.046   0.386   2.130 -1.5149 -0.8301 -1.7923
19464TIP3    H279884   2.013   0.387   2.277 -0.2104  2.0646 -1.4538
19465TIP3   OH279885   1.151   4.299   2.011 -0.0889 -0.0293  0.5090
19465TIP3    H179886   1.233   4.266   2.048  0.6138  0.2139 -0.7578
19465TIP3    H279887   1.122   4.366   2.073  1.5418  1.0328  0.1895
19466TIP3   OH279888   5.851   1.430   6.396 -0.0339 -0.2617  0.6386
19466TIP3    H179889   5.767   1.460   6.362 -0.0698 -0.4709  0.5412
19466TIP3    H279890   5.908   1.507   6.391  0.1532 -0.4653 -0.5202
19467TIP3   OH279891   6.440   1.604  15.138 -0.4480 -0.4618  0.1245
19467TIP3    H179892   6.386   1.680  15.115  0.2566  0.0528  0.1640
19467TIP3    H279893   6.465   1.566  15.054 -1.8910 -1.4445  0.1078
19468TIP3   OH279894   2.093   2.328   5.272 -0.4217  0.0815  0.0982
19468TIP3    H179895   2.185   2.322   5.246  0.1832  2.5686  1.2954
19468TIP3    H279896   2.044   2.301   5.195  1.3121 -0.9280 -0.6917
19469TIP3   OH279897   4.395   3.998   4.884  0.9563 -0.0046 -0.4112
19469TIP3    H179898   4.471   4.048   4.856 -0.4980  2.0359 -0.9104
19469TIP3    H279899   4.365   4.042   4.964 -1.0611  0.7732 -1.5129
19470TIP3   OH279900   6.251   3.843  17.097 -0.6108  0.1955 -0.5472
19470TIP3    H179901   6.281   3.933  17.114  1.2693 -0.5382  0.2077
19470TIP3    H279902   6.224   3.843  17.006 -0.2799  1.4372 -0.6615
19471TIP3   OH279903   1.834   5.360  17.095 -0.5020  0.2329  0.3397
19471TIP3    H179904   1.870   5.373  17.008  1.2428  3.5280  1.3941
19471TIP3    H279905   1.739   5.358  17.082 -0.3487  2.0082 -1.5114
19472TIP3   OH279906   5.496   2.586  11.788  0.0603  0.1365  0.3495
19472TIP3    H179907   5.418   2.533  11.806  1.0560 -1.1809  1.0559
19472TIP3    H279908   5.467   2.676  11.795 -1.5886 -0.3091 -0.2940
19473TIP3   OH279909   3.571   5.786  13.978 -0.0794 -0.0304 -0.2937
19473TIP3    H179910   3.658   5.784  13.940 -0.2273 -1.7250 -0.6274
19473TIP3    H279911   3.537   5.873  13.957  0.6004 -0.2040 -2.3089
19474TIP3   OH279912   0.153   2.152   5.571  0.2529 -0.0525  0.4724
19474TIP3    H179913   0.193   2.232   5.539 -0.1185  0.7539  1.9213
19474TIP3    H279914   0.144   2.096   5.494  1.7937  0.7460 -0.3145
19475TIP3   OH279915   5.287   5.576  14.603  0.3288  0.4801 -0.1859
19475TIP3    H179916   5.229   5.601  14.531 -0.3097  0.0678  0.1736
19475TIP3    H279917   5.266   5.639  14.672 -0.1465 -0.0563  0.1642
19476TIP3   OH279918   3.261   1.033  16.735 -0.0103  0.3885  0.7083
19476TIP3    H179919   3.354   1.014  16.724  0.2515  0.7370  2.1345
19476TIP3    H279920   3.237   0.990  16.817 -1.0104  0.6594  0.5751
19477TIP3   OH279921   5.522   4.159  14.281  0.3621 -0.4383  0.3100
19477TIP3    H179922   5.545   4.180  14.372 -0.7495 -0.8581  0.7063
19477TIP3    H279923   5.468   4.233  14.252 -0.7970 -1.1495  0.6074
19478TIP3   OH279924   3.141   5.417  11.070  0.0702  0.0372 -0.4637
19478TIP3    H179925   3.226   5.455  11.046  0.1212  1.6037  1.8916
19478TIP3    H279926   3.084   5.439  10.997  1.5615 -0.7580 -1.9438
19479TIP3   OH279927   4.634   3.930   5.156  0.5416  0.8372 -0.4471
19479TIP3    H179928   4.596   4.016   5.177  1.4857  1.0870  0.3739
19479TIP3    H279929   4.561   3.879   5.122 -0.1615  1.7975 -0.4477
19480TIP3   OH279930   1.418   0.692  15.131  0.1013  0.3169 -0.5489
19480TIP3    H179931   1.357   0.636  15.083 -0.3743  0.6354 -0.3210
19480TIP3    H279932   1.466   0.633  15.188 -0.6232  0.1819 -0.0734
19481TIP3   OH279933   3.502   0.966  17.134  0.2296 -0.0808  0.0963
19481TIP3    H179934   3.448   0.960  17.213  0.0403  0.5682  0.0204
19481TIP3    H279935   3.483   1.052  17.098 -0.2751 -0.6784 -1.0970
19482TIP3   OH279936   2.041   0.851   6.132 -0.2171 -0.0711 -0.0872
19482TIP3    H179937   2.064   0.921   6.192  0.3732  0.0720 -0.4674
19482TIP3    H279938   2.125   0.811   6.108 -0.5735 -1.2261  0.5078
19483TIP3   OH279939   2.975   3.672   1.650  0.3261 -0.1190  0.5661
19483TIP3    H179940   2.897   3.625   1.621  0.6041 -0.1888 -0.0821
19483TIP3    H279941   3.048   3.614   1.627  0.6541  0.5036  0.0174
19484TIP3   OH279942   2.351   1.681  12.807  0.0436  0.4856 -0.3978
19484TIP3    H179943   2.357   1.689  12.712  0.4053  1.3433 -0.3102
19484TIP3    H279944   2.257   1.687  12.825  0.0726  2.1186 -0.5766
19485TIP3   OH279945   2.968   4.992   0.167 -0.3090  0.1032  0.1567
19485TIP3    H179946   3.057   4.999   0.201  0.4741 -2.1781 -1.1697
19485TIP3    H279947   2.955   5.072   0.116  1.6338 -0.2151 -0.9406
19486TIP3   OH279948   4.507   5.534  13.700  0.0151 -0.2564  0.1070
19486TIP3    H179949   4.523   5.619  13.658  0.0362  0.2843  1.1787
19486TIP3    H279950   4.483   5.476  13.628 -0.9501  0.8940 -0.5362
19487TIP3   OH279951   2.340   3.696   1.076 -0.2092 -0.1698  0.5311
19487TIP3    H179952   2.434   3.712   1.069 -0.1853 -0.6216 -0.2359
19487TIP3    H279953   2.317   3.728   1.164  0.3945  1.2212  0.2077
19488TIP3   OH279954   3.945   5.525  14.259 -0.1835  0.2043 -0.2974
19488TIP3    H179955   3.953   5.451  14.319  0.8300  0.7971  0.3391
19488TIP3    H279956   4.031   5.568  14.263 -0.0325  0.1528 -2.3476
19489TIP3   OH279957   0.437   4.749   1.079 -0.0200 -0.0270  0.8357
19489TIP3    H179958   0.522   4.786   1.103  0.0918  0.4503 -0.2471
19489TIP3    H279959   0.430   4.765   0.985 -0.9210 -0.8583  0.7510
19490TIP3   OH279960   2.768   3.033   0.680  0.3406  0.4713 -0.4812
19490TIP3    H179961   2.808   2.947   0.669  0.0876  0.1939  0.6290
19490TIP3    H279962   2.678   3.015   0.706  0.1213  1.0810 -0.7919
19491TIP3   OH279963   6.202   4.460   1.039 -0.2372  0.3093 -0.3362
19491TIP3    H179964   6.144   4.444   1.113 -1.5971  1.4887 -1.0839
19491TIP3    H279965   6.165   4.406   0.968 -1.4634  2.2321 -1.2632
19492TIP3   OH279966   5.111   1.326  15.377 -0.2808  0.2748  0.5139
19492TIP3    H179967   5.070   1.239  15.378 -2.6115  1.2965  0.6691
19492TIP3    H279968   5.151   1.332  15.290 -0.3824 -0.8274  0.3736
19493TIP3   OH279969   0.174   0.185   1.618 -0.4869  0.2705 -0.2046
19493TIP3    H179970   0.093   0.134   1.611  0.0857 -0.5570 -1.0494
19493TIP3    H279971   0.211   0.160   1.703  0.4322 -1.7578 -1.1329
19494TIP3   OH279972   4.525   6.049  17.128  0.7093 -0.3326 -0.4832
19494TIP3    H179973   4.537   5.955  17.116  1.3235 -0.8566  3.0898
19494TIP3    H279974   4.432   6.059  17.146  0.9442 -0.6189  1.0618
19495TIP3   OH279975   4.399   6.619   5.676 -0.2963  0.3958 -0.9526
19495TIP3    H179976   4.310   6.636   5.645 -0.0113  1.1333 -1.3947
19495TIP3    H279977   4.406   6.667   5.758 -0.8758 -1.1267  0.0435
19496TIP3   OH279978   3.506   2.944   5.365  0.4076  0.3018  0.3104
19496TIP3    H179979   3.477   3.035   5.358  0.9195  0.3551 -1.8542
19496TIP3    H279980   3.427   2.892   5.351  0.2754  0.4139  0.6366
19497TIP3   OH279981   5.039   6.772  12.477  0.2480  0.0381 -0.7114
19497TIP3    H179982   5.026   6.803  12.387  0.8501 -1.0572 -1.2010
19497TIP3    H279983   5.133   6.781  12.493  0.3896 -1.1467 -0.7487
19498TIP3   OH279984   5.313   1.149  16.980 -0.0348  0.2599  0.1106
19498TIP3    H179985   5.311   1.135  16.885  0.8031 -1.3217  0.2911
19498TIP3    H279986   5.295   1.242  16.991 -1.3823  0.2402 -1.5250
19499TIP3   OH279987   4.519   2.278   2.620  0.4927  0.0245  0.3252
19499TIP3    H179988   4.509   2.339   2.547  0.3707  1.8168  1.7395
19499TIP3    H279989   4.464   2.203   2.597  1.0340  0.2083 -1.7184
19500TIP3   OH279990   3.481   3.042   4.771  0.2259  0.4644  0.3675
19500TIP3    H179991   3.504   3.114   4.712  0.2355  0.9049  0.9042
19500TIP3    H279992   3.506   2.963   4.722  0.6400  0.8375 -0.0391
19501TIP3   OH279993   6.644   5.929  12.850 -0.0942  0.0764  0.5821
19501TIP3    H179994   6.672   5.838  12.850 -1.0562 -0.2299  0.9193
19501TIP3    H279995   6.720   5.978  12.880  0.2343 -0.6740  0.9904
19502TIP3   OH279996   1.345   0.328   2.468 -0.2529 -0.0610 -0.6586
19502TIP3    H179997   1.325   0.242   2.506 -3.6598 -0.0588 -2.0085
19502TIP3    H279998   1.279   0.387   2.507  1.4770  1.8029 -0.3892
19503TIP3   OH279999   2.653   3.170  15.880 -0.5523  0.0130 -0.2505
19503TIP3    H180000   2.643   3.245  15.822 -0.3194  1.9055  2.0046
19503TIP3    H280001   2.733   3.187  15.929 -0.7641 -1.4532  0.6836
19504TIP3   OH280002   0.695   4.327  12.473  0.4470 -0.2076  0.3847
19504TIP3    H180003   0.722   4.251  12.421  1.6383  0.1129  0.4959
19504TIP3    H280004   0.776   4.357  12.514  0.0756  1.3956 -0.0127
19505TIP3   OH280005   2.956   4.094   1.972  0.5799  0.5369 -0.4665
19505TIP3    H180006   2.914   4.164   1.924 -0.0672 -0.2683 -1.0944
19505TIP3    H280007   3.042   4.129   1.995 -0.2942  2.1073  0.6139
19506TIP3   OH280008   6.166   3.758   2.582  0.4405 -0.4213  0.2463
19506TIP3    H180009   6.092   3.792   2.531 -0.7943 -1.4427  1.2677
19506TIP3    H280010   6.231   3.734   2.516 -0.8849 -1.1850 -0.8550
19507TIP3   OH280011   2.370   2.567   5.335  0.0975 -0.2249 -0.7409
19507TIP3    H180012   2.406   2.498   5.279 -0.8800 -0.7395 -0.7448
19507TIP3    H280013   2.283   2.584   5.301 -0.0877  0.2455 -0.0586
19508TIP3   OH280014   6.187   4.696   5.769 -0.0546  0.2628 -0.1537
19508TIP3    H180015   6.279   4.687   5.745  0.2852 -0.0147  1.1741
19508TIP3    H280016   6.183   4.664   5.859 -1.0418  2.3485  0.6020
19509TIP3   OH280017   4.553   5.430   3.521  0.5829  0.3241 -0.5066
19509TIP3    H180018   4.587   5.355   3.472 -0.1705  0.9010 -1.9827
19509TIP3    H280019   4.461   5.408   3.537  0.8610  0.0532  0.8981
19510TIP3   OH280020   5.620   2.847  14.806 -0.2034 -0.0183 -0.3691
19510TIP3    H180021   5.694   2.790  14.783 -0.4298  0.0735 -1.3563
19510TIP3    H280022   5.542   2.795  14.784 -0.4430 -0.0139  0.4235
19511TIP3   OH280023   1.211   4.668   5.028 -0.4830 -0.1202  0.4104
19511TIP3    H180024   1.183   4.736   4.966 -0.1875 -1.1909 -0.9428
19511TIP3    H280025   1.271   4.714   5.087 -0.0554  0.7534 -0.6449
19512TIP3   OH280026   3.817   2.646   4.496 -0.4030  0.6025  0.3367
19512TIP3    H180027   3.783   2.679   4.413  2.0981  1.2984 -0.5123
19512TIP3    H280028   3.790   2.554   4.500  2.2244 -0.4694 -2.9542
19513TIP3   OH280029   6.741   2.923   2.429 -0.2034 -0.4214 -0.4571
19513TIP3    H180030   6.673   2.947   2.492 -0.4533  0.0793 -0.9054
19513TIP3    H280031   6.727   2.983   2.355  0.7737 -0.2640 -0.5206
19514TIP3   OH280032   5.743   2.317   0.442 -0.3193  0.5113 -0.1042
19514TIP3    H180033   5.742   2.411   0.460 -0.8810  0.8483 -1.7596
19514TIP3    H280034   5.816   2.283   0.495  0.2720  1.9708  0.0577
19515TIP3   OH280035   5.177   1.695  14.880 -0.7948  0.1894 -0.4621
19515TIP3    H180036   5.119   1.753  14.831 -0.1117 -1.0797 -2.9539
19515TIP3    H280037   5.123   1.617  14.897  0.2611 -1.5240 -3.8645
19516TIP3   OH280038   4.648   2.283   4.646  0.3872  0.3963 -0.2973
19516TIP3    H180039   4.576   2.261   4.704  1.4063  0.1516  0.9163
19516TIP3    H280040   4.658   2.378   4.654 -0.2000  0.5284 -0.9792
19517TIP3   OH280041   5.577   2.114   4.368  0.6650 -0.0007  0.4096
19517TIP3    H180042   5.481   2.113   4.375  0.5868 -0.0984 -0.5043
19517TIP3    H280043   5.604   2.187   4.424  0.2462 -1.3164  2.4378
19518TIP3   OH280044   0.340   3.259  16.217 -0.6710 -0.4429 -0.1961
19518TIP3    H180045   0.272   3.289  16.157 -1.1160 -1.7851 -0.4011
19518TIP3    H280046   0.293   3.210  16.284 -0.0304 -0.2198  0.4358
19519TIP3   OH280047   5.546   1.655  10.290 -0.2332  0.3769 -0.6564
19519TIP3    H180048   5.528   1.594  10.362  2.7567  0.8332  0.6166
19519TIP3    H280049   5.459   1.685  10.262 -1.5691 -0.5242  2.1410
19520TIP3   OH280050   4.919   0.173   1.152 -0.5524 -0.2958 -0.0727
19520TIP3    H180051   4.995   0.123   1.181 -1.5128 -1.8238 -0.0973
19520TIP3    H280052   4.945   0.208   1.067  1.3672  2.1458  1.3769
19521TIP3   OH280053   2.911   6.692   2.388 -0.6257 -0.4538 -0.0719
19521TIP3    H180054   2.888   6.784   2.379  1.6031  0.0582 -1.2199
19521TIP3    H280055   2.944   6.684   2.478  0.3238  0.1726 -0.3519
19522TIP3   OH280056   0.005   3.161  13.021 -0.4733  0.4237 -0.4955
19522TIP3    H180057   0.077   3.110  13.058 -2.5115 -1.6016  0.9333
19522TIP3    H280058   0.030   3.175  12.930  1.2295 -1.1613 -0.3350
19523TIP3   OH280059   1.931   4.126   3.096  0.3854 -0.2569 -0.0154
19523TIP3    H180060   2.006   4.142   3.038 -0.7914  0.3256 -1.4453
19523TIP3    H280061   1.934   4.198   3.158 -0.0523  0.8799 -1.2549
19524TIP3   OH280062   3.346   1.294  15.467 -0.4046  0.4173 -0.7552
19524TIP3    H180063   3.288   1.338  15.405  0.8768  1.9844 -0.8856
19524TIP3    H280064   3.383   1.220  15.418 -0.0381  1.1571 -1.6083
19525TIP3   OH280065   5.454   0.979   1.804 -0.1674  0.1394 -0.7031
19525TIP3    H180066   5.457   1.050   1.868  0.1221 -0.8618  0.4315
19525TIP3    H280067   5.457   0.899   1.857 -0.7628 -0.7235 -1.9351
19526TIP3   OH280068   5.977   1.862  12.420  0.4534 -0.1906  0.5439
19526TIP3    H180069   5.995   1.772  12.449  0.8469 -0.1321  0.4757
19526TIP3    H280070   6.009   1.917  12.492  1.4335 -0.0434  0.0059
19527TIP3   OH280071   6.752   5.703  13.066  0.0115 -0.1524 -0.4164
19527TIP3    H180072   6.770   5.637  13.134 -0.0533  0.2387 -0.0160
19527TIP3    H280073   6.832   5.704  13.013  1.1342  1.3817  1.1961
19528TIP3   OH280074   1.123   0.053   4.485 -0.3671 -0.8981  0.1013
19528TIP3    H180075   1.174  -0.018   4.525  0.4368 -0.0850  0.5430
19528TIP3    H280076   1.184   0.096   4.425 -0.6434 -0.1580  0.3373
19529TIP3   OH280077   3.232   4.126  14.755 -0.1404 -0.2771 -0.1043
19529TIP3    H180078   3.142   4.158  14.759 -0.5533 -1.3447 -0.7000
19529TIP3    H280079   3.284   4.205  14.738 -0.7724  0.6091  1.8069
19530TIP3   OH280080   1.560   6.602  13.463 -0.3977  0.3328 -0.0450
19530TIP3    H180081   1.641   6.614  13.414 -0.5518  0.8861 -0.1739
19530TIP3    H280082   1.576   6.646  13.547 -0.5825  0.4873 -0.0914
19531TIP3   OH280083   0.379   2.895   6.624  0.2063 -0.1702  0.4506
19531TIP3    H180084   0.332   2.811   6.628  1.2156 -0.8394 -0.8012
19531TIP3    H280085   0.467   2.875   6.653  0.1925  0.7047  1.1310
19532TIP3   OH280086   3.905   5.045   4.116  0.2021 -0.0612 -0.9027
19532TIP3    H180087   3.887   5.037   4.210 -0.0976  1.6453 -0.7947
19532TIP3    H280088   3.852   4.976   4.076 -0.1004 -0.4545  0.1240
19533TIP3   OH280089   4.114   5.875  14.210 -0.2994 -0.1734  0.0539
19533TIP3    H180090   4.052   5.948  14.214  0.0687  0.1118  0.9042
19533TIP3    H280091   4.108   5.835  14.297 -0.7301 -1.3580 -0.5049
19534TIP3   OH280092   1.703   6.056  14.765 -0.2507 -0.2756  0.6338
19534TIP3    H180093   1.654   6.011  14.834 -0.8434 -0.8327 -0.1424
19534TIP3    H280094   1.722   5.989  14.700 -0.3560  0.3941 -0.1091
19535TIP3   OH280095   4.524   2.780  13.534 -0.3967 -0.0508  0.7463
19535TIP3    H180096   4.617   2.803  13.538 -0.0051 -0.5665 -2.4495
19535TIP3    H280097   4.481   2.861  13.509 -0.1891 -0.5926 -1.6605
19536TIP3   OH280098   0.739   5.214  14.328  0.0457 -0.4355 -0.1437
19536TIP3    H180099   0.730   5.281  14.396  0.4556 -1.1556  0.6282
19536TIP3    H280100   0.833   5.200  14.320 -0.0798 -1.9791  0.7632
19537TIP3   OH280101   5.201   4.202  15.709 -0.3472 -0.7703 -0.1635
19537TIP3    H180102   5.216   4.280  15.656 -2.6142 -0.3820 -0.3293
19537TIP3    H280103   5.175   4.135  15.646 -0.6634 -1.0093  0.2200
19538TIP3   OH280104   2.534   4.571  14.186  0.7345 -0.7252 -0.5543
19538TIP3    H180105   2.440   4.549  14.187  0.8658 -1.5165 -2.1002
19538TIP3    H280106   2.554   4.595  14.276 -0.4437 -2.7877  0.3314
19539TIP3   OH280107   6.787   1.048  13.750 -0.1293  0.2363  0.2631
19539TIP3    H180108   6.695   1.038  13.774 -0.7737 -1.3019 -2.3477
19539TIP3    H280109   6.789   1.127  13.696 -0.1399 -0.2399 -0.4515
19540TIP3   OH280110   6.498   0.580   6.323  0.3009 -0.2769  0.7919
19540TIP3    H180111   6.500   0.514   6.254 -0.0749  0.3535  0.1614
19540TIP3    H280112   6.420   0.558   6.374  0.8489 -1.0331  1.3137
19541TIP3   OH280113   3.039   4.104   0.388  0.2225  0.4041  0.1697
19541TIP3    H180114   3.070   4.091   0.298 -3.1845 -2.7465 -0.7926
19541TIP3    H280115   2.985   4.183   0.383  0.7607  0.7444 -0.3633
19542TIP3   OH280116   0.049   1.001  14.328  0.1889 -0.2010 -0.4446
19542TIP3    H180117  -0.014   0.949  14.377  1.4247  0.9072  2.5447
19542TIP3    H280118   0.005   1.018  14.244 -0.6702 -5.0250 -1.2526
19543TIP3   OH280119   0.537   6.597  16.642 -0.0957  0.3150  0.5027
19543TIP3    H180120   0.627   6.627  16.637 -0.2471  0.7305  0.2105
19543TIP3    H280121   0.515   6.601  16.735 -0.3744  1.9074  0.3981
19544TIP3   OH280122   1.627   2.615   0.600 -0.1696  0.6247  0.3602
19544TIP3    H180123   1.654   2.674   0.671 -0.3954  0.2216  0.7869
19544TIP3    H280124   1.702   2.612   0.541 -0.4474  1.9861 -0.0949
19545TIP3   OH280125   3.784   6.690   4.811  0.1666 -0.1297  0.4604
19545TIP3    H180126   3.787   6.756   4.742  0.9681  0.1285  0.7334
19545TIP3    H280127   3.726   6.622   4.776 -0.8651  0.8075  0.2631
19546TIP3   OH280128   1.729   2.956   4.743  0.4765 -0.6206  0.1272
19546TIP3    H180129   1.797   2.919   4.688  0.9084  0.7661 -0.3191
19546TIP3    H280130   1.695   3.031   4.693  0.2338  0.1081  1.3251
19547TIP3   OH280131   6.772   6.542   3.336  0.5354  0.4322  0.4439
19547TIP3    H180132   6.840   6.555   3.403  0.5974 -1.0649  0.7172
19547TIP3    H280133   6.690   6.551   3.383  0.5654 -1.7502  1.0581
19548TIP3   OH280134   5.670   1.929   5.599 -0.6930  0.4300 -0.5139
19548TIP3    H180135   5.656   1.868   5.671 -1.5295  1.5694  0.3155
19548TIP3    H280136   5.686   2.013   5.641  2.7557  0.4284 -1.5619
19549TIP3   OH280137   2.415   4.825  13.266 -0.6839  0.3295 -0.6092
19549TIP3    H180138   2.492   4.780  13.231  1.0606  1.5728  1.3869
19549TIP3    H280139   2.341   4.771  13.238  0.8211 -0.6968 -2.9755
19550TIP3   OH280140   4.714   6.802   5.925  0.5678  0.1373  0.2657
19550TIP3    H180141   4.781   6.734   5.933  0.3870 -0.4738 -2.3859
19550TIP3    H280142   4.631   6.755   5.934  0.4675  0.2652  0.0280
19551TIP3   OH280143   2.403   3.110   5.826  0.0388  0.1484 -0.1654
19551TIP3    H180144   2.434   3.159   5.902  2.2081 -1.1141 -0.1419
19551TIP3    H280145   2.325   3.064   5.858  1.4002 -1.0812  1.6587
19552TIP3   OH280146   2.665   3.443  16.267  0.0027  0.3477 -0.0635
19552TIP3    H180147   2.699   3.527  16.236  0.7112  0.1791  0.2330
19552TIP3    H280148   2.604   3.467  16.338 -1.0739  0.6896 -1.0728
19553TIP3   OH280149   2.377   5.937  14.562  0.2456 -0.2284 -0.4721
19553TIP3    H180150   2.361   5.970  14.650  0.6019  0.3133 -0.6064
19553TIP3    H280151   2.386   6.015  14.508 -1.5688 -0.5446 -1.3053
19554TIP3   OH280152   6.059   1.837  13.020  0.1808  0.2153 -0.1446
19554TIP3    H180153   6.090   1.879  12.940 -0.9043  0.5500 -0.4105
19554TIP3    H280154   6.058   1.743  12.999  0.9891  0.1911 -0.1207
19555TIP3   OH280155   6.776   4.806  17.141 -0.4039 -0.1521 -0.5464
19555TIP3    H180156   6.707   4.869  17.164 -1.9063 -1.6316 -0.8116
19555TIP3    H280157   6.756   4.782  17.051 -0.5863 -1.8894 -0.0703
19556TIP3   OH280158   0.235   5.017  15.980 -0.0224 -0.2766  0.2507
19556TIP3    H180159   0.300   5.029  15.910 -1.2614 -0.8081 -1.0584
19556TIP3    H280160   0.259   4.933  16.020 -0.5109 -1.0435 -0.9761
19557TIP3   OH280161   0.015   6.665   2.524 -0.0132 -0.1241  0.3298
19557TIP3    H180162  -0.044   6.639   2.595 -0.5852 -0.9409 -0.4208
19557TIP3    H280163   0.002   6.760   2.516  0.3146  0.0335  1.5240
19558TIP3   OH280164   5.149   1.039  10.327  0.4004 -0.8253 -0.0153
19558TIP3    H180165   5.086   1.064  10.259 -0.2280 -0.4699  0.6885
19558TIP3    H280166   5.099   0.986  10.388  1.1263 -1.7046 -0.1633
19559TIP3   OH280167   4.222   6.652   3.865  0.0562 -0.2325 -0.0366
19559TIP3    H180168   4.200   6.744   3.880  3.8917  0.4358  3.5957
19559TIP3    H280169   4.285   6.654   3.793  1.1150  0.2594  0.8688
19560TIP3   OH280170   6.125   6.730   5.179 -0.1113  0.0905 -0.1612
19560TIP3    H180171   6.210   6.694   5.154  1.2049  1.3745  2.1409
19560TIP3    H280172   6.142   6.822   5.198 -1.6581  0.0142  1.9164
19561TIP3   OH280173   1.054   0.385  12.805  0.6217 -0.0558  0.0909
19561TIP3    H180174   1.006   0.354  12.882 -0.5618  0.1451 -0.5413
19561TIP3    H280175   0.992   0.443  12.760  1.8133  1.0056 -0.2370
19562TIP3   OH280176   6.419   4.710  16.688 -0.1741 -0.2236 -0.0911
19562TIP3    H180177   6.352   4.733  16.753 -0.0850 -0.1211 -0.0363
19562TIP3    H280178   6.405   4.616  16.672 -0.7591 -0.0616 -0.5670
19563TIP3   OH280179   1.957   2.660   1.530  0.6895  0.0643  0.3345
19563TIP3    H180180   1.973   2.575   1.570  2.0868  0.6672  1.1172
19563TIP3    H280181   2.036   2.680   1.481 -0.1594  0.3196 -0.9910
19564TIP3   OH280182   0.989   2.288   5.495 -0.2295  0.2111  0.3917
19564TIP3    H180183   1.083   2.274   5.489 -0.1516  0.6561  0.4933
19564TIP3    H280184   0.979   2.383   5.495 -0.7459  0.1738 -0.6196
19565TIP3   OH280185   3.733   6.424  12.963  0.0677 -0.0570  0.3720
19565TIP3    H180186   3.688   6.485  13.022  1.6727  1.1542  0.4410
19565TIP3    H280187   3.696   6.441  12.877 -1.0821 -0.6131  0.7382
19566TIP3   OH280188   4.745   0.172  16.597 -0.1823  0.0619  0.1053
19566TIP3    H180189   4.753   0.115  16.521 -3.7994 -0.0029 -0.3843
19566TIP3    H280190   4.692   0.245  16.566 -0.1300  1.0081  2.1140
19567TIP3   OH280191   4.083   0.594   6.111  0.2737 -0.1993 -0.5053
19567TIP3    H180192   4.064   0.500   6.113  0.4590 -0.3502  4.0827
19567TIP3    H280193   3.996   0.635   6.107 -0.0532 -0.6746  1.0492
19568TIP3   OH280194   3.905   6.074  13.855  0.1365 -0.6804  0.2793
19568TIP3    H180195   3.982   6.018  13.843  0.0237 -0.6377 -0.6695
19568TIP3    H280196   3.940   6.153  13.897  0.3491 -1.3003  1.2933
19569TIP3   OH280197   0.173   6.526  11.525 -0.3212  0.5604 -0.1561
19569TIP3    H180198   0.140   6.460  11.586  0.7485 -0.7128 -0.9032
19569TIP3    H280199   0.246   6.567  11.571  1.5111 -1.4891 -1.0995
19570TIP3   OH280200   0.417   5.433   3.265 -0.1629 -0.3505  0.0037
19570TIP3    H180201   0.439   5.403   3.353 -2.1074  0.4709  0.8140
19570TIP3    H280202   0.321   5.435   3.263 -0.1961  2.7872 -0.9782
19571TIP3   OH280203   4.140   2.126   5.401 -0.2872  0.0269 -0.4260
19571TIP3    H180204   4.161   2.060   5.467  0.6176  0.1584 -0.5576
19571TIP3    H280205   4.225   2.148   5.362 -0.5779  1.2177 -0.4308
19572TIP3   OH280206   4.890   0.304   3.631 -0.1133  0.2343  0.2115
19572TIP3    H180207   4.862   0.391   3.658  3.2157  0.9995  1.6078
19572TIP3    H280208   4.845   0.245   3.692 -0.4325  1.1817  0.9146
19573TIP3   OH280209   4.648   1.905  11.225  0.4205 -0.1050 -0.3119
19573TIP3    H180210   4.652   1.982  11.283 -0.4153 -0.1813 -0.1389
19573TIP3    H280211   4.734   1.901  11.185  1.0994 -0.1784  1.1028
19574TIP3   OH280212   0.044   5.368   4.185 -0.0985 -0.5713  0.4746
19574TIP3    H180213   0.007   5.333   4.104  0.0563  0.0898  0.1166
19574TIP3    H280214   0.139   5.362   4.172 -0.0714  0.0852  0.3677
19575TIP3   OH280215   4.791   4.352  12.456 -0.3045 -0.1224  0.3208
19575TIP3    H180216   4.882   4.320  12.453 -1.4044 -3.6274 -0.6828
19575TIP3    H280217   4.775   4.386  12.368 -0.4535 -1.2650 -0.1176
19576TIP3   OH280218   6.316   5.447  13.909  0.0114  0.3591  0.1410
19576TIP3    H180219   6.324   5.441  14.005  0.0662 -0.3968  0.0933
19576TIP3    H280220   6.376   5.517  13.885  1.4444 -0.7043  0.4839
19577TIP3   OH280221   1.747   0.310   3.568 -0.0598 -0.7104 -0.5063
19577TIP3    H180222   1.826   0.286   3.519 -0.8809 -3.7750 -0.4949
19577TIP3    H280223   1.771   0.294   3.660 -0.1816  0.0882 -0.3202
19578TIP3   OH280224   3.510   4.502   0.988  0.1549  0.7841 -0.8144
19578TIP3    H180225   3.428   4.466   1.021 -0.1349 -0.0075 -2.3174
19578TIP3    H280226   3.537   4.565   1.055 -0.3702 -0.7433  0.9020
19579TIP3   OH280227   1.235   4.255   4.373  0.7139  1.0142  0.2809
19579TIP3    H180228   1.240   4.224   4.283  1.7853 -1.5138  1.1315
19579TIP3    H280229   1.142   4.253   4.394  0.4924  1.2607 -0.6212
19580TIP3   OH280230   5.683   5.941  12.888  0.1222 -0.3048  0.4869
19580TIP3    H180231   5.704   5.853  12.856  1.5169  0.3599 -0.5604
19580TIP3    H280232   5.758   5.994  12.862 -1.1271  1.4120  0.1867
19581TIP3   OH280233   3.125   2.023   5.960 -0.4118 -0.1466 -0.2455
19581TIP3    H180234   3.080   2.083   6.019  0.3605  1.0182 -0.8188
19581TIP3    H280235   3.055   1.974   5.917 -0.9986 -0.7441  1.3312
19582TIP3   OH280236   4.170   5.036  13.998 -0.4957 -0.1509 -0.4180
19582TIP3    H180237   4.254   5.021  13.954 -0.9021  1.3959 -1.8349
19582TIP3    H280238   4.139   5.119  13.962 -1.0981  1.0262  2.5392
19583TIP3   OH280239   2.854   3.834  15.588  0.6392 -0.4227 -0.1697
19583TIP3    H180240   2.933   3.831  15.534  0.5193  0.7629 -0.4500
19583TIP3    H280241   2.879   3.889  15.662 -0.1182  0.5654 -0.6255
19584TIP3   OH280242   5.990   1.973   4.889  0.0858  0.1033 -0.0967
19584TIP3    H180243   6.004   1.879   4.900  2.2547  0.3021 -0.5675
19584TIP3    H280244   6.031   2.012   4.967 -1.7299  0.6502  0.6306
19585TIP3   OH280245   2.073   4.612  15.767  0.2402 -0.0847 -0.3295
19585TIP3    H180246   2.030   4.611  15.853  0.9040  0.2171  0.0183
19585TIP3    H280247   2.137   4.683  15.773 -0.0191  0.2343 -1.2360
19586TIP3   OH280248   1.454   1.158   1.456 -0.8868 -0.2975 -0.2230
19586TIP3    H180249   1.450   1.063   1.445 -1.1076 -0.2760 -0.3253
19586TIP3    H280250   1.492   1.170   1.543  3.4721 -0.4456 -1.8892
19587TIP3   OH280251   3.890   1.120   0.173 -0.4799  0.4151 -0.5283
19587TIP3    H180252   3.845   1.112   0.089 -0.3699  0.3075 -0.5780
19587TIP3    H280253   3.888   1.031   0.209  1.1833  0.0320 -1.3005
19588TIP3   OH280254   1.960   5.421  15.557  0.2501 -0.4753 -0.3663
19588TIP3    H180255   1.897   5.438  15.487 -0.6764 -0.2260  0.5143
19588TIP3    H280256   2.043   5.406  15.511 -0.3701 -0.4675 -1.5213
19589TIP3   OH280257   1.861   2.886   3.688 -0.1470 -0.3803  0.1768
19589TIP3    H180258   1.882   2.829   3.614 -0.2940  1.1568 -1.1120
19589TIP3    H280259   1.816   2.960   3.648  0.3717  0.8195  1.7381
19590TIP3   OH280260   6.168   2.471  11.174  0.1100 -0.0798  0.1156
19590TIP3    H180261   6.140   2.436  11.259  0.5557  0.5708  0.5493
19590TIP3    H280262   6.127   2.557  11.170  1.0272  0.3779  0.2138
19591TIP3   OH280263   1.721   1.430   3.632  0.1232 -0.1001 -0.2575
19591TIP3    H180264   1.647   1.438   3.693  0.6780 -0.7840  0.5262
19591TIP3    H280265   1.796   1.465   3.681  0.6888 -1.1890 -0.3298
19592TIP3   OH280266   1.253   3.744  15.594  0.0269 -0.3022 -0.0239
19592TIP3    H180267   1.318   3.720  15.660  0.1122 -1.5900 -0.5386
19592TIP3    H280268   1.276   3.692  15.517 -0.0670  1.1591 -1.0980
19593TIP3   OH280269   5.692   5.605   4.418  0.1554  0.5786 -0.6967
19593TIP3    H180270   5.756   5.673   4.437  1.0652 -0.8415  1.7897
19593TIP3    H280271   5.691   5.550   4.497  0.4260 -3.0283 -2.9924
19594TIP3   OH280272   1.851   1.735   1.860  0.2229  0.2414  0.6469
19594TIP3    H180273   1.838   1.651   1.903  0.3332  0.0320  0.2694
19594TIP3    H280274   1.806   1.727   1.776 -0.1527  0.7147  0.7920
19595TIP3   OH280275   1.885   2.476  17.155  0.1196 -0.0428  0.1050
19595TIP3    H180276   1.887   2.548  17.092 -0.9515  0.6693  0.8460
19595TIP3    H280277   1.951   2.415  17.124  1.0871  1.2711 -0.5339
19596TIP3   OH280278   3.241   3.473   5.487  0.4387  0.8338  0.9804
19596TIP3    H180279   3.192   3.415   5.545  0.9380 -0.2104  0.3901
19596TIP3    H280280   3.202   3.560   5.500 -1.9857 -0.0355  0.0679
19597TIP3   OH280281   6.179   1.435   1.267  0.5068 -0.2026 -0.2398
19597TIP3    H180282   6.119   1.476   1.205 -0.4279 -0.9250  0.1685
19597TIP3    H280283   6.185   1.344   1.238  0.8606 -0.2986  0.1297
19598TIP3   OH280284   2.674   6.326  13.265 -0.0585  0.1238 -0.2272
19598TIP3    H180285   2.757   6.303  13.223 -0.4791 -0.4927 -0.7397
19598TIP3    H280286   2.635   6.241  13.287 -0.8602  0.3938 -0.5986
19599TIP3   OH280287   1.748   1.080   5.204  0.0515 -0.0721 -0.1714
19599TIP3    H180288   1.657   1.081   5.174 -0.0587  2.4666  0.0765
19599TIP3    H280289   1.742   1.055   5.296 -0.7404  2.6319  0.5928
19600TIP3   OH280290   2.692   2.257   3.486 -0.5066  0.2241  0.1339
19600TIP3    H180291   2.715   2.345   3.456 -2.8726  1.2540  1.0823
19600TIP3    H280292   2.622   2.229   3.427 -1.4602  0.0277  1.3102
19601TIP3   OH280293   4.021   4.448   0.121  0.0600  0.5332  0.6046
19601TIP3    H180294   3.999   4.355   0.115  0.5932  0.4952 -3.0359
19601TIP3    H280295   3.945   4.488   0.161 -0.8795 -1.2618  0.7174
19602TIP3   OH280296   5.278   5.593  14.009 -0.2800  0.0358 -0.7422
19602TIP3    H180297   5.238   5.508  14.021 -0.9380  0.3673 -0.5474
19602TIP3    H280298   5.264   5.639  14.092 -1.6867  1.0374 -1.4868
19603TIP3   OH280299   5.938   3.712  13.673 -0.2603 -0.4139 -0.2936
19603TIP3    H180300   5.857   3.748  13.709 -0.6383  0.0366 -1.5673
19603TIP3    H280301   6.002   3.783  13.682 -0.6567  0.1212 -1.5531
19604TIP3   OH280302   1.354   0.487   3.148 -0.4274 -0.2687  0.4831
19604TIP3    H180303   1.373   0.492   3.241  2.6883  0.1874 -0.0764
19604TIP3    H280304   1.340   0.578   3.121 -0.4867 -0.3144  0.3588
19605TIP3   OH280305   5.367   4.130   0.890  0.3053  0.2613  0.1358
19605TIP3    H180306   5.377   4.053   0.947  0.3078  0.4262  0.3593
19605TIP3    H280307   5.344   4.201   0.950  1.5803  0.7297  0.1089
19606TIP3   OH280308   2.854   2.602  12.022 -0.4823 -0.1482 -0.2971
19606TIP3    H180309   2.901   2.590  11.939  1.2529 -1.2597  0.7625
19606TIP3    H280310   2.795   2.527  12.027 -0.7429  0.0340 -0.6172
19607TIP3   OH280311   2.874   0.972   1.886  0.1184 -0.1670  0.2981
19607TIP3    H180312   2.910   0.990   1.973  1.0258 -1.0006  0.1090
19607TIP3    H280313   2.788   1.015   1.887  0.8420  1.3647  0.9728
19608TIP3   OH280314   0.962   5.038   5.097  0.1340  0.4088  0.3841
19608TIP3    H180315   1.057   5.034   5.094  0.1203  0.6998 -1.0084
19608TIP3    H280316   0.933   4.984   5.024 -0.9048 -2.4305  2.6776
19609TIP3   OH280317   4.376   0.155   2.511  0.3967 -0.8299 -0.1703
19609TIP3    H180318   4.366   0.232   2.455  0.6936 -0.8824 -0.2956
19609TIP3    H280319   4.457   0.114   2.482  2.9248  1.4426  3.0560
19610TIP3   OH280320   3.196   6.374   3.261 -0.2352 -0.1776  0.1789
19610TIP3    H180321   3.269   6.317   3.237 -0.2595 -0.1337  0.0022
19610TIP3    H280322   3.220   6.460   3.226  0.0543  0.0497  0.9045
19611TIP3   OH280323   6.632   6.420  15.831  0.2219 -0.2483  0.2563
19611TIP3    H180324   6.542   6.391  15.815 -0.0829  0.6824  0.2689
19611TIP3    H280325   6.677   6.405  15.748 -0.3873  0.9130 -0.3054
19612TIP3   OH280326   3.549   3.736  12.962  0.1563 -0.3339  0.4713
19612TIP3    H180327   3.638   3.745  12.928  0.1492  1.0810  0.7791
19612TIP3    H280328   3.519   3.651  12.928  2.1800 -1.6362  1.6675
19613TIP3   OH280329   3.870   4.205  13.545 -0.4593 -0.6250 -0.3970
19613TIP3    H180330   3.878   4.300  13.555 -1.4683 -0.5628 -0.0853
19613TIP3    H280331   3.895   4.170  13.631 -0.8627 -0.5922 -0.2652
19614TIP3   OH280332   6.500   4.180   0.919 -0.2937  0.4083 -0.3152
19614TIP3    H180333   6.490   4.260   0.868  4.2060  0.2454 -1.8552
19614TIP3    H280334   6.567   4.201   0.984 -1.3368 -1.2706  1.4157
19615TIP3   OH280335   6.309   5.076  13.494 -0.1086  0.3957  0.0094
19615TIP3    H180336   6.229   5.069  13.441 -0.7967 -0.2917  1.0998
19615TIP3    H280337   6.291   5.148  13.554  1.5914  2.8103 -2.1388
19616TIP3   OH280338   5.318   4.915  14.160 -0.2997 -0.4008  0.2008
19616TIP3    H180339   5.370   4.835  14.161 -1.7493 -1.3709  0.0098
19616TIP3    H280340   5.242   4.895  14.215 -0.3621  1.0769  0.6962
19617TIP3   OH280341   6.419   6.651  13.006  0.0467  0.1072  0.3853
19617TIP3    H180342   6.446   6.581  13.066 -1.8947  0.2830  1.5370
19617TIP3    H280343   6.412   6.729  13.061 -0.1404  0.6598 -0.4026
19618TIP3   OH280344   5.475   0.968   1.168 -0.0639  0.0894 -1.1649
19618TIP3    H180345   5.561   0.974   1.127  0.8097 -1.1859  0.3439
19618TIP3    H280346   5.494   0.937   1.257 -2.1175 -0.6477 -0.9414
19619TIP3   OH280347   2.682   1.713  12.709 -0.0026 -0.0652  0.5893
19619TIP3    H180348   2.695   1.625  12.746  0.7723 -0.2148 -0.0050
19619TIP3    H280349   2.702   1.703  12.616 -0.6069  0.5965  0.3795
19620TIP3   OH280350   0.708   3.327  14.057 -0.6601  0.3049  0.6961
19620TIP3    H180351   0.798   3.314  14.086 -1.2657 -1.7481  1.8383
19620TIP3    H280352   0.655   3.321  14.137 -1.8611  1.2997  0.0304
19621TIP3   OH280353   5.452   3.794  17.248  0.1879 -0.5758  0.3671
19621TIP3    H180354   5.437   3.826  17.337 -0.5742  0.2486 -0.0361
19621TIP3    H280355   5.543   3.818  17.229  0.8092 -2.0019  1.4022
19622TIP3   OH280356   5.500   5.001   6.117 -0.3662  0.1859 -0.1267
19622TIP3    H180357   5.504   4.914   6.157 -3.6663  0.4241  1.0047
19622TIP3    H280358   5.564   5.052   6.166  0.2469 -1.1203  0.5050
19623TIP3   OH280359   5.460   4.219  13.874 -0.6009  0.6521  0.0251
19623TIP3    H180360   5.506   4.135  13.871 -1.2627  0.3003 -0.6409
19623TIP3    H280361   5.420   4.222  13.961  0.6472  0.9593  0.6113
19624TIP3   OH280362   2.422   2.778  17.164  0.0348 -0.1763  0.4940
19624TIP3    H180363   2.482   2.717  17.121  0.8326  0.8661  0.0874
19624TIP3    H280364   2.338   2.732  17.165  0.8062 -1.6293  1.0004
19625TIP3   OH280365   3.893   5.448  13.045  0.6668  0.4332 -0.0207
19625TIP3    H180366   3.917   5.401  13.125  0.8721  0.8825  0.1893
19625TIP3    H280367   3.972   5.497  13.022  0.3849  0.8548 -0.0961
19626TIP3   OH280368   5.787   3.805  12.938  0.3181  0.4540  0.4791
19626TIP3    H180369   5.712   3.826  12.994 -0.2236 -0.0650 -0.0352
19626TIP3    H280370   5.842   3.749  12.992 -0.4400 -0.4455  0.3424
19627TIP3   OH280371   5.283   1.165  12.857  0.0907  0.2747 -0.2623
19627TIP3    H180372   5.280   1.235  12.922  1.1352  1.2907 -1.2722
19627TIP3    H280373   5.371   1.129  12.864  0.3476  0.6446 -1.3465
19628TIP3   OH280374   6.618   6.507  15.258 -0.2217  0.2991  0.0926
19628TIP3    H180375   6.589   6.501  15.167  0.4523 -0.3136 -0.0864
19628TIP3    H280376   6.702   6.551  15.254 -0.3303  0.5409  0.4488
19629TIP3   OH280377   5.329   4.621   2.576  0.3399  0.7642 -0.3625
19629TIP3    H180378   5.398   4.559   2.601  0.6357  2.1805  2.8548
19629TIP3    H280379   5.334   4.690   2.642 -1.6896  2.8974 -2.2808
19630TIP3   OH280380   2.116   0.291  12.115 -0.2624  0.0999 -0.1281
19630TIP3    H180381   2.174   0.346  12.062  1.0826 -1.6984 -0.6104
19630TIP3    H280382   2.029   0.304  12.077  0.0700  1.5985 -0.4343
19631TIP3   OH280383   3.058   0.323   1.168  0.0559  0.2796 -0.0077
19631TIP3    H180384   2.976   0.340   1.216  0.4499  0.9009  0.4720
19631TIP3    H280385   3.030   0.298   1.080 -0.6815 -0.6746  0.4821
19632TIP3   OH280386   6.388   0.233  11.850  0.2864 -0.4228 -0.5342
19632TIP3    H180387   6.360   0.191  11.932  1.8048 -0.0508  0.2243
19632TIP3    H280388   6.324   0.303  11.836 -0.1572 -0.6673  0.1905
19633TIP3   OH280389   4.184   1.316  13.644 -0.0304  0.7112 -0.5861
19633TIP3    H180390   4.189   1.276  13.730 -0.5981  0.4125 -0.6922
19633TIP3    H280391   4.163   1.244  13.585 -0.8390  1.1240 -0.8085
19634TIP3   OH280392   5.629   4.670   4.381 -0.4193 -0.0712  0.4802
19634TIP3    H180393   5.561   4.684   4.315 -0.5726 -1.6417  0.2708
19634TIP3    H280394   5.705   4.716   4.346 -0.4717 -0.9435 -0.8496
19635TIP3   OH280395   6.700   0.570  15.384 -0.2844 -0.1112  0.3524
19635TIP3    H180396   6.768   0.513  15.348  0.0742  1.1101 -0.9782
19635TIP3    H280397   6.673   0.624  15.310 -1.1166  0.9620  1.4142
19636TIP3   OH280398   4.829   1.545  11.420 -0.1224  0.0811  0.5482
19636TIP3    H180399   4.735   1.533  11.435 -0.0996  0.4480  0.9717
19636TIP3    H280400   4.864   1.456  11.421 -0.2777  0.0163  1.6414
19637TIP3   OH280401   1.377   6.707  10.485  0.6714 -0.1708 -0.1225
19637TIP3    H180402   1.385   6.613  10.468  2.1535 -0.2400  0.7716
19637TIP3    H280403   1.284   6.720  10.504  0.4978 -1.5174  0.0602
19638TIP3   OH280404   1.081   6.718  11.146 -0.3504 -0.0398  0.0919
19638TIP3    H180405   0.987   6.705  11.130 -0.6062 -0.4271  1.7723
19638TIP3    H280406   1.109   6.639  11.192  0.6770  0.3284  0.1249
19639TIP3   OH280407   0.032   1.361  14.472 -0.2600  0.8625  0.1179
19639TIP3    H180408  -0.017   1.305  14.532 -2.1034  0.2391 -1.8414
19639TIP3    H280409   0.124   1.344  14.493 -0.5252 -4.6764 -1.7449
19640TIP3   OH280410   2.271   3.841   1.611  0.4438  0.0026 -0.0707
19640TIP3    H180411   2.213   3.770   1.638  0.3832  0.2953  0.5944
19640TIP3    H280412   2.354   3.822   1.655  0.1774  0.7869  0.8080
19641TIP3   OH280413   5.898   5.187  15.758 -0.4639 -0.0166 -0.2830
19641TIP3    H180414   5.903   5.250  15.830 -0.3972  0.5095 -0.7346
19641TIP3    H280415   5.895   5.242  15.679  1.4642 -0.5708 -0.8156
19642TIP3   OH280416   6.355   0.408  13.064  0.0634 -0.7282  0.1946
19642TIP3    H180417   6.363   0.460  12.984  0.5009 -1.3335 -0.1560
19642TIP3    H280418   6.267   0.369  13.059  0.3599 -1.3349 -0.3385
19643TIP3   OH280419   4.353   4.273   3.211  0.2632 -0.4172 -0.2748
19643TIP3    H180420   4.345   4.183   3.241 -0.4132 -0.1047  0.5341
19643TIP3    H280421   4.265   4.297   3.181 -0.0600  0.5641  1.3206
19644TIP3   OH280422   2.093   2.580   2.069 -0.6605 -0.0002 -0.1879
19644TIP3    H180423   2.157   2.650   2.059  0.5720 -0.9230  0.8996
19644TIP3    H280424   2.084   2.568   2.163  0.1559 -2.1149 -0.3028
19645TIP3   OH280425   6.716   3.855   4.646  0.5092 -0.2758  0.7220
19645TIP3    H180426   6.728   3.797   4.721  0.3940 -0.9238  0.2480
19645TIP3    H280427   6.663   3.804   4.584  2.1522 -0.4794 -0.5970
19646TIP3   OH280428   2.780   1.967  16.261 -0.0826 -0.2451 -0.1621
19646TIP3    H180429   2.731   2.027  16.317  0.8146 -0.4839  0.9231
19646TIP3    H280430   2.841   1.923  16.320  1.3847 -0.0200 -1.4327
19647TIP3   OH280431   2.546   1.631  11.251  0.2224 -0.1981  0.2247
19647TIP3    H180432   2.467   1.658  11.203  0.3465 -0.7277 -0.2946
19647TIP3    H280433   2.551   1.536  11.237  0.5949 -0.2655  0.7953
19648TIP3   OH280434   2.203   4.804   1.929  0.0080  0.0454  0.1379
19648TIP3    H180435   2.233   4.825   1.840  0.0315 -0.2434  0.0752
19648TIP3    H280436   2.152   4.880   1.956 -0.0323  0.1183 -0.1401
19649TIP3   OH280437   2.286   1.668  16.585  0.0810  0.0350 -0.6089
19649TIP3    H180438   2.315   1.756  16.559 -2.1158  0.4509 -1.9342
19649TIP3    H280439   2.367   1.618  16.596  1.3628  2.0317 -0.5348
19650TIP3   OH280440   6.410   2.751  16.406  0.1502  0.1344 -0.6035
19650TIP3    H180441   6.461   2.832  16.414  0.0129  0.0607  1.9017
19650TIP3    H280442   6.461   2.686  16.455 -1.3927 -0.4010  0.3754
19651TIP3   OH280443   6.228   0.538  15.001 -0.1098 -0.9475 -0.4751
19651TIP3    H180444   6.188   0.595  14.935 -0.0318 -1.4498 -0.9677
19651TIP3    H280445   6.267   0.467  14.950 -0.1928 -1.4324  0.1304
19652TIP3   OH280446   1.351   3.232   4.398  0.7246 -0.1248  0.3576
19652TIP3    H180447   1.275   3.245   4.341  1.2365  0.4877 -0.1911
19652TIP3    H280448   1.314   3.232   4.487  0.3487  2.7476  0.2965
19653TIP3   OH280449   6.434   0.039   1.678  0.0044 -0.0381  0.1789
19653TIP3    H180450   6.518   0.006   1.710 -0.5878 -0.9370  0.8590
19653TIP3    H280451   6.428   0.128   1.713  0.6445  0.0176  0.1664
19654TIP3   OH280452   1.427   0.594   0.163  0.1556 -0.2487 -0.3496
19654TIP3    H180453   1.479   0.519   0.193  0.1233 -1.0246 -2.0509
19654TIP3    H280454   1.482   0.635   0.096 -1.0582 -0.6085 -1.6070
19655TIP3   OH280455   2.589   3.842   1.072  0.6046 -0.3376 -0.1626
19655TIP3    H180456   2.591   3.819   0.979  1.1823 -0.2713 -0.1692
19655TIP3    H280457   2.681   3.849   1.097  0.4686 -1.2245  0.6306
19656TIP3   OH280458   2.849   1.955  14.977 -0.3765 -0.0661  0.6163
19656TIP3    H180459   2.761   1.982  15.002 -0.2774 -0.1757  1.0886
19656TIP3    H280460   2.858   1.985  14.887 -1.0091 -0.3183  0.4620
19657TIP3   OH280461   2.703   6.687   6.156 -0.0677 -0.1107  0.4613
19657TIP3    H180462   2.740   6.601   6.177 -0.8134 -0.0985  1.9486
19657TIP3    H280463   2.777   6.737   6.122  0.7783 -0.7846  1.2569
19658TIP3   OH280464   6.724   0.187   4.016  0.0486 -0.1503 -0.0795
19658TIP3    H180465   6.673   0.233   4.083 -0.6117  0.7147 -1.1326
19658TIP3    H280466   6.752   0.106   4.059  2.1295  1.6180  2.1886
19659TIP3   OH280467   0.114   1.424  12.266  0.1960 -0.2970  0.2552
19659TIP3    H180468   0.057   1.477  12.322 -2.9268 -0.2407 -2.6865
19659TIP3    H280469   0.058   1.352  12.235  2.0885 -0.9956 -1.8271
19660TIP3   OH280470   3.789   1.961   0.540  0.6075  0.5483 -0.6460
19660TIP3    H180471   3.710   1.920   0.574  1.2662  0.9950  1.5700
19660TIP3    H280472   3.762   2.050   0.516  0.4149  0.6740  0.0275
19661TIP3   OH280473   1.919   6.398   5.546  0.1684 -0.4960  0.2004
19661TIP3    H180474   1.838   6.399   5.597 -0.0226 -0.9327 -0.0925
19661TIP3    H280475   1.909   6.468   5.482  0.8955  0.8516  1.4968
19662TIP3   OH280476   1.268   4.821   0.612 -0.3954 -0.3208  0.7413
19662TIP3    H180477   1.323   4.743   0.606  0.3327  0.1694  0.8915
19662TIP3    H280478   1.293   4.861   0.696 -1.4228 -0.4124  1.1102
19663TIP3   OH280479   6.023   4.563   0.588  0.0278 -0.5627 -0.2606
19663TIP3    H180480   5.944   4.594   0.545  1.1450  1.4477 -1.0033
19663TIP3    H280481   5.992   4.496   0.650 -2.0884 -0.5771 -1.2444
19664TIP3   OH280482   4.101   0.835  14.550 -0.1986  0.4698 -0.0260
19664TIP3    H180483   4.111   0.888  14.629  0.5237  1.1948 -0.5799
19664TIP3    H280484   4.017   0.863  14.513  0.5931  1.9487 -0.8023
19665TIP3   OH280485   0.804   0.745  13.797  0.0424  0.1332 -0.0168
19665TIP3    H180486   0.891   0.722  13.765 -0.4298 -1.4062 -0.2803
19665TIP3    H280487   0.768   0.801  13.728 -0.3502 -1.8304 -1.4878
19666TIP3   OH280488   3.031   4.210  13.269 -0.6849  0.1144  0.0488
19666TIP3    H180489   2.949   4.185  13.311 -1.3165  0.5392 -0.9030
19666TIP3    H280490   3.036   4.305  13.282  0.7665 -0.1666  2.0108
19667TIP3   OH280491   1.406   0.823   5.121 -0.4006  0.0463 -0.3204
19667TIP3    H180492   1.377   0.785   5.038  1.4786  0.0267 -0.9989
19667TIP3    H280493   1.470   0.761   5.155  0.6460  1.2275 -0.0641
19668TIP3   OH280494   0.346   5.786   1.705  0.5324  0.3904  0.4678
19668TIP3    H180495   0.271   5.842   1.689  1.5725  1.6983 -0.0231
19668TIP3    H280496   0.364   5.745   1.620 -1.1100 -1.9048  1.1430
19669TIP3   OH280497   3.758   6.732   3.912  0.2010 -0.4063 -0.0948
19669TIP3    H180498   3.818   6.773   3.849 -0.1730 -0.1162 -0.2601
19669TIP3    H280499   3.739   6.646   3.874  0.5811 -0.5360  0.0017
19670TIP3   OH280500   0.272   2.193   1.115 -0.1401  0.1983  0.0554
19670TIP3    H180501   0.358   2.156   1.137 -0.9608 -0.0935  3.2929
19670TIP3    H280502   0.209   2.130   1.150 -1.6562  1.4520 -0.2907
19671TIP3   OH280503   6.711   2.693   3.604  0.4468 -0.2967 -0.1738
19671TIP3    H180504   6.619   2.718   3.602  0.7750  0.9748 -0.5164
19671TIP3    H280505   6.729   2.674   3.696 -1.0615 -4.3384 -0.5379
19672TIP3   OH280506   5.383   2.577   5.014  0.0753 -0.2350  0.8409
19672TIP3    H180507   5.436   2.521   5.070  0.4028  0.2254  1.0040
19672TIP3    H280508   5.392   2.664   5.052  2.7610  0.7222 -1.5381
19673TIP3   OH280509   1.193   4.004  11.625 -0.1676  0.0834 -0.5422
19673TIP3    H180510   1.113   4.013  11.573 -0.2876 -1.9730 -0.7639
19673TIP3    H280511   1.202   3.910  11.640  2.1422  0.2849 -0.3847
19674TIP3   OH280512   0.212   1.012  13.850 -0.6048  0.3524 -0.5047
19674TIP3    H180513   0.242   1.012  13.941 -1.5939  2.0689 -0.1410
19674TIP3    H280514   0.122   0.981  13.855 -1.0524  1.5779 -0.7320
19675TIP3   OH280515   2.890   1.758  13.071 -0.1538 -0.9418 -0.0726
19675TIP3    H180516   2.940   1.733  12.993  0.2271 -0.4848  0.0197
19675TIP3    H280517   2.955   1.760  13.142  0.6848  3.6541 -0.6453
19676TIP3   OH280518   6.621   4.846   3.027  0.2275  0.1494  0.1931
19676TIP3    H180519   6.628   4.754   3.000  0.5552  0.4536 -0.8250
19676TIP3    H280520   6.630   4.844   3.122 -0.9564 -0.9832  0.3052
19677TIP3   OH280521   1.579   5.774   1.446 -0.2776  0.0400  0.5401
19677TIP3    H180522   1.618   5.720   1.515  0.3397  0.4591  0.5228
19677TIP3    H280523   1.638   5.849   1.438 -0.8712  0.4792  0.2302
19678TIP3   OH280524   3.978   4.809  14.958  0.0505  0.0928 -0.3409
19678TIP3    H180525   4.061   4.819  15.004 -0.9644 -0.6005  1.7872
19678TIP3    H280526   3.984   4.870  14.884  1.6490  1.6034  0.9344
19679TIP3   OH280527   2.892   2.003   3.630  0.6028  0.2664  0.0398
19679TIP3    H180528   2.938   1.934   3.678  1.8361  0.0114 -1.4329
19679TIP3    H280529   2.804   1.967   3.615  0.4193  0.0732  1.4546
19680TIP3   OH280530   4.876   3.964   3.303  0.1765  0.1392  1.1202
19680TIP3    H180531   4.855   4.029   3.370 -1.0925  0.0496  0.8323
19680TIP3    H280532   4.792   3.928   3.277  0.3398  1.6368 -2.0417
19681TIP3   OH280533   0.459   3.658  14.384  0.1175 -0.3140  0.2775
19681TIP3    H180534   0.441   3.570  14.417  2.3752 -1.0463 -0.2656
19681TIP3    H280535   0.383   3.710  14.412 -2.5308 -2.9101 -1.5187
19682TIP3   OH280536   4.224   0.251   6.074 -0.0769 -0.7385  0.2054
19682TIP3    H180537   4.226   0.155   6.080 -1.5590 -0.8396 -0.4645
19682TIP3    H280538   4.132   0.272   6.059  0.3229  0.7622 -0.3032
19683TIP3   OH280539   1.931   4.665  16.927  0.0875  0.1731 -0.0699
19683TIP3    H180540   2.001   4.626  16.874  0.2744  0.9333 -0.3895
19683TIP3    H280541   1.889   4.590  16.970 -0.1491 -0.4706 -1.3807
19684TIP3   OH280542   6.465   1.601  13.525 -0.1809 -0.6795  0.2421
19684TIP3    H180543   6.497   1.578  13.612 -2.0907  0.7342  1.4142
19684TIP3    H280544   6.371   1.583  13.529 -0.9219  2.4860 -0.3259
19685TIP3   OH280545   3.118   6.435  16.732 -0.1671  0.1386 -0.2126
19685TIP3    H180546   3.167   6.436  16.814  2.4044 -0.9838 -1.6192
19685TIP3    H280547   3.118   6.527  16.703  0.7185  0.2201  0.0359
19686TIP3   OH280548   3.192   1.537   3.849  0.4191  0.0881  0.0612
19686TIP3    H180549   3.102   1.515   3.826  0.7663 -0.3184 -0.9868
19686TIP3    H280550   3.209   1.619   3.802  0.6058  0.1299  0.2007
19687TIP3   OH280551   2.012   0.569   2.799  0.1235 -0.0124 -0.2433
19687TIP3    H180552   1.927   0.548   2.760  0.3594  1.5943 -1.7696
19687TIP3    H280553   2.074   0.510   2.756  0.1779  0.8275 -1.3759
19688TIP3   OH280554   6.023   6.679   4.586 -0.0662 -0.0071 -0.3998
19688TIP3    H180555   5.989   6.619   4.652 -1.6460 -0.3774 -1.4945
19688TIP3    H280556   6.015   6.631   4.504 -0.5711  1.3961 -1.1884
19689TIP3   OH280557   3.625   4.472  13.611 -0.1144  0.1808 -0.3082
19689TIP3    H180558   3.573   4.518  13.545 -0.4897 -0.0316 -0.1631
19689TIP3    H280559   3.714   4.504  13.598 -0.2651  0.4770 -0.6215
19690TIP3   OH280560   2.918   5.330   2.486  0.6263  0.1033  0.3402
19690TIP3    H180561   2.884   5.326   2.396  1.6571 -2.2858 -0.0148
19690TIP3    H280562   2.876   5.407   2.524 -2.0088 -0.4242 -1.2902
19691TIP3   OH280563   2.059   6.120  15.580  0.1235 -0.3853  0.3182
19691TIP3    H180564   2.103   6.101  15.663 -1.7269 -1.8657  1.0336
19691TIP3    H280565   1.969   6.091  15.593 -0.5805  0.6567 -1.7606
19692TIP3   OH280566   5.212   4.920   2.147  0.0212  0.0693 -0.1677
19692TIP3    H180567   5.225   5.014   2.160  0.2471  0.0812 -0.4714
19692TIP3    H280568   5.244   4.879   2.228  0.2975  0.2238 -0.2003
19693TIP3   OH280569   5.023   0.669   0.208 -0.3582  0.7861  0.2991
19693TIP3    H180570   5.057   0.660   0.297  0.7473  1.3183 -0.0478
19693TIP3    H280571   4.930   0.648   0.215 -0.2652  0.7463  1.5614
19694TIP3   OH280572   3.870   4.242   5.095  0.4513 -0.0099  0.6080
19694TIP3    H180573   3.938   4.199   5.042 -0.8510 -0.2420 -0.9583
19694TIP3    H280574   3.858   4.185   5.171  1.5766 -0.2709  0.6011
19695TIP3   OH280575   1.329   0.526  11.010  0.5545 -0.2788 -0.3080
19695TIP3    H180576   1.345   0.469  10.935  2.5290  1.0011 -0.9377
19695TIP3    H280577   1.235   0.520  11.026  0.7544 -4.5282  0.4035
19696TIP3   OH280578   1.135   2.998  14.867  0.4705 -0.0078  0.1818
19696TIP3    H180579   1.073   2.954  14.809 -1.5334  2.6943  0.0978
19696TIP3    H280580   1.125   2.954  14.951 -0.9373 -0.2073 -0.0635
19697TIP3   OH280581   1.348   0.252  13.076 -0.3251 -0.0958  0.0581
19697TIP3    H180582   1.310   0.183  13.023 -1.6935 -0.2735  1.2124
19697TIP3    H280583   1.338   0.331  13.024 -2.3291 -0.1376  0.3192
19698TIP3   OH280584   6.633   3.134   4.418 -0.4702 -0.6134 -0.5266
19698TIP3    H180585   6.608   3.042   4.409 -0.4320 -0.8130  1.0754
19698TIP3    H280586   6.552   3.179   4.441 -0.1464 -0.5924  0.6439
19699TIP3   OH280587   3.824   3.027   4.552  0.2391 -0.0089  0.2590
19699TIP3    H180588   3.761   2.957   4.536  1.0920 -0.6592 -0.2716
19699TIP3    H280589   3.828   3.076   4.470  0.3086  0.1358  0.3459
19700TIP3   OH280590   2.966   0.508  14.977 -0.7528  0.1436  0.3309
19700TIP3    H180591   3.046   0.456  14.962 -0.8619 -0.0571  0.4331
19700TIP3    H280592   2.908   0.448  15.024 -1.2222  0.0751 -0.3382
19701TIP3   OH280593   0.772   1.080   5.241 -0.2966  0.5017  0.3707
19701TIP3    H180594   0.694   1.088   5.186  0.4894  1.9453 -0.5807
19701TIP3    H280595   0.833   1.028   5.189 -0.1214  0.5209  0.5550
19702TIP3   OH280596   0.542   5.258   2.840 -0.4263 -0.1099 -0.5914
19702TIP3    H180597   0.481   5.321   2.802 -1.1218  0.1129  0.8223
19702TIP3    H280598   0.612   5.311   2.877 -0.6405 -0.2062 -0.0394
19703TIP3   OH280599   3.159   2.508  14.362 -0.0762 -0.7285  0.7714
19703TIP3    H180600   3.203   2.591  14.382  0.6903 -0.8351 -0.3450
19703TIP3    H280601   3.078   2.510  14.413 -0.4271  1.0350  0.1969
19704TIP3   OH280602   5.328   6.455  14.561  0.3181 -0.1411 -0.2085
19704TIP3    H180603   5.296   6.454  14.471 -0.7420 -1.7339  0.1460
19704TIP3    H280604   5.423   6.460  14.553  0.2116  0.1268 -1.4067
19705TIP3   OH280605   5.117   5.860  13.696  0.2937  0.3542 -0.3726
19705TIP3    H180606   5.086   5.817  13.617  2.3221  0.0560 -1.0849
19705TIP3    H280607   5.208   5.831  13.704 -0.7461 -2.7509  4.1613
19706TIP3   OH280608   6.785   3.512  15.235  0.8674 -0.7078  0.1503
19706TIP3    H180609   6.846   3.584  15.252  0.1612 -0.3653  1.3126
19706TIP3    H280610   6.814   3.476  15.151  2.5477 -0.4253  0.5648
19707TIP3   OH280611   3.435   5.741   3.179  0.2236  0.4595  0.2569
19707TIP3    H180612   3.427   5.825   3.224 -3.7625 -0.4414  1.6499
19707TIP3    H280613   3.382   5.751   3.100 -0.7160 -0.7870  0.6873
19708TIP3   OH280614   1.662   5.495   4.819  0.2522 -0.4451  0.3913
19708TIP3    H180615   1.623   5.408   4.812 -0.2406 -0.0978 -2.6266
19708TIP3    H280616   1.755   5.479   4.833  0.0272 -1.4238  0.8289
19709TIP3   OH280617   4.703   3.027  17.235 -0.3252 -0.5034  0.5807
19709TIP3    H180618   4.740   3.086  17.170 -1.2659 -1.0125 -0.4398
19709TIP3    H280619   4.610   3.047  17.237 -0.5150 -1.3539  0.8604
19710TIP3   OH280620   4.068   5.392   5.504  0.0448  0.1526 -0.5346
19710TIP3    H180621   4.085   5.469   5.559  0.5942 -0.8791  0.8084
19710TIP3    H280622   3.974   5.377   5.513 -0.1294  0.8748 -1.1016
19711TIP3   OH280623   4.183   2.043  10.955 -0.1755  0.0119  0.1044
19711TIP3    H180624   4.105   2.010  10.911 -0.2750  2.7774 -2.0475
19711TIP3    H280625   4.162   2.037  11.048 -1.9301 -1.5753 -0.3230
19712TIP3   OH280626   6.086   3.472  16.727 -0.0091  0.2524 -0.5443
19712TIP3    H180627   6.126   3.546  16.772 -0.8492 -0.0564  0.7708
19712TIP3    H280628   6.061   3.412  16.797 -1.3399 -0.2688 -1.4216
19713TIP3   OH280629   3.892   6.220  12.575  0.5279  0.7349 -0.4688
19713TIP3    H180630   3.941   6.299  12.599  0.1889  0.2853  1.9887
19713TIP3    H280631   3.820   6.252  12.522  0.1427  2.1749  0.8504
19714TIP3   OH280632   4.168   6.006   2.690  0.1218  0.0397  0.1980
19714TIP3    H180633   4.207   6.029   2.606  1.5767  0.3248  0.9293
19714TIP3    H280634   4.242   5.992   2.749 -0.8649  0.3292  1.5712
19715TIP3   OH280635   3.382   4.066   4.179 -0.2214 -0.0316 -0.9169
19715TIP3    H180636   3.355   4.155   4.205  0.0384  0.2711 -1.6514
19715TIP3    H280637   3.419   4.077   4.092  0.2184 -0.8028 -0.8364
19716TIP3   OH280638   2.093   2.668   5.472  0.2010  0.4277 -0.3110
19716TIP3    H180639   2.102   2.753   5.515 -1.4265  0.6489 -0.3315
19716TIP3    H280640   1.998   2.652   5.471  0.5038 -1.6705  0.2484
19717TIP3   OH280641   2.609   1.201   0.107  0.0077  0.2655  0.1436
19717TIP3    H180642   2.672   1.225   0.038 -0.7683  4.9143  0.7366
19717TIP3    H280643   2.532   1.171   0.059  0.4839  0.6091 -0.8756
19718TIP3   OH280644   1.784   0.415   6.248  0.1281  0.3670  0.3534
19718TIP3    H180645   1.848   0.466   6.200  0.7325  0.6111  1.3777
19718TIP3    H280646   1.758   0.472   6.321  1.1406 -0.9138  1.7777
19719TIP3   OH280647   1.436   0.748  13.341  0.1730  0.5687 -0.0068
19719TIP3    H180648   1.496   0.822  13.352  0.7644  0.3706 -1.6576
19719TIP3    H280649   1.350   0.784  13.364  0.6036  1.4740  0.2379
19720TIP3   OH280650   4.909   0.672   0.475  0.2171 -0.4132  0.4117
19720TIP3    H180651   4.877   0.759   0.496  0.0561 -0.7684  1.7322
19720TIP3    H280652   4.830   0.620   0.459  0.2384 -0.6559  1.0641
19721TIP3   OH280653   1.370   3.238  17.078 -0.3055  0.2799 -0.0855
19721TIP3    H180654   1.313   3.279  17.143 -0.8245 -0.8284  0.1806
19721TIP3    H280655   1.459   3.253  17.111 -0.4926  0.9998  0.1060
19722TIP3   OH280656   0.843   5.753  12.043 -0.0578  0.0763  0.1074
19722TIP3    H180657   0.929   5.787  12.068  0.2319 -1.7804  1.8533
19722TIP3    H280658   0.862   5.692  11.971  0.1178 -0.4601  0.6056
19723TIP3   OH280659   0.298   5.966   3.249  0.2813  0.5955 -0.1600
19723TIP3    H180660   0.335   5.880   3.272 -0.5488  0.6657  1.6357
19723TIP3    H280661   0.213   5.946   3.211 -0.1346  0.6022  0.7268
19724TIP3   OH280662   1.352   2.414   2.661  0.3542  0.5722 -0.3683
19724TIP3    H180663   1.361   2.508   2.673 -0.4659  0.8535 -1.7593
19724TIP3    H280664   1.442   2.381   2.667  0.6265  1.4004  0.3502
19725TIP3   OH280665   6.662   0.071  12.564 -0.5954 -0.0196 -0.9715
19725TIP3    H180666   6.757   0.077  12.557 -0.4242  0.0297  0.9734
19725TIP3    H280667   6.646  -0.007  12.616 -1.4528  1.4450  1.0944
19726TIP3   OH280668   2.051   1.958  12.745  0.2009  0.3555 -0.0317
19726TIP3    H180669   2.015   1.874  12.717 -2.6869  1.0136  1.3289
19726TIP3    H280670   2.051   1.954  12.841  2.9633  0.8202  0.0723
19727TIP3   OH280671   3.689   3.094   0.518 -0.4173  0.0105 -0.2578
19727TIP3    H180672   3.669   3.185   0.538 -0.0666  0.0931 -0.2774
19727TIP3    H280673   3.700   3.092   0.423  4.4272  0.9973  0.0008
19728TIP3   OH280674   4.467   4.334  10.451  0.2391  0.1268  0.5594
19728TIP3    H180675   4.473   4.245  10.417  1.0558  0.2847  0.2791
19728TIP3    H280676   4.556   4.370  10.444 -0.0235  0.8843  0.8894
19729TIP3   OH280677   2.235   3.525   5.396  0.5917  0.2239 -0.0872
19729TIP3    H180678   2.259   3.604   5.444  0.8006  0.9109 -1.2896
19729TIP3    H280679   2.139   3.524   5.398  0.6032  0.1180  0.5354
19730TIP3   OH280680   1.935   3.475  14.161 -0.2628 -0.2568 -0.2526
19730TIP3    H180681   2.013   3.428  14.132 -0.2324  0.2537 -1.0264
19730TIP3    H280682   1.914   3.436  14.246  0.1797 -1.1705 -0.5428
19731TIP3   OH280683   5.860   4.809   4.932 -0.3343 -0.2214  0.2399
19731TIP3    H180684   5.863   4.903   4.949  0.2302  0.1047 -1.4204
19731TIP3    H280685   5.819   4.771   5.009 -0.3006  1.3563  1.0627
19732TIP3   OH280686   5.675   0.644  15.142  0.2882  0.2407 -0.2123
19732TIP3    H180687   5.730   0.627  15.219  1.0632  1.5288 -0.4571
19732TIP3    H280688   5.613   0.711  15.172 -0.0472  0.0329 -0.4381
19733TIP3   OH280689   4.544   1.349  14.436 -0.1742  0.1591  0.2490
19733TIP3    H180690   4.596   1.308  14.367  0.0649  0.7202  0.0868
19733TIP3    H280691   4.453   1.328  14.412 -0.0577 -0.3046  0.1965
19734TIP3   OH280692   4.436   0.191   4.370 -0.1215 -0.3626 -0.5890
19734TIP3    H180693   4.473   0.103   4.361 -0.0446 -0.3334 -0.5569
19734TIP3    H280694   4.385   0.187   4.450  0.7208 -0.0820 -0.0263
19735TIP3   OH280695   1.787   6.167  16.827  0.3361  0.2605 -0.3035
19735TIP3    H180696   1.697   6.141  16.846  0.0055  1.4437 -0.1753
19735TIP3    H280697   1.779   6.253  16.786  1.5990  2.5177  3.6676
19736TIP3   OH280698   3.290   3.179  11.081  0.3148 -0.4074 -0.0304
19736TIP3    H180699   3.366   3.209  11.031  0.1149  0.4984  0.1732
19736TIP3    H280700   3.262   3.099  11.037  0.7124 -0.1421 -0.7897
19737TIP3   OH280701   1.610   3.175   3.431 -0.2857  0.0135  0.3415
19737TIP3    H180702   1.527   3.183   3.384 -0.8924 -0.9279  1.2103
19737TIP3    H280703   1.626   3.263   3.465 -0.8433  0.2477  0.0268
19738TIP3   OH280704   3.385   4.899   5.375 -0.0946  0.3243  0.1297
19738TIP3    H180705   3.390   4.925   5.283  0.7090  2.5023  0.7469
19738TIP3    H280706   3.456   4.835   5.386  0.6776  1.0570 -0.4689
19739TIP3   OH280707   1.973   6.115  17.180 -0.7508  0.3231  0.0818
19739TIP3    H180708   1.954   6.162  17.099  0.0581 -0.9756 -0.8810
19739TIP3    H280709   2.057   6.151  17.210 -0.3714 -0.1710 -0.3924
19740TIP3   OH280710   3.127   3.249   0.551  0.3877  0.1040 -0.8092
19740TIP3    H180711   3.178   3.182   0.506  1.2768 -0.0352  0.3557
19740TIP3    H280712   3.119   3.217   0.641 -0.3916  0.8893 -0.5868
19741TIP3   OH280713   4.984   2.325   0.466 -0.1160  0.7824  0.0580
19741TIP3    H180714   5.007   2.288   0.381 -0.4421  1.6862 -0.4406
19741TIP3    H280715   5.030   2.409   0.469 -0.2863  0.8609  0.6816
19742TIP3   OH280716   2.090   0.050  13.360  0.5837  0.1312 -0.3455
19742TIP3    H180717   2.179   0.049  13.326  0.1658 -1.8615 -1.4840
19742TIP3    H280718   2.061   0.141  13.349  2.2916  0.6919 -0.3904
19743TIP3   OH280719   1.332   0.720   5.572 -0.1899  0.0634  0.1544
19743TIP3    H180720   1.396   0.666   5.619 -1.7887 -1.9885  0.1138
19743TIP3    H280721   1.370   0.808   5.574  1.5116 -0.6079  2.1513
19744TIP3   OH280722   2.992   4.895   1.802  0.2509 -0.5507  0.3885
19744TIP3    H180723   2.972   4.919   1.893  1.7722  1.1693  0.3389
19744TIP3    H280724   3.027   4.806   1.808 -0.0104 -0.6049  1.4334
19745TIP3   OH280725   2.814   2.828  16.637 -0.1746  0.0433  0.5284
19745TIP3    H180726   2.850   2.785  16.559 -2.3577 -1.0359  0.0602
19745TIP3    H280727   2.776   2.909  16.604  0.8843  0.7036  0.8725
19746TIP3   OH280728   5.767   3.451   5.738 -0.3938 -0.1582 -0.1753
19746TIP3    H180729   5.860   3.448   5.714  0.3427 -0.8860  2.4648
19746TIP3    H280730   5.724   3.396   5.672  1.3344 -1.3209 -0.4084
19747TIP3   OH280731   3.626   2.591   1.542 -0.0329 -0.1771  0.1412
19747TIP3    H180732   3.576   2.620   1.466  1.2565  1.4302 -0.1793
19747TIP3    H280733   3.590   2.642   1.615  0.2043 -0.0402  0.1656
19748TIP3   OH280734   3.089   4.697  16.662  0.3421 -0.5402  0.3953
19748TIP3    H180735   3.022   4.756  16.697  1.5245  1.8408 -1.1152
19748TIP3    H280736   3.039   4.625  16.622 -1.2378  0.3826  0.6317
19749TIP3   OH280737   4.633   6.808  12.808  0.1420 -0.2094 -0.1066
19749TIP3    H180738   4.683   6.877  12.764  0.3242 -0.1542  0.1886
19749TIP3    H280739   4.604   6.751  12.737 -0.9185  0.7447 -0.4829
19750TIP3   OH280740   5.859   0.149   5.502 -0.4253  0.1347 -0.0988
19750TIP3    H180741   5.797   0.076   5.511  0.4955 -0.5888  0.6624
19750TIP3    H280742   5.900   0.155   5.588  0.8141  0.3520 -0.6872
19751TIP3   OH280743   6.711   6.640  12.686  0.6530 -0.1986  0.7624
19751TIP3    H180744   6.750   6.582  12.621 -0.5310  0.7868 -0.9037
19751TIP3    H280745   6.711   6.589  12.767  0.9113 -1.9878 -0.3209
19752TIP3   OH280746   3.043   4.463  14.533 -0.1628  0.1799  0.6583
19752TIP3    H180747   2.985   4.473  14.457 -1.7907  1.1824  1.9897
19752TIP3    H280748   3.126   4.432  14.495 -1.1699 -0.1373 -1.4273
19753TIP3   OH280749   5.881   6.341  15.291 -0.0500 -0.3555  0.1607
19753TIP3    H180750   5.870   6.279  15.363 -1.3708 -1.0589 -0.5964
19753TIP3    H280751   5.809   6.402  15.301 -0.1835 -0.3966 -0.4830
19754TIP3   OH280752   1.515   3.594   2.397 -0.3951 -0.3520 -0.0239
19754TIP3    H180753   1.486   3.651   2.468 -1.6207  0.1668 -0.9029
19754TIP3    H280754   1.471   3.511   2.414 -1.3155  0.0101 -0.5899
19755TIP3   OH280755   2.787   3.775  13.131  0.3314 -0.0411  0.3818
19755TIP3    H180756   2.787   3.702  13.069 -1.1964 -0.9336  1.3287
19755TIP3    H280757   2.714   3.831  13.102 -0.9111 -0.8743  1.7310
19756TIP3   OH280758   4.347   5.277  17.276  0.4836  0.1010  0.0975
19756TIP3    H180759   4.298   5.321  17.345  0.7254  3.0021 -1.4335
19756TIP3    H280760   4.281   5.224  17.230 -0.0550 -0.3076  1.2936
19757TIP3   OH280761   4.802   5.049   2.211 -0.4476  0.4378  0.6697
19757TIP3    H180762   4.790   5.002   2.293  1.9716 -1.3230  0.1214
19757TIP3    H280763   4.769   4.990   2.144  0.3560  0.5424  0.1642
19758TIP3   OH280764   1.400   1.611   0.821 -0.6654 -0.1072 -0.2252
19758TIP3    H180765   1.489   1.596   0.853 -0.7563 -0.3840 -0.0951
19758TIP3    H280766   1.406   1.689   0.766 -0.4128  0.0917  0.0851
19759TIP3   OH280767   5.384   1.108   0.852 -1.3907 -0.4489  0.1023
19759TIP3    H180768   5.329   1.173   0.808 -1.4230  0.5330  1.4983
19759TIP3    H280769   5.404   1.148   0.937  0.9549 -1.0270 -0.0919
19760TIP3   OH280770   6.549   6.756   4.267  0.1557 -0.0303 -0.1551
19760TIP3    H180771   6.635   6.768   4.225  0.1619  0.1663 -0.0877
19760TIP3    H280772   6.566   6.774   4.360  0.4745 -1.9595  0.1957
19761TIP3   OH280773   6.673   3.499  13.026 -0.1354  0.2368 -0.4050
19761TIP3    H180774   6.606   3.440  12.990 -1.5898  1.5327  0.1055
19761TIP3    H280775   6.678   3.570  12.962 -0.3671  0.9116  0.3192
19762TIP3   OH280776   5.230   2.496   4.156  0.4507 -0.0049 -0.1985
19762TIP3    H180777   5.201   2.560   4.091  1.9758  0.2322 -0.6952
19762TIP3    H280778   5.153   2.477   4.208 -0.7375  0.0902 -1.8470
19763TIP3   OH280779   2.370   0.458   5.982 -0.1953 -0.4331 -0.5272
19763TIP3    H180780   2.453   0.412   5.996 -1.3816 -1.9541  2.3019
19763TIP3    H280781   2.388   0.548   6.012  0.4239 -0.7769  0.1674
19764TIP3   OH280782   3.168   5.942   1.851 -0.5111 -0.5638 -0.0279
19764TIP3    H180783   3.113   6.020   1.857  1.0242  0.5912 -0.2049
19764TIP3    H280784   3.210   5.949   1.765  0.9263 -0.6587  0.6310
19765TIP3   OH280785   3.732   3.960  16.720  0.1077  0.4574  1.1217
19765TIP3    H180786   3.651   3.991  16.759  0.6463 -0.3072  2.9288
19765TIP3    H280787   3.801   4.012  16.762  0.5456  1.7555 -1.0570
19766TIP3   OH280788   2.859   6.309  12.165  0.3865  0.1872 -0.5434
19766TIP3    H180789   2.813   6.384  12.203  4.1919  2.9296 -0.7859
19766TIP3    H280790   2.906   6.346  12.089  2.3770 -2.4510 -0.7265
19767TIP3   OH280791   3.511   2.549  16.499 -0.0891  0.1011 -0.5700
19767TIP3    H180792   3.535   2.585  16.584 -0.5520  0.0856 -0.4311
19767TIP3    H280793   3.562   2.469  16.492 -0.6654 -0.3300  0.0564
19768TIP3   OH280794   5.965   5.545   3.470  0.9809 -0.1632 -0.6703
19768TIP3    H180795   6.007   5.621   3.512 -0.5685 -0.2965  1.2670
19768TIP3    H280796   6.018   5.470   3.499  0.0035 -0.2410  1.0717
19769TIP3   OH280797   1.227   3.481  16.483  0.3058 -0.2389  0.0570
19769TIP3    H180798   1.312   3.437  16.483  0.0094 -0.9207 -2.1454
19769TIP3    H280799   1.165   3.413  16.507  0.0897 -0.5056 -1.1925
19770TIP3   OH280800   0.189   5.823  16.579  0.7716 -0.2347 -0.7706
19770TIP3    H180801   0.210   5.749  16.522  1.6936 -0.5808 -0.0217
19770TIP3    H280802   0.244   5.810  16.656 -2.4379 -1.3393  1.5447
19771TIP3   OH280803   3.040   0.002  11.906 -0.7053  0.1397  0.0080
19771TIP3    H180804   3.067   0.077  11.852 -1.9672  0.8584  0.3622
19771TIP3    H280805   3.097   0.007  11.983  1.2967 -1.0382 -1.2827
19772TIP3   OH280806   6.444   2.347  14.232 -0.2750 -0.0319  0.4434
19772TIP3    H180807   6.474   2.425  14.185 -1.6423  0.1901 -0.1132
19772TIP3    H280808   6.465   2.274  14.174 -0.5795  0.0974  0.1678
19773TIP3   OH280809   1.949   2.576  11.528 -0.1277 -0.0266 -0.1249
19773TIP3    H180810   1.943   2.482  11.514 -0.7631  0.2709 -2.1646
19773TIP3    H280811   2.041   2.591  11.551  0.1070 -1.0750 -0.3507
19774TIP3   OH280812   2.157   2.193  15.399 -0.1531 -0.0584  0.2897
19774TIP3    H180813   2.184   2.170  15.310 -0.6518 -1.0011  0.3653
19774TIP3    H280814   2.237   2.223  15.442  0.1903 -0.0860 -0.3286
19775TIP3   OH280815   2.140   5.443  10.733  0.2219 -0.1120  0.4924
19775TIP3    H180816   2.105   5.514  10.677  0.9709  0.2338  0.4501
19775TIP3    H280817   2.233   5.441  10.712  0.2978 -0.7547  0.8991
19776TIP3   OH280818   5.021   1.400  15.820  0.2289 -0.1622 -0.1523
19776TIP3    H180819   4.944   1.421  15.872  1.0704 -1.8712  1.9233
19776TIP3    H280820   5.093   1.448  15.862  0.8273 -1.1006 -0.0682
19777TIP3   OH280821   1.122   4.833  11.321  0.3977  0.1527 -0.4236
19777TIP3    H180822   1.147   4.912  11.368 -0.1284  0.1245 -0.0840
19777TIP3    H280823   1.124   4.858  11.229  1.1661  0.2877 -0.3753
19778TIP3   OH280824   6.402   2.421  15.476 -0.5720  0.0090  0.3057
19778TIP3    H180825   6.428   2.329  15.472 -2.7748 -0.6349 -1.0690
19778TIP3    H280826   6.484   2.469  15.488  0.8169 -2.0307 -0.5236
19779TIP3   OH280827   3.423   6.402   5.330 -0.4681 -0.2161 -0.0962
19779TIP3    H180828   3.510   6.378   5.362 -1.2100 -1.6666  0.9461
19779TIP3    H280829   3.435   6.420   5.237  0.6256 -2.2511 -0.4040
19780TIP3   OH280830   1.941   2.112   0.339 -0.1238 -0.4265 -0.5508
19780TIP3    H180831   1.897   2.037   0.378  0.4976 -0.3470  0.3405
19780TIP3    H280832   1.964   2.083   0.251 -0.8345 -0.8988 -0.5901
19781TIP3   OH280833   3.646   2.345   0.955 -0.0642 -0.1646 -0.6241
19781TIP3    H180834   3.635   2.409   1.026  0.8651 -0.1600 -0.4626
19781TIP3    H280835   3.588   2.376   0.885  1.1145  1.4533 -0.9404
19782TIP3   OH280836   3.105   6.329   3.869  0.2510  0.2406  0.0108
19782TIP3    H180837   3.180   6.279   3.836  0.1609  0.4845 -0.5801
19782TIP3    H280838   3.029   6.277   3.845  0.2339 -0.0581  0.7045
19783TIP3   OH280839   6.507   5.826   2.998 -0.3129  0.1697 -0.2542
19783TIP3    H180840   6.538   5.913   3.024 -0.7644  0.2605 -0.0277
19783TIP3    H280841   6.490   5.834   2.904 -3.0546  1.1532  0.2338
19784TIP3   OH280842   5.701   1.909  14.181 -0.8222  1.1081 -0.1192
19784TIP3    H180843   5.637   1.865  14.125 -0.8101  1.6297 -0.5516
19784TIP3    H280844   5.756   1.957  14.120  1.4283 -1.1018  0.0280
19785TIP3   OH280845   3.675   3.349   2.400 -0.1102  0.2000 -0.5218
19785TIP3    H180846   3.642   3.260   2.406  0.9176 -0.1357  0.3367
19785TIP3    H280847   3.598   3.404   2.416 -0.4863 -0.5411  0.3000
19786TIP3   OH280848   4.061   5.277   0.739 -0.4656 -0.3448 -0.8149
19786TIP3    H180849   4.131   5.340   0.759 -0.2988 -0.3774 -1.2715
19786TIP3    H280850   4.066   5.212   0.809 -0.0096 -0.3691 -0.8638
19787TIP3   OH280851   5.234   5.227  13.003 -0.2025 -0.1967  0.1423
19787TIP3    H180852   5.305   5.261  13.058 -0.8734 -0.5897  1.3037
19787TIP3    H280853   5.278   5.195  12.924  0.9974 -0.8674  1.0381
19788TIP3   OH280854   4.277   4.423   2.037 -0.6241 -0.2518 -0.2010
19788TIP3    H180855   4.241   4.338   2.014 -1.5528 -0.3970  1.6711
19788TIP3    H280856   4.200   4.479   2.050 -0.0996  1.7336 -4.0392
19789TIP3   OH280857   6.301   1.315   6.372 -0.6411 -0.0962  0.4501
19789TIP3    H180858   6.233   1.365   6.418 -0.3543 -0.2831  1.0816
19789TIP3    H280859   6.355   1.277   6.442 -0.7901 -1.2096 -0.0100
19790TIP3   OH280860   0.408   1.227   6.002  1.0598 -0.2769  0.0129
19790TIP3    H180861   0.317   1.204   5.985  0.7197  0.7464  0.3609
19790TIP3    H280862   0.443   1.252   5.917  0.4607  1.1318  0.1497
19791TIP3   OH280863   6.418   0.094   2.455 -0.2409  0.7628  0.2810
19791TIP3    H180864   6.480   0.031   2.492 -0.7381  0.2826  0.3159
19791TIP3    H280865   6.469   0.145   2.393  0.7012  1.7957  1.8284
19792TIP3   OH280866   4.755   5.185   3.483 -0.4250 -0.0392  0.0053
19792TIP3    H180867   4.799   5.267   3.503  1.9417 -1.2850  0.1924
19792TIP3    H280868   4.739   5.145   3.568 -0.7331 -0.1872 -0.1203
19793TIP3   OH280869   1.532   5.296   2.466  0.7608 -0.4000 -0.1030
19793TIP3    H180870   1.474   5.244   2.410 -1.1237  0.0816  1.2900
19793TIP3    H280871   1.474   5.331   2.534  2.7972 -0.3286  1.7101
19794TIP3   OH280872   0.655   2.164  14.268  0.7757 -0.1325 -0.4458
19794TIP3    H180873   0.657   2.069  14.265  0.0322 -0.1461 -0.7877
19794TIP3    H280874   0.651   2.190  14.176  0.5335  0.2121 -0.3394
19795TIP3   OH280875   2.708   4.631   5.042  0.2459  0.5363  0.4752
19795TIP3    H180876   2.736   4.723   5.045 -0.6106  0.8066  0.5919
19795TIP3    H280877   2.688   4.610   5.133 -0.3414  0.4943  0.3415
19796TIP3   OH280878   2.287   0.958   5.722  0.1558 -0.0606 -0.5155
19796TIP3    H180879   2.277   1.034   5.779  1.1189  0.4956 -1.0578
19796TIP3    H280880   2.364   0.912   5.755  0.0857 -0.3261 -0.7139
19797TIP3   OH280881   0.782   4.387  11.219  0.3638 -0.1552  0.0208
19797TIP3    H180882   0.848   4.435  11.168 -0.7027  0.5600 -0.7300
19797TIP3    H280883   0.704   4.442  11.215 -0.1200 -0.6913  1.4136
19798TIP3   OH280884   0.482   0.287   6.151 -0.1587  0.5107 -0.3585
19798TIP3    H180885   0.437   0.368   6.125 -2.5833 -0.7784 -0.4980
19798TIP3    H280886   0.496   0.297   6.245 -2.0417  0.4490 -0.0177
19799TIP3   OH280887   1.185   2.036  13.815  0.1213 -0.3482  0.3530
19799TIP3    H180888   1.202   2.104  13.880 -0.2830  0.8613 -0.7692
19799TIP3    H280889   1.233   2.065  13.738  0.6793 -1.8133  0.1120
19800TIP3   OH280890   0.076   1.401  11.925  0.3524  0.3226  0.0629
19800TIP3    H180891   0.152   1.423  11.979  1.0659 -0.1421 -0.7413
19800TIP3    H280892   0.001   1.435  11.975  0.8978 -0.8473  1.7788
19801TIP3   OH280893   2.489   3.632   1.412  0.4146 -0.7352  0.1151
19801TIP3    H180894   2.445   3.691   1.351 -1.6852 -2.7628 -0.4671
19801TIP3    H280895   2.469   3.544   1.379  1.7609 -1.8401  2.0497
19802TIP3   OH280896   3.785   1.379  16.342  0.4372  0.2097 -0.3610
19802TIP3    H180897   3.713   1.342  16.392  0.3553 -0.4798 -0.9853
19802TIP3    H280898   3.754   1.381  16.252  0.6961  1.1715 -0.4471
19803TIP3   OH280899   0.335   1.563   3.243 -0.1565  0.5341 -0.0888
19803TIP3    H180900   0.280   1.623   3.293 -0.9049 -0.0307 -0.2227
19803TIP3    H280901   0.288   1.479   3.244  0.6345  0.0704 -0.3125
19804TIP3   OH280902   5.490   5.995  12.175  0.2690 -0.6237  0.3200
19804TIP3    H180903   5.551   6.032  12.239 -0.2356  0.2917  0.2866
19804TIP3    H280904   5.514   6.037  12.092 -0.9218  0.4029  0.4611
19805TIP3   OH280905   0.633   2.075  14.885  0.0700 -0.2674 -0.0192
19805TIP3    H180906   0.617   2.163  14.851  1.2530  0.4410  1.1283
19805TIP3    H280907   0.553   2.052  14.932  0.7158  1.3959  2.0369
19806TIP3   OH280908   0.435   4.705  12.883 -0.1136  0.5283 -0.0969
19806TIP3    H180909   0.347   4.671  12.867 -0.1225  0.3109  0.3890
19806TIP3    H280910   0.431   4.739  12.972  0.0952  1.1699 -0.3276
19807TIP3   OH280911   0.710   6.701   3.346  0.2066 -0.0782 -0.4524
19807TIP3    H180912   0.751   6.616   3.337  0.9708  0.3078 -0.6678
19807TIP3    H280913   0.729   6.746   3.263 -0.5650  0.1409 -0.5175
19808TIP3   OH280914   4.295   6.438  12.640 -0.2332 -0.3751  0.0928
19808TIP3    H180915   4.319   6.345  12.649  0.7475 -0.1615 -0.1395
19808TIP3    H280916   4.280   6.449  12.546  1.2269  0.0385 -0.1207
19809TIP3   OH280917   5.962   4.495  14.782  0.0070  0.8076 -0.5914
19809TIP3    H180918   5.999   4.411  14.807 -0.4493  1.3128  2.0335
19809TIP3    H280919   5.867   4.484  14.789 -0.0865  1.3833 -0.8230
19810TIP3   OH280920   4.934   2.027  12.903  0.0489  0.0285 -0.3778
19810TIP3    H180921   5.010   2.066  12.859 -0.0815  1.4151  0.5794
19810TIP3    H280922   4.881   2.102  12.930 -0.0714 -0.7822  1.7899
19811TIP3   OH280923   5.071   5.188  15.605 -0.0324 -0.5483 -0.3580
19811TIP3    H180924   5.083   5.201  15.699 -1.1557  1.0184 -0.3844
19811TIP3    H280925   5.151   5.225  15.566  0.1322 -0.5752 -0.0504
19812TIP3   OH280926   5.132   4.565   2.982 -0.5513  0.3797 -0.1900
19812TIP3    H180927   5.038   4.585   2.990 -0.7445 -0.1828 -0.8861
19812TIP3    H280928   5.140   4.475   3.011 -0.0200  0.7819  0.9791
19813TIP3   OH280929   3.268   0.041  17.174  0.1176 -0.3921 -0.6289
19813TIP3    H180930   3.332   0.098  17.131  0.5667 -1.0704 -0.8692
19813TIP3    H280931   3.186   0.090  17.169  0.5376  0.3195 -0.6552
19814TIP3   OH280932   6.769   3.714  13.379 -0.4997 -0.0933  0.4906
19814TIP3    H180933   6.808   3.776  13.317 -0.4152 -1.7149 -1.1808
19814TIP3    H280934   6.676   3.735  13.379 -0.4248  0.2485  0.2098
19815TIP3   OH280935   2.867   4.279   6.483 -0.3925  0.2748  0.6223
19815TIP3    H180936   2.863   4.192   6.523  0.6799  0.6770  1.6545
19815TIP3    H280937   2.952   4.281   6.440 -0.3852  0.8418  0.6585
19816TIP3   OH280938   2.704   5.780  16.004  0.2007  0.4547 -0.1013
19816TIP3    H180939   2.628   5.835  15.988  0.2607  0.1838 -1.4236
19816TIP3    H280940   2.774   5.841  16.027  0.4051  1.0175 -2.0629
19817TIP3   OH280941   0.014   2.766  13.347 -0.4398 -0.2796  0.3992
19817TIP3    H180942  -0.046   2.708  13.299  1.5330  0.1221 -2.9271
19817TIP3    H280943  -0.009   2.854  13.317 -0.4912  0.2499  1.9239
19818TIP3   OH280944   2.368   0.755  14.631  0.5649 -0.2426 -0.4909
19818TIP3    H180945   2.322   0.808  14.566  1.0601 -0.5438 -1.0980
19818TIP3    H280946   2.438   0.713  14.582  0.2074 -1.4313 -0.0251
19819TIP3   OH280947   1.969   4.223  11.479  0.0357 -0.7538 -0.4240
19819TIP3    H180948   1.893   4.165  11.483  0.6818 -1.8112 -2.2707
19819TIP3    H280949   1.948   4.286  11.411  1.2093 -1.7479 -1.7760
19820TIP3   OH280950   4.317   4.779   0.471  0.1978 -0.4940  0.3131
19820TIP3    H180951   4.409   4.761   0.450 -0.0980  1.2431 -3.2726
19820TIP3    H280952   4.268   4.714   0.421 -0.6084 -0.8984  1.5688
19821TIP3   OH280953   0.056   0.319   3.330  0.0011  0.0074  0.1933
19821TIP3    H180954   0.022   0.283   3.249 -2.2822  2.9135 -0.3067
19821TIP3    H280955   0.147   0.343   3.309 -0.0394 -0.7803 -0.9589
19822TIP3   OH280956   4.132   3.563   5.437 -0.2502 -0.1335 -0.1356
19822TIP3    H180957   4.216   3.553   5.393 -0.9579 -1.1959 -1.2951
19822TIP3    H280958   4.124   3.485   5.491 -0.4034  0.0849  0.1650
19823TIP3   OH280959   2.477   3.769  14.457  0.2028  0.3404 -0.7042
19823TIP3    H180960   2.540   3.786  14.387  2.1179 -0.4167  0.7399
19823TIP3    H280961   2.470   3.853  14.503 -0.2338  0.5456 -1.1264
19824TIP3   OH280962   1.846   2.796  12.562  0.4729  0.2830  0.0792
19824TIP3    H180963   1.898   2.876  12.571  0.9365 -0.0741  0.6329
19824TIP3    H280964   1.755   2.828  12.557  0.7981  1.0499 -2.9816
19825TIP3   OH280965   4.533   2.379  10.699 -0.2198 -0.3076  0.5152
19825TIP3    H180966   4.503   2.442  10.765  1.4778 -0.7301  1.7623
19825TIP3    H280967   4.623   2.405  10.680 -1.1146  0.8593 -3.0269
19826TIP3   OH280968   1.566   6.383  17.242  0.2408 -0.3076  0.4423
19826TIP3    H180969   1.600   6.457  17.294  2.0700 -0.5229 -0.3654
19826TIP3    H280970   1.584   6.408  17.151  0.7987 -1.6925  0.1495
19827TIP3   OH280971   5.103   4.988  11.441 -0.0648  0.4296 -0.1188
19827TIP3    H180972   5.087   4.928  11.513 -1.6383  0.9062 -0.0277
19827TIP3    H280973   5.045   4.958  11.371 -0.2989  1.3624 -0.3420
19828TIP3   OH280974   0.817   6.185   0.383 -0.0491  0.2003 -0.2343
19828TIP3    H180975   0.799   6.251   0.317 -0.2694  0.4309  0.0559
19828TIP3    H280976   0.758   6.206   0.456  0.4863  0.2056  0.2070
19829TIP3   OH280977   0.353   5.446  14.111  0.0470  0.2092 -0.2195
19829TIP3    H180978   0.358   5.354  14.135 -0.4728  0.3835  0.5889
19829TIP3    H280979   0.278   5.452  14.051 -2.1934  0.6361  2.4597
19830TIP3   OH280980   6.361   4.107  17.013 -0.4440  0.2620  0.1574
19830TIP3    H180981   6.413   4.168  17.066  0.1960  0.9115 -1.1639
19830TIP3    H280982   6.275   4.148  17.006 -0.0805  0.9436 -0.5435
19831TIP3   OH280983   3.667   1.690  10.673  0.3960  0.0719 -0.0572
19831TIP3    H180984   3.657   1.596  10.659  0.6710 -0.3521  2.1847
19831TIP3    H280985   3.662   1.729  10.586  0.6640 -2.0561 -1.0663
19832TIP3   OH280986   5.074   5.631   6.158 -0.0761  0.5524 -0.2875
19832TIP3    H180987   4.997   5.666   6.203  0.4364 -0.9872  1.9229
19832TIP3    H280988   5.114   5.708   6.116 -1.8239  1.6699  0.0026
19833TIP3   OH280989   3.778   6.650   5.658  0.2308 -0.2230 -0.1121
19833TIP3    H180990   3.797   6.669   5.750  0.4596  1.8784 -0.5390
19833TIP3    H280991   3.809   6.727   5.611 -0.2670 -1.0735 -1.9266
19834TIP3   OH280992   4.596   0.768   2.503 -0.4207 -0.6235  0.6132
19834TIP3    H180993   4.678   0.751   2.458 -1.8353 -0.8305 -2.1015
19834TIP3    H280994   4.580   0.688   2.554  0.4933 -1.0375  0.2748
19835TIP3   OH280995   3.480   1.951   5.029  0.4228  0.1592  0.5031
19835TIP3    H180996   3.500   2.034   4.986  0.8648 -0.2786 -0.1529
19835TIP3    H280997   3.531   1.953   5.110  1.1402  0.1451  0.0585
19836TIP3   OH280998   1.658   5.852  11.715  0.6601  0.0869  0.9408
19836TIP3    H180999   1.717   5.927  11.716  0.0097  0.6397 -0.1936
19836TIP3    H281000   1.570   5.890  11.721  0.3661 -0.6745  1.7505
19837TIP3   OH281001   4.275   6.043   3.630 -0.4012 -0.6255  0.1079
19837TIP3    H181002   4.282   6.136   3.606 -0.8051 -0.1822  1.5811
19837TIP3    H281003   4.302   6.040   3.722 -0.1112 -2.0268 -0.0052
19838TIP3   OH281004   2.330   3.342   3.004  0.5009 -0.4700 -0.0399
19838TIP3    H181005   2.244   3.353   2.963 -0.4543 -1.0669  1.7283
19838TIP3    H281006   2.382   3.415   2.969 -2.1150  2.9167  2.4160
19839TIP3   OH281007   4.461   0.855   3.501 -0.3039 -0.1295  0.1839
19839TIP3    H181008   4.535   0.913   3.482 -0.1712 -0.2031  0.4718
19839TIP3    H281009   4.384   0.911   3.489 -0.1318  0.6106  2.1032
19840TIP3   OH281010   0.880   3.681   6.695  0.1732  0.6461  0.0997
19840TIP3    H181011   0.850   3.595   6.723 -0.7907  0.4956 -1.2797
19840TIP3    H281012   0.803   3.722   6.655  0.4719  2.3699  1.1749
19841TIP3   OH281013   2.908   1.659  17.184  0.2119  0.2672  0.0173
19841TIP3    H181014   2.875   1.650  17.273  1.5640 -1.2961  0.4182
19841TIP3    H281015   2.833   1.688  17.133 -1.0947 -0.7007  1.3113
19842TIP3   OH281016   5.437   2.858   4.818  0.3841 -0.0083  0.2313
19842TIP3    H181017   5.514   2.863   4.874 -0.9199 -0.0988  2.1099
19842TIP3    H281018   5.440   2.770   4.780  2.0518  0.5472 -1.1073
19843TIP3   OH281019   3.255   0.762  12.599  0.4804 -0.2324  0.0480
19843TIP3    H181020   3.336   0.797  12.635 -0.7959  2.4434  0.6606
19843TIP3    H281021   3.255   0.790  12.508 -0.6953  1.9669  0.6211
19844TIP3   OH281022   3.971   2.520   3.216 -0.2421 -0.0986 -0.3635
19844TIP3    H181023   4.038   2.479   3.161 -0.1250 -1.6085  0.8194
19844TIP3    H281024   3.902   2.545   3.155  0.4582 -0.5191 -1.3536
19845TIP3   OH281025   2.167   0.248   0.109 -0.2021  0.1772  0.4570
19845TIP3    H181026   2.136   0.294   0.031 -0.8516  0.7197  1.0290
19845TIP3    H281027   2.206   0.167   0.074 -0.4259  0.4360 -0.4313
19846TIP3   OH281028   3.192   0.454  15.987  0.0593  0.0923 -0.0675
19846TIP3    H181029   3.115   0.398  15.993 -0.6036  0.9711 -0.2908
19846TIP3    H281030   3.231   0.451  16.074  1.2772 -2.4279 -0.6026
19847TIP3   OH281031   0.064   0.227  16.809  0.3186 -0.3405  0.3844
19847TIP3    H181032   0.049   0.285  16.883  0.8649  0.8418 -0.3920
19847TIP3    H281033  -0.022   0.189  16.790 -0.6601  2.1620 -0.6321
19848TIP3   OH281034   1.206   5.855  13.045 -0.3314 -0.1231  0.3226
19848TIP3    H181035   1.285   5.844  13.098  0.5248  0.2636 -0.8233
19848TIP3    H281036   1.239   5.865  12.955 -1.7401 -1.1881 -0.3555
19849TIP3   OH281037   1.656   3.898   6.778 -0.9554 -0.2772 -0.1021
19849TIP3    H181038   1.641   3.929   6.689 -0.9409 -0.2247 -0.0859
19849TIP3    H281039   1.582   3.840   6.796 -3.6007  3.2701  1.5763
19850TIP3   OH281040   4.319   2.331  15.026 -0.1302 -0.0235 -0.1786
19850TIP3    H181041   4.290   2.369  15.108 -0.6069 -1.0928  0.1723
19850TIP3    H281042   4.367   2.401  14.981  0.1690  0.5546  1.0230
19851TIP3   OH281043   3.567   5.275  14.739 -0.5832  0.0495 -0.2629
19851TIP3    H181044   3.565   5.204  14.674 -0.9135 -0.7599  0.6093
19851TIP3    H281045   3.490   5.328  14.718 -1.7800 -1.2883  0.6213
19852TIP3   OH281046   5.442   4.020   5.993 -0.4361  0.2555  0.3464
19852TIP3    H181047   5.451   4.074   5.914 -1.2532  0.0219  0.0804
19852TIP3    H281048   5.498   4.063   6.058 -0.5599  1.0486 -0.0592
19853TIP3   OH281049   5.774   4.216  16.054  0.0698  0.0759  0.1539
19853TIP3    H181050   5.701   4.166  16.091 -1.0910 -0.6454 -2.7595
19853TIP3    H281051   5.851   4.161  16.069 -0.6868 -1.1307 -0.2519
19854TIP3   OH281052   6.491   0.257   6.800 -0.8730  0.2419  0.0109
19854TIP3    H181053   6.498   0.348   6.830 -0.5044  1.2479 -2.8439
19854TIP3    H281054   6.530   0.206   6.871 -0.4813  2.3530  1.4198
19855TIP3   OH281055   0.028   0.047  11.818  0.2610 -0.4927 -0.0514
19855TIP3    H181056  -0.064   0.064  11.838  0.6854  0.9337  0.7988
19855TIP3    H281057   0.076   0.087  11.891  1.6681  1.0507 -1.7388
19856TIP3   OH281058   5.656   2.476  13.017 -0.1149  0.6494 -0.2434
19856TIP3    H181059   5.629   2.385  13.013 -1.0818  0.9140 -0.1350
19856TIP3    H281060   5.600   2.514  13.085 -0.3793  1.5180 -0.9225
19857TIP3   OH281061   4.847   0.747  15.097  0.3891  0.3501 -0.3731
19857TIP3    H181062   4.813   0.759  15.185  0.1000  2.7483 -0.7558
19857TIP3    H281063   4.840   0.833  15.056  4.0537  0.2677 -1.5195
19858TIP3   OH281064   5.131   1.503  16.489 -0.6451 -0.6149 -0.3396
19858TIP3    H181065   5.204   1.558  16.462 -0.5882 -1.1315 -1.2677
19858TIP3    H281066   5.161   1.460  16.569 -1.1725  1.6678  1.1837
19859TIP3   OH281067   0.635   2.513   1.002  0.3811 -0.0435 -0.6691
19859TIP3    H181068   0.580   2.436   1.017  0.6861 -0.0918  0.2422
19859TIP3    H281069   0.722   2.477   0.986  0.3003  0.0668 -1.3845
19860TIP3   OH281070   3.482   6.261   0.068 -0.0838 -0.4083 -0.2868
19860TIP3    H181071   3.532   6.180   0.081  3.4418  1.8122  1.4007
19860TIP3    H281072   3.429   6.269   0.146  0.6193 -0.4382  0.2049
19861TIP3   OH281073   0.242   6.022   4.490 -0.1540  0.2895 -0.4340
19861TIP3    H181074   0.272   5.987   4.574  3.3650 -0.8778 -1.9941
19861TIP3    H281075   0.274   6.112   4.490  1.1096 -0.1414 -1.0338
19862TIP3   OH281076   4.545   1.025   0.842 -0.4755  0.2648 -0.0376
19862TIP3    H181077   4.528   0.935   0.869 -2.3764  0.7471  0.5084
19862TIP3    H281078   4.547   1.021   0.746  2.6739 -0.8338 -0.0571
19863TIP3   OH281079   2.193   0.304   5.385 -0.0791 -0.1607  0.2472
19863TIP3    H181080   2.275   0.275   5.344 -0.8842 -3.0247  0.4444
19863TIP3    H281081   2.144   0.347   5.315  1.0001  0.3621 -0.2043
19864TIP3   OH281082   6.088   2.565  15.734 -0.2076  0.4778  0.4394
19864TIP3    H181083   6.082   2.623  15.810  0.8325 -0.2991  1.1457
19864TIP3    H281084   6.057   2.481  15.765  1.9431 -0.3284  0.5852
19865TIP3   OH281085   4.654   0.905   1.759  0.0578  0.0156 -0.1894
19865TIP3    H181086   4.704   0.831   1.793  0.0224  0.5079  0.9720
19865TIP3    H281087   4.626   0.877   1.672  0.8128 -0.9751 -0.1252
19866TIP3   OH281088   4.862   0.917  12.578  0.2955 -0.4393  0.2658
19866TIP3    H181089   4.833   1.002  12.610 -0.8458 -0.2406 -1.2114
19866TIP3    H281090   4.850   0.922  12.483  1.5907 -1.7387  0.0009
19867TIP3   OH281091   2.846   0.504  12.803  0.3535 -0.1992  0.2881
19867TIP3    H181092   2.773   0.504  12.741 -0.4721  0.0469  1.2360
19867TIP3    H281093   2.908   0.568  12.766 -0.0324 -0.2034 -0.3821
19868TIP3   OH281094   1.180   6.260  15.838  0.1323  0.1458  0.2851
19868TIP3    H181095   1.246   6.264  15.906 -1.5957 -0.8705  2.1238
19868TIP3    H281096   1.098   6.245  15.885 -0.8623 -2.8684 -2.1043
19869TIP3   OH281097   6.224   3.039  17.155 -0.6293  0.1310 -0.0119
19869TIP3    H181098   6.169   3.038  17.234 -1.2569 -0.7744 -0.4453
19869TIP3    H281099   6.162   3.050  17.083 -0.4765 -2.5485 -0.6529
19870TIP3   OH281100   1.010   2.222   1.686  0.7405 -0.3078  0.2912
19870TIP3    H181101   0.981   2.307   1.652  1.6691 -0.5118 -1.1066
19870TIP3    H281102   1.067   2.244   1.760 -0.2566  0.2151  0.9198
19871TIP3   OH281103   2.314   3.932  13.735  0.1243  0.3586 -0.7363
19871TIP3    H181104   2.276   4.011  13.774  1.9075  1.6074 -1.4178
19871TIP3    H281105   2.401   3.926  13.774  0.1141 -1.1349 -0.9154
19872TIP3   OH281106   4.370   1.422   5.605 -0.2943  0.3644 -0.0609
19872TIP3    H181107   4.398   1.398   5.693  0.7419  2.8250  0.3490
19872TIP3    H281108   4.419   1.361   5.548 -0.0532 -0.4610  0.9963
19873TIP3   OH281109   1.193   2.464   1.009 -0.4631  0.0595  0.0065
19873TIP3    H181110   1.235   2.508   1.083 -0.1831  0.5712 -0.4492
19873TIP3    H281111   1.232   2.377   1.008  0.7757  0.6016 -0.5464
19874TIP3   OH281112   3.760   1.785  15.926  0.4734 -0.0431  0.1765
19874TIP3    H181113   3.677   1.765  15.968  0.5376 -0.1879  0.2354
19874TIP3    H281114   3.738   1.852  15.861  0.4897  0.6669  0.8877
19875TIP3   OH281115   0.132   0.605  15.049 -0.9877 -0.0115 -1.1253
19875TIP3    H181116   0.118   0.513  15.027  0.5502 -0.9358  1.3064
19875TIP3    H281117   0.044   0.642  15.056 -1.7009 -1.6949 -0.7199
19876TIP3   OH281118   3.265   5.527   2.044 -0.1189  0.2413  0.1821
19876TIP3    H181119   3.257   5.457   1.979  0.8808  0.1413  0.1609
19876TIP3    H281120   3.313   5.596   1.999  0.6929  0.1207  0.8550
19877TIP3   OH281121   1.569   1.272  14.164  0.1312  0.2484  0.5855
19877TIP3    H181122   1.490   1.220  14.152  1.2741 -1.3346 -0.4634
19877TIP3    H281123   1.573   1.288  14.259 -2.4726  2.1609  0.4906
19878TIP3   OH281124   3.851   0.477   1.289  0.1251 -0.0392 -0.2032
19878TIP3    H181125   3.844   0.418   1.213  0.5015 -0.8176  0.3520
19878TIP3    H281126   3.945   0.482   1.307  0.1680  1.3253 -0.6812
19879TIP3   OH281127   5.958   2.015   3.173  0.0358 -0.4835 -0.1171
19879TIP3    H181128   5.933   1.985   3.261  0.6320 -0.1707  0.1667
19879TIP3    H281129   5.879   2.001   3.120  0.3943 -2.9432 -0.1145
19880TIP3   OH281130   3.142   1.678   0.011 -0.3192 -0.0472 -0.3124
19880TIP3    H181131   3.204   1.665  -0.061 -0.5601  1.5508 -0.8388
19880TIP3    H281132   3.056   1.655  -0.027 -0.4832  1.0581 -0.6486
19881TIP3   OH281133   5.339   4.828  13.077 -0.0974 -0.7902 -0.0922
19881TIP3    H181134   5.380   4.912  13.054  1.0060 -0.4698  2.6531
19881TIP3    H281135   5.245   4.845  13.068  0.1336  0.4212 -0.5181
19882TIP3   OH281136   4.438   2.564  12.461  0.3903  0.7991  0.2436
19882TIP3    H181137   4.479   2.645  12.491  0.4850  0.1226  2.0786
19882TIP3    H281138   4.511   2.503  12.448  0.8231  1.9387 -4.9386
19883TIP3   OH281139   6.274   1.749   1.512  0.0197 -0.7443 -0.1785
19883TIP3    H181140   6.348   1.696   1.541  0.4026 -0.7530 -1.1228
19883TIP3    H281141   6.243   1.793   1.591  3.2004  1.9316 -0.1713
19884TIP3   OH281142   2.991   0.366   2.351 -0.2111 -0.3244  0.1205
19884TIP3    H181143   3.029   0.376   2.264  0.2101  0.6302  0.3964
19884TIP3    H281144   2.939   0.445   2.364 -1.3578 -1.0734  0.2219
19885TIP3   OH281145   5.184   3.545  16.053 -0.1289 -0.1874  0.3785
19885TIP3    H181146   5.223   3.572  15.970  1.7412  3.2387  2.1128
19885TIP3    H281147   5.259   3.516  16.106 -0.8838  0.1330  1.6665
19886TIP3   OH281148   2.344   4.186   6.570 -0.3275  0.6001 -0.4527
19886TIP3    H181149   2.394   4.246   6.625 -1.6020  2.3214 -1.0780
19886TIP3    H281150   2.263   4.172   6.619 -0.8693  1.0034 -1.2126
19887TIP3   OH281151   3.143   1.816  11.897 -0.2027  0.2805  0.4630
19887TIP3    H181152   3.225   1.858  11.922 -1.9783  5.5341 -1.2073
19887TIP3    H281153   3.157   1.787  11.807  0.4045 -0.9513  0.9314
19888TIP3   OH281154   1.593   2.706   2.315  0.3209 -0.2359 -0.0650
19888TIP3    H181155   1.528   2.708   2.386 -0.6585  0.1585 -0.9482
19888TIP3    H281156   1.629   2.618   2.318 -1.1584 -0.8714 -0.3450
19889TIP3   OH281157   6.482   2.729  11.475 -0.1737 -0.7019 -0.4261
19889TIP3    H181158   6.397   2.728  11.519 -0.1614 -1.8040 -0.4000
19889TIP3    H281159   6.480   2.653  11.417  0.8242 -0.7996 -0.3511
19890TIP3   OH281160   2.586   3.561  16.535  0.0216  0.2296  0.4527
19890TIP3    H181161   2.525   3.631  16.513 -0.3314  0.1627  1.1747
19890TIP3    H281162   2.532   3.496  16.581  0.2009 -0.8329 -0.7686
19891TIP3   OH281163   4.635   5.723   1.385  0.1099  0.3659  0.2970
19891TIP3    H181164   4.584   5.755   1.311  0.8854  2.2174  0.5179
19891TIP3    H281165   4.581   5.741   1.462 -0.7395 -1.6480  0.2432
19892TIP3   OH281166   1.186   0.080   6.438  0.1897  0.2457  0.6236
19892TIP3    H181167   1.204   0.031   6.357 -2.4857 -0.2087  0.2070
19892TIP3    H281168   1.226   0.027   6.507  1.5768  0.0697 -0.2768
19893TIP3   OH281169   1.025   5.928  15.846 -0.0639  0.0309  0.2990
19893TIP3    H181170   1.011   5.998  15.782 -1.5587  0.4921  1.0588
19893TIP3    H281171   1.102   5.881  15.815  0.4400  1.4636 -0.7309
19894TIP3   OH281172   4.920   3.357  11.814  0.3635  0.5964 -0.3867
19894TIP3    H181173   4.912   3.327  11.905  1.2590  2.7724  0.4795
19894TIP3    H281174   5.013   3.346  11.793  0.1778  0.1941 -1.0320
19895TIP3   OH281175   3.173   1.675   4.397  0.5543 -0.5890 -1.1134
19895TIP3    H181176   3.129   1.662   4.313  0.8585 -0.3173 -1.3210
19895TIP3    H281177   3.256   1.718   4.374 -0.0738  1.0092 -0.5392
19896TIP3   OH281178   1.743   5.731   4.099 -0.1823 -0.1476 -0.3450
19896TIP3    H181179   1.758   5.707   4.008  0.7950 -1.5260  0.1440
19896TIP3    H281180   1.826   5.713   4.143 -0.0295  2.2493  0.5100
19897TIP3   OH281181   3.625   4.774   2.955 -0.0638  0.2740 -0.3132
19897TIP3    H181182   3.703   4.799   3.006  0.2680  1.2583 -1.2904
19897TIP3    H281183   3.634   4.679   2.945  0.4374  0.2199  0.5222
19898TIP3   OH281184   2.746   5.908  12.796  0.5894  0.3409 -0.6137
19898TIP3    H181185   2.708   5.857  12.725 -0.8961  0.5355  0.0080
19898TIP3    H281186   2.780   5.986  12.753 -0.8415  0.7481 -1.0656
19899TIP3   OH281187   0.199   4.288   0.574  0.9545  0.1798  0.1899
19899TIP3    H181188   0.120   4.329   0.609  0.8832  0.3695 -0.1899
19899TIP3    H281189   0.183   4.194   0.582  1.1006  0.2185  1.0241
19900TIP3   OH281190   1.331   6.585  16.545 -0.3125  0.1441  0.0501
19900TIP3    H181191   1.390   6.599  16.471 -0.9448  1.6159 -0.2275
19900TIP3    H281192   1.286   6.503  16.525 -0.8367  0.7661 -1.4656
19901TIP3   OH281193   0.331   6.340  11.978  0.6313  0.1265  0.1139
19901TIP3    H181194   0.286   6.261  12.009 -0.1261  0.5391  0.0681
19901TIP3    H281195   0.415   6.339  12.025  0.4828 -0.5215  0.3757
19902TIP3   OH281196   0.899   4.766   2.353 -0.0952 -0.2690  0.5493
19902TIP3    H181197   0.840   4.838   2.375  0.4140 -0.2389  1.9031
19902TIP3    H281198   0.858   4.689   2.392  0.6894 -0.2672  1.3963
19903TIP3   OH281199   5.771   2.126  16.066 -0.3057  0.4545  0.3103
19903TIP3    H181200   5.743   2.193  16.004  0.1889  1.5860  1.2833
19903TIP3    H281201   5.766   2.044  16.016 -4.4226  0.6307  0.0846
19904TIP3   OH281202   1.323   1.251  12.825 -0.1060 -0.0754 -0.1294
19904TIP3    H181203   1.247   1.270  12.881 -0.7659  0.2001 -1.0777
19904TIP3    H281204   1.285   1.211  12.747  0.5360  1.6042 -1.3567
19905TIP3   OH281205   3.587   0.146  16.288 -0.3747  0.4052  0.2471
19905TIP3    H181206   3.633   0.223  16.256  0.5167 -0.1963  0.0258
19905TIP3    H281207   3.641   0.116  16.362  0.6278 -1.3438 -1.1198
19906TIP3   OH281208   5.734   1.523  16.846 -0.1134 -0.1011  0.2287
19906TIP3    H181209   5.683   1.448  16.877 -0.3088  0.3351  0.9920
19906TIP3    H281210   5.801   1.536  16.912 -0.1272  0.4434  0.1473
19907TIP3   OH281211   0.298   0.218  11.644  0.2103 -0.1251  0.2176
19907TIP3    H181212   0.224   0.161  11.623  1.0935 -1.9842  1.8384
19907TIP3    H281213   0.338   0.239  11.560 -0.7230 -1.1087 -0.4913
19908TIP3   OH281214   0.212   6.256  14.508 -0.6989  0.4247  0.0857
19908TIP3    H181215   0.133   6.232  14.557 -1.4856  1.0590 -0.8350
19908TIP3    H281216   0.268   6.179  14.515 -2.2519 -0.8887 -0.9556
19909TIP3   OH281217   4.707   1.505  15.432  0.0024  0.0662 -0.3740
19909TIP3    H181218   4.657   1.584  15.412  0.2402  0.1550 -0.6199
19909TIP3    H281219   4.690   1.488  15.525 -0.8750 -0.1750 -0.5627
19910TIP3   OH281220   4.881   2.838   0.039  0.8274  0.4579 -0.3154
19910TIP3    H181221   4.844   2.752   0.020  2.3055 -0.2403 -0.1431
19910TIP3    H281222   4.805   2.896   0.045 -0.3641 -1.1675  1.4033
19911TIP3   OH281223   6.154   4.465  10.459  0.6038 -0.6856 -0.2241
19911TIP3    H181224   6.169   4.559  10.450 -0.3627 -0.0323  3.5913
19911TIP3    H281225   6.092   4.443  10.389  0.1148  1.6911 -0.5990
19912TIP3   OH281226   2.282   5.622  14.642 -0.1822  0.1068 -0.7770
19912TIP3    H181227   2.339   5.685  14.686  0.0980  1.7351 -3.2764
19912TIP3    H281228   2.343   5.558  14.603 -0.3828 -0.8300  0.3834
19913TIP3   OH281229   5.807   0.650   3.485 -0.1508 -0.0726  0.0953
19913TIP3    H181230   5.838   0.591   3.416 -2.3328  0.2867 -1.3140
19913TIP3    H281231   5.715   0.665   3.463 -0.7247  0.6793  2.6976
19914TIP3   OH281232   2.545   1.763   0.788  0.5368  0.1462  0.0913
19914TIP3    H181233   2.506   1.733   0.706  1.9289 -0.1373 -0.5032
19914TIP3    H281234   2.509   1.850   0.801 -2.1050 -0.9629  0.8488
19915TIP3   OH281235   2.520   1.841  13.425  0.0026 -0.5873 -0.1362
19915TIP3    H181236   2.564   1.902  13.366  0.7110 -0.5611  0.4073
19915TIP3    H281237   2.578   1.765  13.429 -1.1516 -1.5738 -1.2706
19916TIP3   OH281238   6.762   1.652  14.018  0.2528  0.2066  0.2084
19916TIP3    H181239   6.766   1.564  14.055  1.8743  0.3883  0.5307
19916TIP3    H281240   6.668   1.669  14.006 -0.1318 -1.1492  1.1013
19917TIP3   OH281241   0.372   1.092   0.229 -0.1808 -0.0146  0.0168
19917TIP3    H181242   0.343   1.162   0.170  1.5463 -1.0787 -2.2693
19917TIP3    H281243   0.309   1.021   0.214  0.4055 -0.3778 -0.7977
19918TIP3   OH281244   3.578   6.009   0.109  0.0295  0.4088  0.2476
19918TIP3    H181245   3.621   5.924   0.097 -0.0695  0.6851 -2.8278
19918TIP3    H281246   3.530   5.999   0.191  1.5244 -1.8176  0.9782
19919TIP3   OH281247   2.821   0.844  13.232  0.0085 -0.1737  0.3926
19919TIP3    H181248   2.895   0.806  13.281  0.1169 -0.6525 -0.1329
19919TIP3    H281249   2.811   0.786  13.156 -1.4206 -0.5802  0.8694
19920TIP3   OH281250   2.543   4.876   3.396 -0.1016 -0.1283  0.2170
19920TIP3    H181251   2.486   4.805   3.425  3.9884 -3.4211  1.2501
19920TIP3    H281252   2.593   4.839   3.323  2.8289  1.2534  1.3577
19921TIP3   OH281253   2.491   5.009   2.726  0.2722  0.1716 -0.8800
19921TIP3    H181254   2.529   5.082   2.775  0.3485  1.1836 -2.3999
19921TIP3    H281255   2.540   5.007   2.644 -0.2656 -1.0938 -1.1945
19922TIP3   OH281256   2.781   2.279   4.825  0.0989  0.1671  0.7325
19922TIP3    H181257   2.745   2.289   4.737 -1.4047  0.8252  1.3731
19922TIP3    H281258   2.819   2.191   4.826 -1.7262 -0.6933  0.0338
19923TIP3   OH281259   4.137   0.085   5.797  0.5857  0.3256  0.2200
19923TIP3    H181260   4.124   0.168   5.751  2.6315  0.7993  0.3905
19923TIP3    H281261   4.122   0.107   5.889 -0.4794  0.1062  0.1057
19924TIP3   OH281262   2.478   6.752   1.837  0.4751 -0.6065 -0.0413
19924TIP3    H181263   2.508   6.842   1.848 -1.7889  0.0097  2.1904
19924TIP3    H281264   2.513   6.725   1.753  1.4653  2.2639 -0.6690
19925TIP3   OH281265   1.228   0.110  14.147 -0.2173  0.2235  1.1380
19925TIP3    H181266   1.312   0.099  14.191 -0.6934 -0.0239  1.9845
19925TIP3    H281267   1.180   0.030  14.165  0.1256 -0.5618 -1.0879
19926TIP3   OH281268   3.054   1.571  12.236  0.0029 -0.0988 -0.4141
19926TIP3    H181269   2.996   1.617  12.175  0.6121  0.7303 -0.3987
19926TIP3    H281270   3.136   1.560  12.187  0.3726  0.2369  0.1130
19927TIP3   OH281271   5.420   6.258   2.604  0.2085 -0.6531  0.0566
19927TIP3    H181272   5.441   6.287   2.516  0.2703 -1.6291 -0.2601
19927TIP3    H281273   5.391   6.337   2.649  1.1662  0.0576 -0.5298
19928TIP3   OH281274   1.401   6.209   5.241 -0.2569  0.0945  0.1986
19928TIP3    H181275   1.419   6.214   5.335  0.1285 -0.4602  0.1620
19928TIP3    H281276   1.307   6.224   5.233 -0.8527 -2.7408  0.9631
19929TIP3   OH281277   6.374   3.119  13.574 -0.2199  0.4067  0.4451
19929TIP3    H181278   6.385   3.124  13.669  0.3774 -0.4668  0.4349
19929TIP3    H281279   6.287   3.155  13.558  0.6762  3.0590  1.0556
19930TIP3   OH281280   4.539   0.290  13.384 -0.6964 -0.2074 -0.3367
19930TIP3    H181281   4.485   0.249  13.451 -0.6718 -1.2439 -0.9233
19930TIP3    H281282   4.536   0.384  13.404 -2.2477 -0.3015 -0.0377
19931TIP3   OH281283   5.020   4.368  11.200  0.1684  0.4055 -0.3774
19931TIP3    H181284   5.042   4.304  11.132  4.8466 -0.6563  1.7629
19931TIP3    H281285   4.988   4.315  11.273 -0.7421  1.1093 -0.2473
19932TIP3   OH281286   3.703   2.337  14.903  0.2213 -0.3748 -0.4388
19932TIP3    H181287   3.661   2.330  14.818 -0.9213  0.5904  0.0106
19932TIP3    H281288   3.668   2.418  14.941  1.4362 -0.2652  0.5530
19933TIP3   OH281289   6.689   2.489  17.022 -0.7688  1.0422 -0.5895
19933TIP3    H181290   6.680   2.573  17.067  0.7227  0.9188 -0.0013
19933TIP3    H281291   6.600   2.465  16.998 -1.3771  2.1219  0.4774
19934TIP3   OH281292   1.574   5.865   1.153  0.5847 -0.3989  0.4219
19934TIP3    H181293   1.543   5.938   1.207  1.8209  0.5388 -0.1007
19934TIP3    H281294   1.522   5.790   1.183 -1.8303  0.9672 -0.0998
19935TIP3   OH281295   5.733   1.737   4.553 -0.3912  0.1132 -0.0819
19935TIP3    H181296   5.662   1.760   4.614 -0.1923 -1.2026  0.6762
19935TIP3    H281297   5.794   1.686   4.605  0.8295  0.6889 -0.8954
19936TIP3   OH281298   5.452   2.596   4.747 -0.4703 -0.4240 -0.5452
19936TIP3    H181299   5.397   2.590   4.825 -1.3785  0.5502 -1.0701
19936TIP3    H281300   5.406   2.543   4.682 -0.5602  0.0287 -0.8572
19937TIP3   OH281301   2.341   3.049   6.430 -0.0255 -0.0705 -0.2574
19937TIP3    H181302   2.333   3.145   6.437 -0.7345  0.0658 -2.1245
19937TIP3    H281303   2.252   3.017   6.444 -0.0035 -0.3446 -0.7035
19938TIP3   OH281304   3.801   3.011   5.970  0.0208  0.0242  0.2051
19938TIP3    H181305   3.868   2.943   5.976 -1.0359 -0.9945  0.9209
19938TIP3    H281306   3.798   3.050   6.057 -0.6671 -0.2946  0.3299
19939TIP3   OH281307   3.359   4.003   1.496 -0.1946 -0.2114  0.3446
19939TIP3    H181308   3.445   4.035   1.470 -0.5782  0.7783  0.2208
19939TIP3    H281309   3.320   3.971   1.415  0.4641 -1.6878  0.5952
19940TIP3   OH281310   5.955   2.881   2.371  0.0766 -0.1785  0.1848
19940TIP3    H181311   5.992   2.949   2.315  0.4203 -0.9646 -0.5754
19940TIP3    H281312   5.877   2.921   2.410  0.1711  0.5867 -0.3939
19941TIP3   OH281313   3.855   2.384   0.003 -0.1929 -0.1686  0.1365
19941TIP3    H181314   3.917   2.424   0.064 -0.5001  0.7531 -0.1363
19941TIP3    H281315   3.830   2.301   0.044  0.6854 -0.2265  0.5769
19942TIP3   OH281316   0.110   5.223  15.723  0.2812 -0.6261 -0.3358
19942TIP3    H181317   0.070   5.141  15.754 -1.9836  0.2412 -0.7681
19942TIP3    H281318   0.162   5.197  15.647 -0.1114 -1.7416 -0.2411
19943TIP3   OH281319   0.847   3.776  15.483  0.1495  0.2678  0.0312
19943TIP3    H181320   0.911   3.847  15.497  0.4774  0.2219 -1.0907
19943TIP3    H281321   0.832   3.740  15.570 -0.4024  2.0266  0.7285
19944TIP3   OH281322   4.790   1.067   2.599 -0.0971 -0.5553  0.1761
19944TIP3    H181323   4.717   1.129   2.592 -0.4761 -0.9856  0.2179
19944TIP3    H281324   4.868   1.121   2.594 -0.4178  0.1215  1.9470
19945TIP3   OH281325   5.108   3.946  17.261  0.2482 -0.4329 -0.5782
19945TIP3    H181326   5.104   3.852  17.281  1.2857 -0.6333 -1.2699
19945TIP3    H281327   5.160   3.951  17.181  0.5880  0.7741 -0.2904
19946TIP3   OH281328   1.383   5.401  12.598  0.1828 -0.5158 -0.2461
19946TIP3    H181329   1.438   5.395  12.676  1.0584  0.1247 -0.8044
19946TIP3    H281330   1.332   5.320  12.599 -0.0338 -0.3919  1.1373
19947TIP3   OH281331   0.714   1.689  14.830  0.1985  0.0418  0.2224
19947TIP3    H181332   0.799   1.712  14.794  0.1719 -0.1653  0.0248
19947TIP3    H281333   0.701   1.598  14.806  0.4784 -0.3118  1.3360
19948TIP3   OH281334   0.920   1.476  11.140 -0.0656 -0.2685 -0.0770
19948TIP3    H181335   0.826   1.494  11.147  0.1219  0.2582  1.3319
19948TIP3    H281336   0.930   1.388  11.177  0.1352  0.1322  0.8464
19949TIP3   OH281337   0.860   5.340  12.189  0.2530 -0.5173  0.4777
19949TIP3    H181338   0.812   5.422  12.176  0.4130 -0.3971  0.6428
19949TIP3    H281339   0.795   5.272  12.174 -0.3348 -0.3439  2.0111
19950TIP3   OH281340   1.354   3.132  14.349 -0.2129  0.4137  0.3582
19950TIP3    H181341   1.301   3.105  14.273  1.1250  1.1447 -0.8775
19950TIP3    H281342   1.302   3.103  14.425 -0.6834 -2.1214 -0.8048
19951TIP3   OH281343   3.574   5.740  12.867  0.2732 -0.1968 -0.2908
19951TIP3    H181344   3.496   5.787  12.894  2.5904  2.4806  2.5100
19951TIP3    H281345   3.593   5.773  12.779  0.1860  1.9255  0.4463
19952TIP3   OH281346   3.378   5.090   1.447  0.1801  0.0981 -0.3329
19952TIP3    H181347   3.296   5.098   1.399  0.9660  0.0526 -1.7318
19952TIP3    H281348   3.381   4.999   1.476  0.5116 -0.3711 -1.7700
19953TIP3   OH281349   5.299   6.438   6.081  0.2163 -0.2603  0.4626
19953TIP3    H181350   5.270   6.348   6.098  0.7231 -0.3506  0.8494
19953TIP3    H281351   5.281   6.485   6.162 -0.4965  0.1143  0.1042
19954TIP3   OH281352   0.714   5.055   2.669 -0.0423 -0.0710  0.0389
19954TIP3    H181353   0.683   5.127   2.725  1.1855  1.0409 -0.6407
19954TIP3    H281354   0.740   4.986   2.730 -0.1642  0.5180  0.7700
19955TIP3   OH281355   5.165   5.291   1.963  0.4495  0.4491  0.3464
19955TIP3    H181356   5.191   5.248   2.044  0.8216  0.8956  0.4663
19955TIP3    H281357   5.075   5.262   1.948  0.2970  0.5489  1.0385
19956TIP3   OH281358   3.009   2.038   6.545  0.0920  0.3548 -0.2126
19956TIP3    H181359   3.048   2.077   6.467 -1.2218  0.1110 -1.0208
19956TIP3    H281360   2.957   2.109   6.584  1.5354  0.7835  1.0529
19957TIP3   OH281361   3.666   2.739   4.934  0.3915  0.0556 -0.2910
19957TIP3    H181362   3.682   2.664   4.876  1.1753  0.0850 -0.1203
19957TIP3    H281363   3.572   2.758   4.923  0.7026  0.7171 -2.3598
19958TIP3   OH281364   2.463   0.429  14.976  0.1403  0.1720  0.4035
19958TIP3    H181365   2.550   0.464  14.954  0.4538 -0.9288 -0.1786
19958TIP3    H281366   2.403   0.499  14.951  0.7541  0.3225 -0.7552
19959TIP3   OH281367   1.020   1.166  11.644  0.6699  0.1071  0.7332
19959TIP3    H181368   1.085   1.136  11.581  0.8215  1.4610  0.2254
19959TIP3    H281369   0.936   1.132  11.611  1.2288 -3.9227  2.7384
19960TIP3   OH281370   4.285   3.195   5.774 -0.4910 -0.1213 -0.3092
19960TIP3    H181371   4.306   3.117   5.825 -1.1476  0.6454  1.2114
19960TIP3    H281372   4.249   3.257   5.838 -0.4351  1.2597 -1.5463
19961TIP3   OH281373   1.269   3.019  14.581 -0.1573 -0.6462  0.1802
19961TIP3    H181374   1.240   2.931  14.604 -1.5232  0.1135  1.5780
19961TIP3    H281375   1.218   3.077  14.638  0.3009  1.0867 -1.0761
19962TIP3   OH281376   6.733   5.114   1.918  0.5355 -0.0267  0.2508
19962TIP3    H181377   6.807   5.053   1.920 -0.2638 -0.9980  1.5762
19962TIP3    H281378   6.774   5.200   1.923  1.6896 -0.4074 -1.6338
19963TIP3   OH281379   3.863   4.946   0.074 -0.2049 -0.2424  0.0136
19963TIP3    H181380   3.791   4.910   0.126  0.1562 -1.4280 -0.2697
19963TIP3    H281381   3.942   4.917   0.119  0.1383  1.9039  0.8938
19964TIP3   OH281382   5.776   5.618  15.133  0.1767 -0.0047  0.2600
19964TIP3    H181383   5.828   5.575  15.201 -0.3245  1.2353  1.4665
19964TIP3    H281384   5.732   5.690  15.178  2.7540  3.3579 -2.0027
19965TIP3   OH281385   6.704   1.892   1.330  0.2243 -0.1729  0.0792
19965TIP3    H181386   6.620   1.896   1.377  0.4264 -0.8020  0.5143
19965TIP3    H281387   6.770   1.900   1.399  0.5519  1.9853 -0.4092
19966TIP3   OH281388   0.719   0.098  16.827  0.0330  0.1204 -0.5270
19966TIP3    H181389   0.811   0.072  16.820  0.5609  1.8702 -0.7402
19966TIP3    H281390   0.689   0.105  16.736 -0.1378  0.0785 -0.4732
19967TIP3   OH281391   4.241   1.515  14.991  0.0892 -0.2150  0.1263
19967TIP3    H181392   4.195   1.597  15.010 -0.3308 -0.3918 -0.1122
19967TIP3    H281393   4.269   1.524  14.900  0.7843  0.0114  0.3592
19968TIP3   OH281394   2.221   3.549   0.035 -0.4232  0.3894 -0.4839
19968TIP3    H181395   2.281   3.517   0.101 -0.9477 -2.3903 -1.2375
19968TIP3    H281396   2.274   3.607  -0.020  1.0475 -0.4515  0.0001
19969TIP3   OH281397   5.417   3.263   0.152 -0.2055  0.2896 -0.3381
19969TIP3    H181398   5.325   3.254   0.177  0.2161 -0.2335  1.1791
19969TIP3    H281399   5.427   3.355   0.129 -1.0687  0.3885 -0.3504
19970TIP3   OH281400   6.643   4.282   3.262 -0.1970 -0.2726 -0.2856
19970TIP3    H181401   6.709   4.324   3.317  1.0592 -0.9428 -1.2388
19970TIP3    H281402   6.617   4.350   3.200 -0.3428 -0.0434  0.0202
19971TIP3   OH281403   3.690   1.096   1.332  0.1826 -0.4115 -0.7178
19971TIP3    H181404   3.760   1.161   1.323 -0.3963  0.0856 -2.0544
19971TIP3    H281405   3.615   1.147   1.363 -0.2852 -0.4061 -1.8160
19972TIP3   OH281406   3.440   2.922  14.667 -0.2439 -0.0146  0.1512
19972TIP3    H181407   3.492   2.967  14.601 -2.1200  2.4503  0.2104
19972TIP3    H281408   3.363   2.890  14.619 -0.7365  0.1627  0.8060
19973TIP3   OH281409   3.936   6.300   5.847  0.0315  0.2898 -0.2535
19973TIP3    H181410   3.934   6.365   5.918 -2.3567  0.7811 -0.6607
19973TIP3    H281411   3.907   6.219   5.889 -0.0183  0.2445 -0.3762
19974TIP3   OH281412   2.240   2.938  14.440 -0.0599 -0.0792 -0.4349
19974TIP3    H181413   2.296   2.966  14.513 -0.6193 -0.7745  0.2837
19974TIP3    H281414   2.216   3.020  14.396  1.1160  0.2693 -0.4725
19975TIP3   OH281415   3.213   4.796   2.164 -0.4598 -0.5590 -0.1828
19975TIP3    H181416   3.174   4.882   2.151 -0.0538 -0.5856 -1.8561
19975TIP3    H281417   3.142   4.734   2.145 -0.3531 -0.6035 -0.4304
19976TIP3   OH281418   2.194   1.596   0.279  0.0385  0.6784  0.4142
19976TIP3    H181419   2.287   1.598   0.298  0.5522  1.0949 -1.8573
19976TIP3    H281420   2.153   1.566   0.360  2.1484  0.2433  1.3700
19977TIP3   OH281421   1.700   6.643   5.121 -0.0116  0.0984  0.0857
19977TIP3    H181422   1.683   6.625   5.028 -1.6513  1.0383  0.1726
19977TIP3    H281423   1.730   6.734   5.122  1.3932 -0.3396  0.3627
19978TIP3   OH281424   0.919   0.493  16.184 -0.1786  0.4558  0.2069
19978TIP3    H181425   0.930   0.549  16.107 -0.2831  1.2149  0.7368
19978TIP3    H281426   1.009   0.468  16.208  0.0419  1.8781  1.0252
19979TIP3   OH281427   6.638   1.802   1.078 -0.0640  0.1418 -0.4039
19979TIP3    H181428   6.688   1.722   1.096 -1.9196 -1.1659 -0.7622
19979TIP3    H281429   6.655   1.857   1.154  0.3336 -1.0975  0.4513
19980TIP3   OH281430   4.312   4.180  15.994  0.4048  0.1283  0.2713
19980TIP3    H181431   4.338   4.269  15.969  0.4331 -0.1030 -0.5786
19980TIP3    H281432   4.385   4.125  15.966 -0.2744 -0.3386 -0.6815
19981TIP3   OH281433   4.006   1.905   2.528  0.1527 -0.2494  0.4091
19981TIP3    H181434   4.062   1.848   2.476  0.4058 -1.0913  1.5726
19981TIP3    H281435   3.944   1.942   2.464  1.3961 -0.0474 -0.7286
19982TIP3   OH281436   6.399   1.161  14.277 -0.7465 -0.6459  0.0388
19982TIP3    H181437   6.404   1.197  14.365  1.8360  3.3348 -1.4550
19982TIP3    H281438   6.332   1.213  14.234 -0.0401 -0.5990 -1.0435
19983TIP3   OH281439   5.367   5.667  15.115 -0.5215  0.3285 -0.9491
19983TIP3    H181440   5.368   5.758  15.086 -0.7790  0.7629  0.3744
19983TIP3    H281441   5.420   5.621  15.050  1.7481  1.8288 -0.2714
19984TIP3   OH281442   3.142   2.904   3.474  0.0616 -0.1523 -0.3032
19984TIP3    H181443   3.183   2.916   3.388  2.0659  0.8928  0.7240
19984TIP3    H281444   3.144   2.991   3.514 -1.9215 -0.3619  0.3962
19985TIP3   OH281445   2.252   2.908  13.911  0.2565  0.1012 -0.0958
19985TIP3    H181446   2.195   2.897  13.835 -1.7610 -0.5990  1.4216
19985TIP3    H281447   2.272   3.001  13.913 -0.6281  0.3223 -0.8219
19986TIP3   OH281448   6.366   3.194   0.950 -0.1783 -0.0836 -0.4403
19986TIP3    H181449   6.443   3.171   1.003  1.7207  1.9134 -2.1404
19986TIP3    H281450   6.322   3.262   1.001 -0.7355 -1.0496  0.4161
19987TIP3   OH281451   3.653   4.407  12.917 -0.2895 -0.1214 -0.5552
19987TIP3    H181452   3.625   4.377  13.004 -0.7148  0.5640 -0.4429
19987TIP3    H281453   3.730   4.460  12.934  0.2736 -0.8755 -0.7181
19988TIP3   OH281454   3.400   0.698  15.527 -0.2483  0.3084  0.2799
19988TIP3    H181455   3.472   0.641  15.554 -1.1063 -0.8589  0.1698
19988TIP3    H281456   3.435   0.787  15.535  0.4279 -0.1082  2.6097
19989TIP3   OH281457   1.264   6.702   6.252 -0.7293  0.2167 -0.4493
19989TIP3    H181458   1.309   6.635   6.303 -3.1118 -1.1385  0.0052
19989TIP3    H281459   1.279   6.677   6.161 -1.8929 -1.2139 -0.2863
19990TIP3   OH281460   0.484   1.291   3.005  0.1994 -0.0993 -0.1963
19990TIP3    H181461   0.435   1.287   3.087  1.0989  0.8636  0.4053
19990TIP3    H281462   0.572   1.262   3.027  1.1662  2.5311 -0.1999
19991TIP3   OH281463   5.483   5.546   6.538  0.3080  0.3679 -0.6352
19991TIP3    H181464   5.460   5.618   6.479 -1.9288  0.3161  0.0393
19991TIP3    H281465   5.578   5.538   6.532  0.3331  1.5761 -2.7795
19992TIP3   OH281466   3.652   6.137   5.817 -0.5184 -0.0661  0.1486
19992TIP3    H181467   3.568   6.092   5.824 -1.7121  1.7999 -1.2132
19992TIP3    H281468   3.673   6.165   5.906 -0.8737 -1.2766  0.6364
19993TIP3   OH281469   2.740   4.030   4.084 -0.3457  0.1156  0.4863
19993TIP3    H181470   2.811   3.978   4.047 -0.5950  0.6190 -0.7246
19993TIP3    H281471   2.674   3.965   4.111 -0.7526 -0.2195 -1.2074
19994TIP3   OH281472   3.045   0.629   0.094  0.0817 -0.2273  0.9581
19994TIP3    H181473   3.046   0.711   0.045  0.1562 -0.6703  0.2097
19994TIP3    H281474   3.111   0.575   0.051 -0.5487 -0.9809  0.9375
19995TIP3   OH281475   1.934   1.414   4.619 -0.1018  0.1078 -0.2300
19995TIP3    H181476   1.856   1.457   4.583 -0.8721 -1.0804 -0.0423
19995TIP3    H281477   1.949   1.340   4.561  0.0265 -0.4906  0.5557
19996TIP3   OH281478   0.972   1.233  11.970 -0.0158 -0.5243 -0.0657
19996TIP3    H181479   0.974   1.159  11.909  2.4181 -0.8778  0.3358
19996TIP3    H281480   1.017   1.304  11.924 -1.1761  0.2994  0.0495
19997TIP3   OH281481   2.132   4.296  16.759 -1.0885 -0.5702  0.2557
19997TIP3    H181482   2.037   4.287  16.762 -1.1986  0.3830 -0.0308
19997TIP3    H281483   2.155   4.274  16.668 -1.4570  2.5547 -0.7106
19998TIP3   OH281484   4.294   5.439  14.700 -0.3114  0.3339 -0.4902
19998TIP3    H181485   4.274   5.505  14.766  0.0063 -0.4772  0.4237
19998TIP3    H281486   4.208   5.410  14.668 -0.4571  1.7531 -1.5076
19999TIP3   OH281487   3.117   0.464  16.319  0.0294 -0.2996 -0.5944
19999TIP3    H181488   3.043   0.507  16.275  0.8271  0.1700 -1.5141
19999TIP3    H281489   3.099   0.476  16.412 -0.7043  0.4188 -0.8137
20000TIP3   OH281490   5.395   6.254  12.492  0.3878  0.2403 -0.3302
20000TIP3    H181491   5.488   6.264  12.472  0.5647 -0.5117  0.0568
20000TIP3    H281492   5.352   6.327  12.447  1.4005  1.8620  1.1989
20001TIP3   OH281493   0.825   3.546   3.940  0.2410  0.1581 -0.0746
20001TIP3    H181494   0.731   3.550   3.958  0.6497  2.6154  2.0550
20001TIP3    H281495   0.850   3.458   3.966 -0.9075  0.6056  2.9707
20002TIP3   OH281496   3.302   3.037  11.974  0.1458 -0.2172  0.0440
20002TIP3    H181497   3.312   3.133  11.971 -0.8270 -0.0818  0.6355
20002TIP3    H281498   3.220   3.020  11.927  0.8772 -0.8765 -1.0205
20003TIP3   OH281499   2.097   1.270  13.465  0.3591  0.0221  0.1944
20003TIP3    H181500   2.098   1.270  13.561  1.8399  1.3903  0.2189
20003TIP3    H281501   2.159   1.201  13.441 -0.6952 -0.9517  0.1780
20004TIP3   OH281502   1.093   1.086  16.677  0.0830  0.2242  0.2788
20004TIP3    H181503   1.014   1.141  16.674 -2.0505 -2.6180 -1.6102
20004TIP3    H281504   1.069   1.013  16.734  1.7384 -0.2298  0.4436
20005TIP3   OH281505   0.948   1.871   6.264  0.0559 -0.5378 -0.2067
20005TIP3    H181506   1.041   1.855   6.247 -0.0892 -0.7445 -0.8413
20005TIP3    H281507   0.946   1.912   6.351  0.6156 -1.9774  0.5242
20006TIP3   OH281508   6.729   3.516   1.757 -0.0340  0.0768  0.9762
20006TIP3    H181509   6.662   3.517   1.825 -0.6415  1.1638  0.3885
20006TIP3    H281510   6.754   3.608   1.747  0.6334 -0.1701  0.2878
20007TIP3   OH281511   5.698   5.716  14.042 -0.7051  0.2618  0.1777
20007TIP3    H181512   5.641   5.712  14.119 -1.1286 -0.3060 -0.1551
20007TIP3    H281513   5.755   5.640  14.050  0.8377  1.4489  1.1162
20008TIP3   OH281514   6.589   5.774   3.871  0.4703  0.1006 -0.0001
20008TIP3    H181515   6.512   5.769   3.814 -0.5060  1.9397  1.0753
20008TIP3    H281516   6.601   5.867   3.886  2.3580 -0.2110  0.6283
20009TIP3   OH281517   1.315   6.339   2.998 -0.2365  0.0677  0.6213
20009TIP3    H181518   1.224   6.360   3.020 -0.2951 -0.2473  0.6865
20009TIP3    H281519   1.366   6.412   3.033 -0.4582  0.2075  0.6507
20010TIP3   OH281520   0.642   2.327  14.833 -0.1683  0.6149  0.0638
20010TIP3    H181521   0.578   2.360  14.770  0.0661 -0.7245 -0.9121
20010TIP3    H281522   0.700   2.400  14.850 -1.1774  1.4665 -0.0327
20011TIP3   OH281523   3.693   2.160   0.030  0.2975  0.0017 -0.1877
20011TIP3    H181524   3.718   2.162   0.123 -0.6910  1.7216  0.0936
20011TIP3    H281525   3.643   2.079   0.021 -1.6913  0.9531  1.4192
20012TIP3   OH281526   3.850   3.394   2.191  0.6124  0.3963 -0.1296
20012TIP3    H181527   3.911   3.320   2.188 -1.1228 -1.0547 -2.5372
20012TIP3    H281528   3.804   3.384   2.275  0.8152 -0.8881 -0.1542
20013TIP3   OH281529   4.034   2.989   3.562 -0.2389 -0.5487  0.0509
20013TIP3    H181530   4.061   2.900   3.584 -0.5485 -0.2870  1.6166
20013TIP3    H281531   4.058   3.040   3.640  1.4268  1.0581 -1.4208
20014TIP3   OH281532   6.760   6.469   0.784  0.6918 -0.2786 -0.7577
20014TIP3    H181533   6.845   6.437   0.755  1.1938 -1.5335  1.8713
20014TIP3    H281534   6.697   6.407   0.747  1.0541 -0.3995 -1.1855
20015TIP3   OH281535   1.478   3.056   0.704  0.3490 -0.2241  0.2490
20015TIP3    H181536   1.475   3.117   0.778 -1.1919 -1.4613  1.2845
20015TIP3    H281537   1.427   2.980   0.734  0.1802 -1.0127 -1.8795
20016TIP3   OH281538   2.315   4.967   0.267 -0.6208 -0.0856 -0.0185
20016TIP3    H181539   2.374   4.968   0.192 -0.6520 -1.6160 -0.0925
20016TIP3    H281540   2.346   5.039   0.323  0.9471 -0.4877 -0.3279
20017TIP3   OH281541   2.818   4.144   2.642  0.0920 -0.3363 -0.2938
20017TIP3    H181542   2.842   4.153   2.550  0.4548  0.3667 -0.1350
20017TIP3    H281543   2.734   4.188   2.650  0.4525  0.3367 -0.1273
20018TIP3   OH281544   0.845   1.655   4.985 -0.1809 -0.2054  0.4692
20018TIP3    H181545   0.916   1.712   5.014 -0.1031  0.9713 -1.8432
20018TIP3    H281546   0.834   1.675   4.892 -0.5183 -3.6284 -0.3418
20019TIP3   OH281547   4.331   0.002  16.209 -0.4770  0.5430 -0.1757
20019TIP3    H181548   4.295   0.028  16.124 -1.6494  0.2092  0.1987
20019TIP3    H281549   4.257  -0.036  16.256  0.3986 -0.3033  0.5845
20020TIP3   OH281550   1.376   6.191  14.920 -0.3301  0.4798  0.3883
20020TIP3    H181551   1.339   6.167  15.005 -1.0937  0.2413 -0.0009
20020TIP3    H281552   1.340   6.127  14.859 -0.7889  1.3886 -0.3265
20021TIP3   OH281553   0.610   6.818  14.188  0.1812  0.2430 -0.0931
20021TIP3    H181554   0.605   6.854  14.099  1.1321  0.0471 -0.2372
20021TIP3    H281555   0.563   6.882  14.242 -0.6483  0.2272 -0.7634
20022TIP3   OH281556   0.835   4.623  12.186 -0.0160 -0.0860 -0.0702
20022TIP3    H181557   0.829   4.529  12.164  0.7180 -0.2097  0.2456
20022TIP3    H281558   0.747   4.646  12.216 -0.2282 -0.6507 -0.2383
20023TIP3   OH281559   2.101   0.416  14.465  0.1983 -0.0801 -0.0649
20023TIP3    H181560   2.076   0.509  14.464  0.8826  0.1149 -0.8745
20023TIP3    H281561   2.105   0.393  14.558 -2.4019 -0.0004  0.1354
20024TIP3   OH281562   3.751   5.592  11.798 -0.1005 -0.2111  0.2324
20024TIP3    H181563   3.833   5.544  11.812  0.5921  0.7483 -0.4533
20024TIP3    H281564   3.778   5.681  11.777 -1.2210 -0.3307 -2.0488
20025TIP3   OH281565   4.622   2.652   5.158 -0.6977  0.2967  0.1811
20025TIP3    H181566   4.689   2.711   5.122 -0.9062 -0.9063 -2.4498
20025TIP3    H281567   4.614   2.677   5.250  1.2333  2.4383 -0.1493
20026TIP3   OH281568   1.667   2.828   6.182 -0.5679 -0.5524 -0.3822
20026TIP3    H181569   1.589   2.828   6.238  0.3931  0.0356  0.9938
20026TIP3    H281570   1.650   2.897   6.118 -2.9299 -3.0779 -2.7333
20027TIP3   OH281571   1.569   1.304  17.068 -0.1411 -0.1025  0.2016
20027TIP3    H181572   1.515   1.377  17.099  0.5184 -0.0040  1.1666
20027TIP3    H281573   1.508   1.231  17.061 -0.4106 -0.0119  1.3494
20028TIP3   OH281574   2.014   1.657  12.751 -0.3646  0.2637 -0.6453
20028TIP3    H181575   1.947   1.611  12.701  0.7025 -0.0485 -1.8661
20028TIP3    H281576   1.988   1.647  12.842 -0.0989 -2.9256 -0.8241
20029TIP3   OH281577   0.991   1.733  16.981 -0.3584  0.1354 -0.2100
20029TIP3    H181578   0.904   1.716  17.016  1.2755 -1.7626  3.4932
20029TIP3    H281579   0.994   1.682  16.900 -2.1502 -1.0965  0.4313
20030TIP3   OH281580   2.595   6.722  15.531  0.5661 -0.2431  0.0892
20030TIP3    H181581   2.621   6.814  15.531  3.6168 -0.9750  1.1469
20030TIP3    H281582   2.668   6.677  15.574  0.5230 -3.4956 -2.8168
20031TIP3   OH281583   1.618   2.407  15.189  0.8505 -0.7548  0.7377
20031TIP3    H181584   1.542   2.464  15.187  0.7356 -0.9307 -0.5732
20031TIP3    H281585   1.692   2.464  15.211  0.5263 -0.3676  0.8115
20032TIP3   OH281586   6.363   6.128   4.770 -1.0943 -0.3497 -0.2845
20032TIP3    H181587   6.376   6.219   4.743 -1.4682 -0.5658 -1.2544
20032TIP3    H281588   6.451   6.090   4.773 -1.0892 -0.6424 -2.4842
20033TIP3   OH281589   3.736   5.990   5.052  0.3423  0.6814 -0.8767
20033TIP3    H181590   3.819   5.988   5.100 -0.2424 -1.1153  0.1905
20033TIP3    H281591   3.744   5.919   4.988 -0.1573  0.8680 -1.1503
20034TIP3   OH281592   1.142   6.737  14.685 -0.3532  0.2109 -0.3344
20034TIP3    H181593   1.180   6.683  14.616 -1.8856  0.5201 -1.4857
20034TIP3    H281594   1.216   6.786  14.721  1.0275 -2.2897  0.4888
20035TIP3   OH281595   5.632   6.294  12.397 -0.0932  0.6649  0.0670
20035TIP3    H181596   5.662   6.384  12.412  0.5098  0.9050 -2.1129
20035TIP3    H281597   5.621   6.289  12.302  0.9385 -1.8871  0.0110
20036TIP3   OH281598   1.335   0.145  15.910 -0.6700  0.0545 -0.5029
20036TIP3    H181599   1.260   0.106  15.953 -0.3453 -1.1560 -0.9936
20036TIP3    H281600   1.376   0.073  15.862  1.5825  0.3396  0.8253
20037TIP3   OH281601   3.956   4.564  16.802  0.8566  0.0881  0.1038
20037TIP3    H181602   4.038   4.547  16.756 -0.0731 -1.3655 -1.1117
20037TIP3    H281603   3.927   4.649  16.767  1.3658  0.1664 -0.1475
20038TIP3   OH281604   3.835   0.961  14.510  0.1218  0.1952 -0.0491
20038TIP3    H181605   3.790   1.024  14.566 -2.0708 -0.6306 -0.7764
20038TIP3    H281606   3.802   0.876  14.538  1.6659 -0.5031 -0.2835
20039TIP3   OH281607   6.110   4.277   4.501 -0.3483 -0.3615 -0.6444
20039TIP3    H181608   6.060   4.204   4.536  2.0387 -1.2029  1.2973
20039TIP3    H281609   6.126   4.335   4.576  2.6922 -0.8692 -0.7726
20040TIP3   OH281610   1.714   5.565  10.777 -0.2691  0.0755  0.2295
20040TIP3    H181611   1.776   5.529  10.841 -2.1998 -0.6033  1.7882
20040TIP3    H281612   1.747   5.654  10.760  1.5323 -0.5090  0.4222
20041TIP3   OH281613   2.278   2.379   2.537 -0.3069  0.6075  0.8581
20041TIP3    H181614   2.288   2.434   2.459 -1.2255  1.1290  1.0955
20041TIP3    H281615   2.323   2.427   2.607  0.3148  0.2509  0.7154
20042TIP3   OH281616   5.757   1.363  12.548  0.2886  0.3818  0.0744
20042TIP3    H181617   5.810   1.283  12.547  0.5796  0.5712 -0.9070
20042TIP3    H281618   5.678   1.340  12.498 -0.3335  0.2559  1.0938
20043TIP3   OH281619   4.585   5.328   0.657  0.1155  0.1991  0.1077
20043TIP3    H181620   4.630   5.333   0.741 -1.6639  0.4567  1.0939
20043TIP3    H281621   4.534   5.410   0.653 -1.4274 -0.7382 -0.2331
20044TIP3   OH281622   3.801   0.228   4.010  0.0075 -0.2447  0.2789
20044TIP3    H181623   3.835   0.166   3.945  0.9146 -0.0507  0.5422
20044TIP3    H281624   3.847   0.310   3.990  1.5598 -0.5730  2.1281
20045TIP3   OH281625   2.112   3.787   0.113 -0.1308  0.3630  0.5722
20045TIP3    H181626   2.151   3.700   0.103  0.2715  0.7041 -1.0167
20045TIP3    H281627   2.027   3.771   0.153  0.3825 -0.6461  1.3207
20046TIP3   OH281628   3.486   3.710   4.562 -0.2663  0.1776 -0.0654
20046TIP3    H181629   3.435   3.673   4.489  1.2265  0.2960 -1.2017
20046TIP3    H281630   3.486   3.640   4.628 -0.7828 -0.3231 -0.5788
20047TIP3   OH281631   1.312   6.620   2.277 -0.1069  0.2669  0.1598
20047TIP3    H181632   1.385   6.681   2.289 -1.2281  1.4083  1.5015
20047TIP3    H281633   1.284   6.634   2.187 -0.4630  1.9040  0.4911
20048TIP3   OH281634   6.235   0.682  14.717  0.1309  0.5107  0.7833
20048TIP3    H181635   6.303   0.748  14.702  0.4212  0.0638  0.0658
20048TIP3    H281636   6.160   0.732  14.750  0.7401  1.0342  1.4327
20049TIP3   OH281637   6.430   0.142  14.692 -0.5167  0.6114 -0.1269
20049TIP3    H181638   6.354   0.147  14.633 -0.2964  2.4711 -0.3094
20049TIP3    H281639   6.505   0.130  14.634 -0.7051 -3.3474  0.1331
20050TIP3   OH281640   0.085   3.042   2.103 -0.0211 -0.8699  0.0857
20050TIP3    H181641   0.159   3.041   2.164  0.6438  1.3608 -0.5964
20050TIP3    H281642   0.027   3.110   2.135 -0.1291 -0.3113 -1.2076
20051TIP3   OH281643   2.709   6.648  15.258 -0.6512  0.4486 -0.3512
20051TIP3    H181644   2.637   6.608  15.210 -0.5456  1.0108 -0.9887
20051TIP3    H281645   2.773   6.577  15.269 -0.0996  0.6090 -2.1942
20052TIP3   OH281646   2.700   4.915   2.996  0.2556  0.2962  0.1260
20052TIP3    H181647   2.741   4.864   2.926  1.3593  2.2128 -0.7163
20052TIP3    H281648   2.609   4.924   2.968 -0.1973 -1.8650  0.7313
20053TIP3   OH281649   2.602   5.049  12.240  0.2061  0.2893 -0.0868
20053TIP3    H181650   2.624   5.051  12.333 -0.7746 -0.4737  0.1827
20053TIP3    H281651   2.506   5.051  12.239  0.1669 -0.8713 -1.0247
20054TIP3   OH281652   0.977   4.810   0.595  0.0022  0.4391  0.2451
20054TIP3    H181653   1.071   4.810   0.615 -0.2264 -1.5436  1.5037
20054TIP3    H281654   0.971   4.770   0.508  0.2879  0.3968  0.2430
20055TIP3   OH281655   3.662   4.659   3.304  0.1110  0.3772  0.1387
20055TIP3    H181656   3.626   4.574   3.331  0.7386 -0.7709 -2.2889
20055TIP3    H281657   3.590   4.721   3.315 -1.1106 -0.9326 -0.1669
20056TIP3   OH281658   5.631   1.089   6.626 -0.0863  0.0627 -0.4417
20056TIP3    H181659   5.660   1.111   6.714 -0.8043  0.2543 -0.2480
20056TIP3    H281660   5.708   1.049   6.585 -0.1993 -1.5125  0.7941
20057TIP3   OH281661   0.657   4.346  14.788 -0.1386 -0.5208  0.3081
20057TIP3    H181662   0.566   4.368  14.767 -0.9967 -3.2085  0.7851
20057TIP3    H281663   0.703   4.356  14.704 -0.8019  1.0432  0.0963
20058TIP3   OH281664   1.625   0.948   0.611 -0.4845  0.2401  0.2257
20058TIP3    H181665   1.592   0.927   0.523 -0.3658  1.9284 -0.2587
20058TIP3    H281666   1.636   0.863   0.653  2.4275 -0.9186 -2.4504
20059TIP3   OH281667   6.769   1.129  16.057  0.6497  0.0660 -0.1234
20059TIP3    H181668   6.828   1.203  16.042  0.5212  0.5135  1.4059
20059TIP3    H281669   6.700   1.164  16.113  0.3709 -1.1173  0.3011
20060TIP3   OH281670   2.608   1.204  15.136  0.1886 -0.1645  0.6783
20060TIP3    H181671   2.596   1.237  15.047 -0.3740  0.6704  1.0534
20060TIP3    H281672   2.651   1.275  15.183 -0.2932 -0.2604  1.2870
20061TIP3   OH281673   0.569   4.842  12.673 -0.5860 -0.4248 -0.1916
20061TIP3    H181674   0.506   4.883  12.615 -1.3557 -3.1628 -1.4351
20061TIP3    H281675   0.518   4.817  12.750  0.2416  2.3376  1.4002
20062TIP3   OH281676   1.526   2.467  16.976  0.5528 -0.1982 -0.1199
20062TIP3    H181677   1.504   2.444  17.066 -0.5212  0.9361 -0.0607
20062TIP3    H281678   1.622   2.470  16.974  0.5930 -0.4547  0.9173
20063TIP3   OH281679   1.659   2.186  12.957  0.2011  0.6148 -0.4949
20063TIP3    H181680   1.755   2.195  12.957  0.2130  0.7308 -2.2471
20063TIP3    H281681   1.639   2.143  12.874 -1.1600 -0.9459  0.5728
20064TIP3   OH281682   6.225   4.441  12.641 -0.2435 -0.7266  0.4083
20064TIP3    H181683   6.200   4.511  12.702  0.1493  0.3048 -0.5711
20064TIP3    H281684   6.249   4.368  12.698  0.1439  0.2091  1.5109
20065TIP3   OH281685   0.781   4.349   3.544 -0.1982 -0.2442  0.4360
20065TIP3    H181686   0.711   4.297   3.584 -1.4265  1.9095  1.2542
20065TIP3    H281687   0.749   4.369   3.456 -1.0887  1.4755  1.1076
20066TIP3   OH281688   4.083   2.656  11.600 -0.3332 -0.6020 -0.6532
20066TIP3    H181689   4.002   2.654  11.651 -0.8215  0.4598 -1.3672
20066TIP3    H281690   4.151   2.630  11.663 -1.1291 -0.8503  0.1271
20067TIP3   OH281691   0.119   5.744   6.022  0.1100 -0.2862 -0.2873
20067TIP3    H181692   0.104   5.802   6.097  0.3680 -0.2131 -0.2912
20067TIP3    H281693   0.169   5.671   6.059  0.5290 -0.0858 -0.4548
20068TIP3   OH281694   5.789   0.387   5.789  0.1347  0.3466  0.6800
20068TIP3    H181695   5.836   0.404   5.708 -0.8339  0.5186  0.1310
20068TIP3    H281696   5.803   0.295   5.807  1.4507  0.6092  1.0414
20069TIP3   OH281697   1.507   0.220  13.548  0.0019 -0.4882 -0.5681
20069TIP3    H181698   1.536   0.243  13.460 -0.4568  1.5085 -0.2514
20069TIP3    H281699   1.450   0.293  13.574 -1.6876 -2.1219  0.5354
20070TIP3   OH281700   5.447   0.517  11.205 -0.3284 -0.3607  0.4507
20070TIP3    H181701   5.530   0.499  11.162 -0.8774  0.5192 -1.0449
20070TIP3    H281702   5.460   0.603  11.247 -0.6618  0.0929 -0.3436
20071TIP3   OH281703   6.586   2.267   4.144  0.1218  0.0552  0.1414
20071TIP3    H181704   6.645   2.258   4.219 -0.2658  0.6133  0.5250
20071TIP3    H281705   6.605   2.191   4.089 -0.1123 -0.7804  1.1749
20072TIP3   OH281706   3.057   4.456  11.669  0.3413  0.3877  0.2095
20072TIP3    H181707   3.005   4.405  11.607  0.3859  0.5147  0.0677
20072TIP3    H281708   3.053   4.545  11.635  0.5286  0.4234  0.2815
20073TIP3   OH281709   1.126   3.598   2.771 -0.5641 -0.4003 -0.7771
20073TIP3    H181710   1.203   3.649   2.794  0.2594 -1.3028 -1.4389
20073TIP3    H281711   1.133   3.518   2.824 -1.2684 -0.3063 -0.5289
20074TIP3   OH281712   0.306   2.134  16.650  0.4742 -0.4010 -0.4285
20074TIP3    H181713   0.315   2.199  16.719 -1.7113  0.0620 -0.4748
20074TIP3    H281714   0.349   2.056  16.683  3.8328  1.1746 -0.6627
20075TIP3   OH281715   0.167   5.153  13.031 -0.1228  0.4734  0.5347
20075TIP3    H181716   0.075   5.128  13.030 -1.0282  3.4028 -0.1926
20075TIP3    H281717   0.197   5.134  13.120 -1.0545 -1.5959  0.4512
20076TIP3   OH281718   4.720   1.902   4.585 -0.0075 -0.2408  0.3476
20076TIP3    H181719   4.812   1.879   4.596 -0.0067 -0.3400  0.1378
20076TIP3    H281720   4.675   1.818   4.574  0.3774 -0.0823 -3.4755
20077TIP3   OH281721   4.357   6.045  14.734 -0.0615 -0.1567 -0.0037
20077TIP3    H181722   4.438   6.090  14.759 -0.0262  2.1420 -3.5058
20077TIP3    H281723   4.385   5.957  14.709  0.7444 -0.5309  2.0467
20078TIP3   OH281724   1.544   3.984  17.020 -0.3841  0.0440  0.0193
20078TIP3    H181725   1.635   3.960  17.036 -0.5173 -0.3757  0.1775
20078TIP3    H281726   1.532   3.975  16.926 -0.5490 -0.9585  0.1262
20079TIP3   OH281727   4.028   1.576   3.778  0.0275 -0.2039  0.3358
20079TIP3    H181728   4.031   1.626   3.859  1.6999 -0.1327  0.2796
20079TIP3    H281729   4.036   1.485   3.806 -0.3181 -0.2480  0.2944
20080TIP3   OH281730   5.074   2.197  15.314 -0.0719 -0.4978  0.3863
20080TIP3    H181731   5.041   2.243  15.391 -0.0603 -1.5257  1.0221
20080TIP3    H281732   5.149   2.249  15.285 -2.0389  1.7938 -0.9857
20081TIP3   OH281733   3.100   5.571   5.491 -0.3540  0.1019  0.4228
20081TIP3    H181734   3.072   5.657   5.522  0.4219  0.2298  0.7882
20081TIP3    H281735   3.190   5.584   5.460  0.4029 -0.9198  2.0536
20082TIP3   OH281736   4.855   4.727  14.460  0.4224 -0.0874  0.9320
20082TIP3    H181737   4.801   4.726  14.381  3.6895  0.1495 -1.5271
20082TIP3    H281738   4.796   4.759  14.528 -2.3941  0.5022 -1.5328
20083TIP3   OH281739   2.598   3.594   2.412  0.4582  0.3586  0.4849
20083TIP3    H181740   2.534   3.637   2.468  1.0705  0.3925  1.1815
20083TIP3    H281741   2.546   3.543   2.351 -0.2711  1.5854  0.0373
20084TIP3   OH281742   3.699   3.560  14.846  0.7111 -0.1543 -0.0638
20084TIP3    H181743   3.790   3.557  14.818  1.0938 -0.6973  1.1643
20084TIP3    H281744   3.693   3.640  14.900 -0.1263  1.1338 -1.9546
20085TIP3   OH281745   0.105   6.763   5.856  0.3966  0.1838 -0.2532
20085TIP3    H181746   0.186   6.719   5.882  1.4363  0.9313 -2.0635
20085TIP3    H281747   0.132   6.851   5.832 -1.1574  0.8186  0.2184
20086TIP3   OH281748   0.503   5.450   3.870 -0.5606  0.3434  0.3409
20086TIP3    H181749   0.589   5.491   3.866 -0.8227  0.9174  0.5630
20086TIP3    H281750   0.447   5.503   3.813 -0.8429  0.1645  0.4470
20087TIP3   OH281751   6.763   6.371   1.416  0.2648  0.2253  0.2437
20087TIP3    H181752   6.669   6.355   1.403  0.4356  0.5655 -1.7609
20087TIP3    H281753   6.777   6.459   1.381  1.7616 -0.8264 -2.0618
20088TIP3   OH281754   1.892   5.013   6.017 -0.1738  0.0664 -0.5193
20088TIP3    H181755   1.863   5.094   6.059  0.3461 -0.4586  0.9054
20088TIP3    H281756   1.982   5.001   6.048 -0.4109 -1.2990 -0.2993
20089TIP3   OH281757   3.872   5.418   4.737 -0.3510 -1.0552 -0.1786
20089TIP3    H181758   3.859   5.323   4.745 -0.1156 -1.1594 -0.9554
20089TIP3    H281759   3.951   5.427   4.683  1.2869 -0.4303  2.1219
20090TIP3   OH281760   2.574   2.975   1.551 -0.0871  0.0326  0.2237
20090TIP3    H181761   2.508   2.963   1.619 -2.2021 -0.1286 -1.7611
20090TIP3    H281762   2.572   3.069   1.532 -0.1877 -0.0692 -0.2753
20091TIP3   OH281763   2.187   1.588  11.306  0.1953 -0.1171 -0.8244
20091TIP3    H181764   2.097   1.612  11.282 -0.3113 -1.5553 -0.4991
20091TIP3    H281765   2.240   1.614  11.231 -0.3832  1.3400 -0.7561
20092TIP3   OH281766   4.221   5.097  12.156  0.6258  0.2084  0.0521
20092TIP3    H181767   4.267   5.178  12.138 -1.4691  1.4879  0.1461
20092TIP3    H281768   4.160   5.087  12.084 -1.2192  0.3494  1.5157
20093TIP3   OH281769   3.064   1.785  12.808  0.3022  0.3944  0.1155
20093TIP3    H181770   3.105   1.778  12.722 -0.2484 -1.4470 -0.0511
20093TIP3    H281771   2.977   1.820  12.791 -0.0038 -0.4821 -0.1581
20094TIP3   OH281772   4.421   6.400   0.020  0.0338  0.2725 -0.3132
20094TIP3    H181773   4.377   6.413   0.105  2.1836 -0.6751  1.0304
20094TIP3    H281774   4.351   6.374  -0.039 -1.4699  0.4716  1.2940
20095TIP3   OH281775   4.418   3.021   3.548  0.4010  0.2844  0.2448
20095TIP3    H181776   4.370   2.986   3.623  0.9540  0.4551  0.6858
20095TIP3    H281777   4.369   2.992   3.471 -0.5935  0.7394  0.6950
20096TIP3   OH281778   0.177   2.224  11.885 -0.6415 -0.2519 -0.1848
20096TIP3    H181779   0.252   2.185  11.840  0.7093  1.6196  0.2924
20096TIP3    H281780   0.112   2.235  11.816 -0.0006 -0.7609 -0.8992
20097TIP3   OH281781   2.486   4.971  13.667  0.0229 -0.1124 -0.4624
20097TIP3    H181782   2.555   4.915  13.631  0.6451  0.4025 -0.1137
20097TIP3    H281783   2.464   4.932  13.751 -2.0083 -1.7809 -1.6888
20098TIP3   OH281784   6.224   1.017  12.778  0.3477 -0.5039  0.6337
20098TIP3    H181785   6.241   1.101  12.821  0.3221  0.6935 -1.5743
20098TIP3    H281786   6.301   1.002  12.723  0.9021 -2.5690  1.8409
20099TIP3   OH281787   1.246   5.062   5.136  0.4490  0.2933 -0.5000
20099TIP3    H181788   1.269   5.128   5.201  0.6466 -0.6247  0.3986
20099TIP3    H281789   1.307   5.076   5.064  0.6673  0.9077 -0.1971
20100TIP3   OH281790   6.782   6.483  12.902  0.3597 -0.1940  0.2473
20100TIP3    H181791   6.877   6.488  12.904  0.3414  0.8225  2.8509
20100TIP3    H281792   6.758   6.430  12.978 -1.1597 -0.5905 -0.4553
20101TIP3   OH281793   5.434   1.182   1.992  0.2500  0.1643 -1.1341
20101TIP3    H181794   5.495   1.246   1.957 -1.5289  1.5311 -1.8321
20101TIP3    H281795   5.454   1.179   2.086  1.3751  0.5692 -1.3479
20102TIP3   OH281796   4.821   5.981   5.070 -0.2932  0.1560 -0.1997
20102TIP3    H181797   4.859   5.904   5.113  0.4094 -1.0237 -2.7765
20102TIP3    H281798   4.776   6.027   5.141  0.8206 -1.6256  1.7934
20103TIP3   OH281799   0.334   4.496  11.916 -0.7687 -0.4380  0.2201
20103TIP3    H181800   0.404   4.455  11.967 -0.1881  0.3523  0.0807
20103TIP3    H281801   0.253   4.462  11.954 -0.3887  0.6699  2.1792
20104TIP3   OH281802   3.641   0.182   4.921 -0.1512  0.0191  0.0264
20104TIP3    H181803   3.588   0.261   4.922  0.3222  0.4816 -2.8804
20104TIP3    H281804   3.730   0.213   4.939 -0.1235 -0.0114 -0.0570
20105TIP3   OH281805   4.563   0.623   3.043 -0.0130  0.2036  0.3706
20105TIP3    H181806   4.579   0.550   2.984  1.2700  1.1221 -0.4937
20105TIP3    H281807   4.509   0.684   2.992 -1.2330 -0.2000  1.1465
20106TIP3   OH281808   3.246   2.460  15.006 -0.1277 -0.2702 -0.1808
20106TIP3    H181809   3.183   2.484  14.938 -0.4219 -0.7841 -0.0922
20106TIP3    H281810   3.255   2.539  15.059  0.3326  0.2391 -0.9832
20107TIP3   OH281811   5.032   3.513   6.564  0.0125 -0.4728 -0.7072
20107TIP3    H181812   4.954   3.458   6.573  0.6789 -1.4732 -0.8943
20107TIP3    H281813   4.999   3.597   6.533 -0.9972 -0.8519 -0.6942
20108TIP3   OH281814   5.090   2.643   4.925 -0.1844 -0.9978 -0.4285
20108TIP3    H181815   5.115   2.726   4.964  0.1441 -1.7007  0.9526
20108TIP3    H281816   5.144   2.578   4.972 -1.4663 -2.1110 -0.4425
20109TIP3   OH281817   2.584   1.225   5.439 -0.9457 -0.7627 -0.0707
20109TIP3    H181818   2.599   1.298   5.379 -1.0878  1.5408  2.5232
20109TIP3    H281819   2.489   1.212   5.436 -0.8995 -1.0144 -0.6934
20110TIP3   OH281820   4.004   5.320   2.587 -0.3318  0.2254  0.3426
20110TIP3    H181821   4.075   5.310   2.523  1.3586 -0.0637  2.1584
20110TIP3    H281822   3.966   5.406   2.566 -0.3495 -0.1945 -1.5040
20111TIP3   OH281823   1.463   1.563  13.716  0.0848 -0.2326 -0.0157
20111TIP3    H181824   1.548   1.580  13.758 -0.1146 -1.4553  0.9200
20111TIP3    H281825   1.453   1.636  13.654  0.7204  1.2461  1.5190
20112TIP3   OH281826   1.193   2.355   5.287  1.2314  0.0796  0.0730
20112TIP3    H181827   1.172   2.438   5.244  1.9844  0.1139 -0.2470
20112TIP3    H281828   1.206   2.293   5.215 -1.5326 -0.9134  0.3254
20113TIP3   OH281829   6.162   6.624  12.926 -0.3665 -0.3966 -0.2262
20113TIP3    H181830   6.142   6.531  12.944 -0.0471 -0.6226 -1.0092
20113TIP3    H281831   6.258   6.628  12.928 -0.3930  0.0229  0.2882
20114TIP3   OH281832   2.242   2.154   1.801 -0.6047 -0.1784 -0.4943
20114TIP3    H181833   2.189   2.215   1.852 -1.3468 -0.3471 -1.0386
20114TIP3    H281834   2.178   2.098   1.756 -0.0054  0.2476 -1.9494
20115TIP3   OH281835   0.992   4.924   1.726  0.1550  0.1296  0.0704
20115TIP3    H181836   1.079   4.889   1.748  0.4135 -1.4964 -3.0578
20115TIP3    H281837   0.965   4.970   1.806  2.9297 -1.1433  1.9332
20116TIP3   OH281838   4.895   2.633  15.302  0.4185 -0.3453 -0.5846
20116TIP3    H181839   4.902   2.727  15.285  2.7708 -0.3453  0.0995
20116TIP3    H281840   4.838   2.601  15.233 -2.7716  1.9494  0.7371
20117TIP3   OH281841   3.094   2.280   0.526  0.1463 -0.2937 -0.3355
20117TIP3    H181842   3.047   2.200   0.503 -2.5735  0.4812  1.9311
20117TIP3    H281843   3.028   2.336   0.567  2.9948  0.9701  3.0363
20118TIP3   OH281844   0.702   1.994  12.725 -0.0589  0.1100  0.3368
20118TIP3    H181845   0.722   2.070  12.779 -1.5220 -0.2702  1.4622
20118TIP3    H281846   0.609   2.005  12.702 -1.0402 -2.4720  2.5360
20119TIP3   OH281847   3.282   2.284  11.441 -0.4741  0.3026  0.3639
20119TIP3    H181848   3.241   2.315  11.522 -2.5146  0.3766 -0.6231
20119TIP3    H281849   3.300   2.363  11.391 -0.9428  0.1869 -0.0052
20120TIP3   OH281850   4.296   5.926  13.331 -0.1328 -0.4429 -0.4964
20120TIP3    H181851   4.211   5.947  13.369  0.3528 -0.7068  0.7901
20120TIP3    H281852   4.324   5.847  13.378 -0.4976 -2.1773 -2.9848
20121TIP3   OH281853   5.380   0.532   4.180 -0.0630  0.0720 -0.2215
20121TIP3    H181854   5.395   0.608   4.236 -0.5378  0.9641 -1.2423
20121TIP3    H281855   5.465   0.489   4.173  0.2159  0.5154  0.3716
20122TIP3   OH281856   6.462   1.736   3.086 -0.2495 -0.3101  0.2936
20122TIP3    H181857   6.390   1.795   3.109 -1.0220 -1.2630  0.3791
20122TIP3    H281858   6.540   1.792   3.084 -0.5799  0.3218  2.5668
20123TIP3   OH281859   5.081   4.404  14.795  0.2600 -0.0991 -0.6565
20123TIP3    H181860   5.096   4.356  14.876  2.3563  0.4143 -0.6809
20123TIP3    H281861   5.003   4.457  14.812 -0.5937 -1.5871  0.2381
20124TIP3   OH281862   2.911   3.749  11.791 -0.1409 -0.0683  0.0886
20124TIP3    H181863   2.955   3.741  11.707 -0.2990 -0.9973  0.0793
20124TIP3    H281864   2.881   3.660  11.810 -0.4633  0.2146  0.9301
20125TIP3   OH281865   3.759   1.593   5.402  0.0261  0.5068 -0.0163
20125TIP3    H181866   3.715   1.517   5.366 -1.0982  1.4284 -0.6685
20125TIP3    H281867   3.834   1.608   5.345 -0.6567  0.8161 -0.8494
20126TIP3   OH281868   6.589   4.912   3.665  0.4375  0.1164 -0.3838
20126TIP3    H181869   6.684   4.921   3.661  0.3189  1.4557 -0.5474
20126TIP3    H281870   6.574   4.822   3.694  1.7689  0.3253  1.0093
20127TIP3   OH281871   1.482   6.078  16.762 -0.4398 -0.1416  0.4145
20127TIP3    H181872   1.470   6.031  16.680  1.4814 -0.7810  0.4433
20127TIP3    H281873   1.490   6.170  16.736  1.3636 -0.4472 -0.3218
20128TIP3   OH281874   2.887   2.794   0.665 -0.2206 -0.3280 -0.0039
20128TIP3    H181875   2.924   2.739   0.735 -1.1975  0.6138  1.2989
20128TIP3    H281876   2.929   2.762   0.585  3.0518  0.3363  1.2752
20129TIP3   OH281877   5.557   6.353  13.721  0.0464 -0.7847  0.1562
20129TIP3    H181878   5.565   6.258  13.715  2.6677 -0.8681  2.5698
20129TIP3    H281879   5.639   6.386  13.684  0.0649  0.3803  1.1508
20130TIP3   OH281880   2.078   0.068   5.814  0.5510  0.0736  0.4185
20130TIP3    H181881   2.156   0.100   5.860  0.0848  0.4641  0.9561
20130TIP3    H281882   2.089  -0.027   5.812  2.4103  0.2588 -2.0292
20131TIP3   OH281883   0.376   5.447  13.195 -0.4552  0.1030 -0.2457
20131TIP3    H181884   0.364   5.433  13.289 -0.8028  1.6687 -0.0335
20131TIP3    H281885   0.294   5.418  13.156 -1.7101  2.6414  0.3198
20132TIP3   OH281886   4.804   5.531   1.812 -0.3388 -0.3039 -0.7302
20132TIP3    H181887   4.848   5.501   1.732 -1.0951 -0.5860 -1.0462
20132TIP3    H281888   4.798   5.626   1.802  0.4426 -0.2228 -0.5502
20133TIP3   OH281889   3.433   3.454   1.420  0.2823 -0.0609 -0.0971
20133TIP3    H181890   3.349   3.411   1.409 -0.7421  1.6197  0.6765
20133TIP3    H281891   3.464   3.425   1.505  0.4662 -0.6221 -0.3498
20134TIP3   OH281892   1.787   3.360  16.881 -0.4644  0.0568  0.3644
20134TIP3    H181893   1.813   3.329  16.794 -0.4835  0.2065  0.3048
20134TIP3    H281894   1.863   3.343  16.936 -0.0929  0.8466  0.1052
20135TIP3   OH281895   3.777   3.050  11.837 -0.1605 -0.3162  0.1121
20135TIP3    H181896   3.822   2.967  11.850  0.0600 -0.2032  0.0694
20135TIP3    H281897   3.824   3.112  11.893 -0.4546 -0.2656  0.3053
20136TIP3   OH281898   4.670   5.191  10.899  0.4132 -0.4143  0.2070
20136TIP3    H181899   4.755   5.185  10.855  0.7008 -1.6485  0.8854
20136TIP3    H281900   4.621   5.253  10.846  1.5523 -0.0798 -0.5064
20137TIP3   OH281901   3.603   0.304   4.435  0.2079  0.0019 -0.2462
20137TIP3    H181902   3.689   0.321   4.474  0.4598 -1.6044 -0.0696
20137TIP3    H281903   3.552   0.262   4.504 -0.5128  0.3255 -0.5674
20138TIP3   OH281904   5.501   5.525   5.136  0.4131  0.0408  0.4311
20138TIP3    H181905   5.493   5.607   5.185  0.6082 -0.1275  0.7464
20138TIP3    H281906   5.432   5.469   5.170  0.3052  0.0588  0.2438
20139TIP3   OH281907   5.635   0.422   4.076 -0.2871  0.0611 -0.4417
20139TIP3    H181908   5.664   0.508   4.049 -0.2185 -0.2211 -1.3058
20139TIP3    H281909   5.695   0.361   4.033 -0.5800 -0.4273 -0.1760
20140TIP3   OH281910   1.828   0.308   5.285 -0.3360  0.2979  0.1852
20140TIP3    H181911   1.905   0.362   5.303  0.1534 -0.7538  1.5150
20140TIP3    H281912   1.766   0.330   5.355 -0.4499 -0.2383  0.2633
20141TIP3   OH281913   3.094   5.500  11.417  0.2823  0.4412  0.5155
20141TIP3    H181914   3.059   5.539  11.497  0.6423 -0.6810  1.2409
20141TIP3    H281915   3.079   5.566  11.350 -0.1962  1.3317  1.4690
20142TIP3   OH281916   1.687   6.051  17.211  0.7899  0.0566  0.5844
20142TIP3    H181917   1.656   6.085  17.295  0.9948  0.9911  0.2880
20142TIP3    H281918   1.766   6.101  17.193  1.3812 -0.9355  0.3777
20143TIP3   OH281919   3.305   2.743  16.774  0.1340  0.6236  0.2552
20143TIP3    H181920   3.281   2.811  16.836  1.0682  0.9862  0.2380
20143TIP3    H281921   3.346   2.675  16.828  1.8592  1.3736 -0.0383
20144TIP3   OH281922   5.340   5.199  11.256 -0.1441 -0.4854 -0.0751
20144TIP3    H181923   5.369   5.272  11.202 -1.6095  0.3608  0.2498
20144TIP3    H281924   5.412   5.136  11.250 -0.3730 -0.6318 -3.3473
20145TIP3   OH281925   3.853   2.842  12.170 -0.0084  0.0130 -0.2184
20145TIP3    H181926   3.817   2.769  12.221 -0.0838  1.0897  1.3202
20145TIP3    H281927   3.905   2.892  12.233 -0.3749  1.5799 -1.1312
20146TIP3   OH281928   1.435   3.717   4.095  0.0107 -0.7887 -0.3145
20146TIP3    H181929   1.450   3.628   4.062  0.8783 -0.0053 -2.1290
20146TIP3    H281930   1.494   3.725   4.170 -0.9075 -2.1068  0.5878
20147TIP3   OH281931   2.153   3.192   4.348 -0.5189  0.0168  0.2498
20147TIP3    H181932   2.173   3.130   4.418 -2.8787 -1.9780 -0.7206
20147TIP3    H281933   2.128   3.273   4.394  2.7994  0.4859  1.5230
20148TIP3   OH281934   1.506   6.203   3.375 -0.3593  0.3732  0.2135
20148TIP3    H181935   1.450   6.276   3.401 -0.1689  0.3084  0.8406
20148TIP3    H281936   1.520   6.215   3.281 -0.0432  1.3555  0.3714
20149TIP3   OH281937   4.435   2.898   0.007  0.1415  0.3516  0.3229
20149TIP3    H181938   4.420   2.818   0.057  2.8693 -0.1947  0.4047
20149TIP3    H281939   4.351   2.944   0.010 -1.1007 -1.8338  1.4458
20150TIP3   OH281940   4.572   3.273   0.887 -0.9168 -0.6176 -0.3974
20150TIP3    H181941   4.499   3.214   0.868 -0.3081 -1.3637 -0.4637
20150TIP3    H281942   4.631   3.264   0.813 -0.8054  0.0749 -0.4025
20151TIP3   OH281943   6.480   3.495  12.538  0.0185 -0.3929  0.1845
20151TIP3    H181944   6.530   3.576  12.548  0.6677 -0.6523 -0.7876
20151TIP3    H281945   6.419   3.495  12.611 -0.4975  1.3350 -0.2032
20152TIP3   OH281946   6.158   6.063   5.787 -0.2172 -0.0720 -0.1724
20152TIP3    H181947   6.153   6.041   5.694  0.7204  1.1571 -0.5347
20152TIP3    H281948   6.117   5.988   5.831  1.2539 -1.6915 -1.4329
20153TIP3   OH281949   5.236   6.088  11.853  0.4360 -0.5270  0.3778
20153TIP3    H181950   5.144   6.106  11.832  1.0311 -0.3346 -2.5570
20153TIP3    H281951   5.259   6.156  11.917 -1.7880 -1.5246  2.4006
20154TIP3   OH281952   1.586   5.696  11.089 -0.1311  0.1486 -0.3102
20154TIP3    H181953   1.648   5.670  11.020  0.1554 -0.2089  0.0744
20154TIP3    H281954   1.550   5.613  11.120  2.2662 -0.0721  2.3062
20155TIP3   OH281955   2.686   0.191  15.478 -0.5862 -0.0960 -0.4515
20155TIP3    H181956   2.743   0.267  15.478 -0.1039 -0.4391  0.8434
20155TIP3    H281957   2.614   0.215  15.420  1.1641  0.0828 -2.6825
20156TIP3   OH281958   5.117   4.188   4.411  0.5695 -0.0466  0.5748
20156TIP3    H181959   5.184   4.215   4.348  0.2051 -1.8036 -0.6304
20156TIP3    H281960   5.163   4.131   4.473  1.0919  2.2381  2.4493
20157TIP3   OH281961   3.448   6.812   4.704  0.0601 -0.7691  0.2201
20157TIP3    H181962   3.519   6.796   4.641  0.7417 -0.3124  0.8610
20157TIP3    H281963   3.487   6.868   4.770 -0.8865 -0.5823  0.6323
20158TIP3   OH281964   5.000   0.166  11.968  0.1228  0.2285  0.6445
20158TIP3    H181965   5.007   0.088  12.023  0.5763 -0.9393 -1.0208
20158TIP3    H281966   5.090   0.198  11.960  0.4645 -1.0639 -1.3926
20159TIP3   OH281967   2.508   3.479   4.302  0.1085  0.2699 -0.6316
20159TIP3    H181968   2.494   3.547   4.367 -0.8865 -0.4354 -0.0838
20159TIP3    H281969   2.492   3.522   4.218  1.3316  1.1705 -0.4401
20160TIP3   OH281970   0.639   3.482   4.492 -0.0489  0.2282  0.1180
20160TIP3    H181971   0.633   3.574   4.517  0.7230  0.0135  1.1423
20160TIP3    H281972   0.554   3.462   4.453 -0.8389  0.9317  1.4193
20161TIP3   OH281973   4.975   1.022   5.107 -0.4738 -0.5413  0.1245
20161TIP3    H181974   4.882   1.000   5.111 -0.5158 -0.4965 -0.5109
20161TIP3    H281975   5.006   0.981   5.027  0.1275 -0.8063  0.4881
20162TIP3   OH281976   4.932   5.131   4.987 -0.2816 -0.3615 -0.4167
20162TIP3    H181977   4.937   5.079   4.906 -0.8858 -0.5853 -0.3220
20162TIP3    H281978   4.920   5.066   5.056  0.3057 -0.1729 -0.1368
20163TIP3   OH281979   0.923   6.593  14.886  0.6097  0.4759 -0.3165
20163TIP3    H181980   0.982   6.528  14.847 -2.0959 -2.0660 -0.4817
20163TIP3    H281981   0.845   6.592  14.831 -0.0076  3.1226  0.3467
20164TIP3   OH281982   0.486   4.546   3.612 -0.3013  0.2329  0.7194
20164TIP3    H181983   0.430   4.623   3.603  2.0547  1.9837 -0.0204
20164TIP3    H281984   0.495   4.533   3.706  1.4033  2.6606  0.9935
20165TIP3   OH281985   3.968   5.207  17.277  0.0293  0.1177  0.3006
20165TIP3    H181986   3.929   5.134  17.325  0.0195  0.3516  0.6538
20165TIP3    H281987   4.053   5.175  17.248  0.6888  0.4761  1.7804
20166TIP3   OH281988   6.640   1.099  13.281  0.1476 -0.0813  0.6087
20166TIP3    H181989   6.691   1.178  13.296 -2.0030  1.0268  2.7370
20166TIP3    H281990   6.622   1.099  13.187  1.5657  1.0184  0.3126
20167TIP3   OH281991   6.184   4.151   1.469  0.3157 -0.0761 -0.3995
20167TIP3    H181992   6.246   4.082   1.444 -0.8294 -0.4826 -2.3621
20167TIP3    H281993   6.237   4.231   1.472  1.0900 -0.5388 -1.2119
20168TIP3   OH281994   5.784   3.829  11.879 -0.4771 -0.2774  0.0361
20168TIP3    H181995   5.861   3.796  11.927  1.0930 -0.9105 -2.7172
20168TIP3    H281996   5.751   3.752  11.833 -1.9149  0.3236  0.0357
20169TIP3   OH281997   0.226   1.761   1.392  0.2319  0.1083  0.3161
20169TIP3    H181998   0.196   1.795   1.477  0.5685  0.1807  0.4061
20169TIP3    H281999   0.311   1.721   1.410  0.1282 -0.2282  0.0872
20170TIP3   OH282000   5.790   6.638  16.648  0.1461  0.3182  0.1897
20170TIP3    H182001   5.746   6.724  16.651 -1.2971 -0.3728 -0.2724
20170TIP3    H282002   5.719   6.575  16.661  1.0888 -0.8402 -0.1808
20171TIP3   OH282003   0.162   5.529  16.479  0.2061 -0.0187 -0.0595
20171TIP3    H182004   0.069   5.552  16.479  0.5707  1.7487  1.7197
20171TIP3    H282005   0.179   5.496  16.391 -1.6321  1.7548 -1.1537
20172TIP3   OH282006   5.326   1.732  14.640  0.5244 -0.2362 -0.4915
20172TIP3    H182007   5.285   1.680  14.571  1.1813 -0.3619 -0.7958
20172TIP3    H282008   5.308   1.684  14.720 -1.0960  0.4200 -0.4364
20173TIP3   OH282009   3.474   5.357  17.110  0.2084  0.2467  0.0690
20173TIP3    H182010   3.564   5.374  17.083  0.7059 -1.7108  0.3196
20173TIP3    H282011   3.420   5.385  17.036  0.9047  2.4948  0.3623
20174TIP3   OH282012   6.063   2.439   1.140  0.4978 -0.6897 -0.3588
20174TIP3    H182013   6.080   2.350   1.168 -0.1273 -0.6246  0.2561
20174TIP3    H282014   6.145   2.486   1.157 -0.1518 -0.4000  2.4178
20175TIP3   OH282015   1.532   1.889   3.695  0.0337  1.0262 -0.2558
20175TIP3    H182016   1.463   1.893   3.761  0.9861  0.4883  0.7999
20175TIP3    H282017   1.486   1.867   3.614 -0.9303 -0.3411  0.6194
20176TIP3   OH282018   6.475   6.480  14.989  0.2100  0.1136  0.1125
20176TIP3    H182019   6.523   6.473  14.907 -1.5203 -1.4093 -0.8420
20176TIP3    H282020   6.401   6.537  14.970  0.5550  0.8955  1.0293
20177TIP3   OH282021   2.688   0.089  15.150 -0.1959  0.4168  0.1924
20177TIP3    H182022   2.692  -0.001  15.184 -1.1372  0.5646  0.7326
20177TIP3    H282023   2.726   0.083  15.062  0.1278 -0.4242  0.3747
20178TIP3   OH282024   0.905   6.480   3.723  0.3581  0.4325  0.0814
20178TIP3    H182025   0.987   6.451   3.762 -0.1114 -0.1355  0.6613
20178TIP3    H282026   0.850   6.402   3.722 -0.3944  0.9528  0.2647
20179TIP3   OH282027   6.278   3.214  14.890 -0.1283 -0.1439  0.3541
20179TIP3    H182028   6.294   3.255  14.975  0.2170  1.1073 -0.2975
20179TIP3    H282029   6.364   3.211  14.848 -0.5906  1.0177 -0.7172
20180TIP3   OH282030   4.919   2.676   0.977 -0.3383 -0.5730 -0.1067
20180TIP3    H182031   4.870   2.741   0.927  0.2784 -0.2516 -0.3122
20180TIP3    H282032   5.000   2.722   1.001 -0.7513 -0.6094  1.4488
20181TIP3   OH282033   4.600   0.372   0.254 -0.6314  0.8195 -0.0350
20181TIP3    H182034   4.533   0.388   0.187 -1.0272  1.5048  0.5111
20181TIP3    H282035   4.681   0.404   0.214 -0.6939  0.3347 -0.5561
20182TIP3   OH282036   0.961   4.493  15.410 -0.1190 -0.5177 -0.2835
20182TIP3    H182037   1.029   4.436  15.448 -0.0748 -0.7194 -0.6656
20182TIP3    H282038   0.901   4.433  15.366 -0.1538 -0.2811 -0.5612
20183TIP3   OH282039   3.397   1.253  13.273  0.5082  0.8407 -0.2784
20183TIP3    H182040   3.366   1.290  13.356 -1.8219 -0.5012 -0.4716
20183TIP3    H282041   3.332   1.280  13.209 -0.5461 -2.3223 -0.6695
20184TIP3   OH282042   1.784   3.155  13.036 -0.1915  0.2695  0.2359
20184TIP3    H182043   1.825   3.237  13.065 -0.0711 -0.7288  3.3500
20184TIP3    H282044   1.857   3.093  13.030 -0.4173  0.1099 -1.0381
20185TIP3   OH282045   3.879   3.630   2.627 -0.1318  0.1896 -0.1307
20185TIP3    H182046   3.870   3.725   2.639 -0.5572  0.1563 -0.1500
20185TIP3    H282047   3.917   3.621   2.540 -0.3341  0.3391 -0.2375
20186TIP3   OH282048   0.507   0.380   2.210 -0.0439 -0.2535  0.5792
20186TIP3    H182049   0.566   0.410   2.141  1.1277 -2.2603  0.6321
20186TIP3    H282050   0.505   0.451   2.274  2.7845 -0.3189  0.8500
20187TIP3   OH282051   1.472   0.868   1.503 -0.1020  0.7928  0.2731
20187TIP3    H182052   1.475   0.816   1.583 -0.8686 -0.4644 -0.4798
20187TIP3    H282053   1.379   0.878   1.485  0.0350 -0.5290 -1.4260
20188TIP3   OH282054   3.336   1.609  17.100 -0.0531  0.3765  0.1016
20188TIP3    H182055   3.360   1.531  17.150 -1.8715 -0.6306 -0.5020
20188TIP3    H282056   3.420   1.651  17.079  0.9839 -1.5428  0.1999
20189TIP3   OH282057   2.469   0.772   4.909 -0.1191 -0.1497 -0.7821
20189TIP3    H182058   2.550   0.736   4.944  1.2518  1.1825 -2.4402
20189TIP3    H282059   2.496   0.832   4.839 -2.4613  1.1100 -0.7456
20190TIP3   OH282060   1.545   2.983   2.279 -0.1677 -0.5020 -0.0203
20190TIP3    H182061   1.579   2.895   2.289  0.0249 -0.3862  0.3483
20190TIP3    H282062   1.458   2.980   2.318 -0.7877 -0.9220 -1.3966
20191TIP3   OH282063   4.674   4.565  17.172 -0.3358 -0.2744 -0.2592
20191TIP3    H182064   4.681   4.477  17.136 -0.6370 -0.8367  1.0372
20191TIP3    H282065   4.739   4.616  17.123  0.7017 -1.4857 -0.1786
20192TIP3   OH282066   1.297   3.584  13.417 -0.0745  0.1548 -0.2059
20192TIP3    H182067   1.329   3.496  13.394 -2.5753 -0.6554 -0.9200
20192TIP3    H282068   1.218   3.568  13.469 -0.2564  1.9881  0.1413
20193TIP3   OH282069   5.413   3.912  16.826 -0.3225  0.0331  0.1390
20193TIP3    H182070   5.456   3.991  16.793 -1.4613 -0.3510 -2.5115
20193TIP3    H282071   5.479   3.870  16.881  0.7355  2.1607  0.5969
20194TIP3   OH282072   3.225   5.101  15.525 -0.2713  0.0642 -0.2243
20194TIP3    H182073   3.207   5.064  15.611 -0.5319  1.3700  0.3143
20194TIP3    H282074   3.151   5.159  15.508  0.8292  1.5031 -0.3286
20195TIP3   OH282075   4.217   6.320  15.670 -0.1319 -0.3204 -0.1772
20195TIP3    H182076   4.185   6.313  15.760  1.9657 -2.2004  0.5289
20195TIP3    H282077   4.262   6.405  15.668 -2.1613  0.7981 -0.1987
20196TIP3   OH282078   1.345   4.104  16.371 -0.0510  0.5745 -0.3337
20196TIP3    H182079   1.254   4.120  16.345  0.2503  0.7662 -1.3389
20196TIP3    H282080   1.365   4.174  16.433 -0.9936 -0.2610  0.9711
20197TIP3   OH282081   4.420   2.145  12.798  0.3372  0.4008  0.0367
20197TIP3    H182082   4.487   2.158  12.730  0.6806  0.3284  0.3585
20197TIP3    H282083   4.381   2.060  12.777  0.1316  0.5847 -0.3334
20198TIP3   OH282084   4.490   3.285  10.807  1.1211 -0.1312 -0.9045
20198TIP3    H182085   4.449   3.276  10.721  0.9618  0.7410 -0.9300
20198TIP3    H282086   4.464   3.373  10.837 -0.7253 -1.2630  1.0650
20199TIP3   OH282087   2.990   5.902  14.487 -0.3183 -0.5816  0.6273
20199TIP3    H182088   3.070   5.887  14.539 -0.1381  2.1813  1.3366
20199TIP3    H282089   2.919   5.898  14.551 -0.3569  0.3940  0.6586
20200TIP3   OH282090   5.386   1.111  14.130 -0.5853 -0.0547  0.2211
20200TIP3    H182091   5.374   1.143  14.040  0.0517  0.7631  0.4143
20200TIP3    H282092   5.444   1.036  14.121 -2.3114 -1.4086 -0.2702
20201TIP3   OH282093   2.084   0.763   3.345  0.4121  0.1099  0.0930
20201TIP3    H182094   2.148   0.824   3.381  2.8142 -3.2569  2.1149
20201TIP3    H282095   2.000   0.793   3.380  1.3923  2.3701  0.6988
20202TIP3   OH282096   2.647   1.337  14.436 -0.3562 -0.0428 -0.2475
20202TIP3    H182097   2.657   1.363  14.528  1.2447 -1.8496  0.1542
20202TIP3    H282098   2.566   1.379  14.408 -1.9996 -1.0029  2.5890
20203TIP3   OH282099   6.754   3.511  10.911  0.2829  0.0593  0.2857
20203TIP3    H182100   6.729   3.438  10.969  0.4841  1.9047  2.8603
20203TIP3    H282101   6.749   3.474  10.823  0.5836 -3.1166  1.4746
20204TIP3   OH282102   0.557   3.905   0.616 -0.3219  0.1846  0.2296
20204TIP3    H182103   0.560   3.841   0.687 -1.1627  0.3849  0.4555
20204TIP3    H282104   0.646   3.940   0.612 -0.5102  0.9400  1.8969
20205TIP3   OH282105   1.671   2.483   4.612  0.3498  0.0174 -0.0594
20205TIP3    H182106   1.714   2.547   4.669  0.2078  0.4118 -0.3915
20205TIP3    H282107   1.582   2.475   4.649  1.2936 -2.4332  1.9758
20206TIP3   OH282108   5.768   2.747   1.571  0.3119 -0.1036 -0.3868
20206TIP3    H182109   5.846   2.790   1.535  0.3475 -1.9479 -2.8253
20206TIP3    H282110   5.714   2.727   1.494 -1.5734 -0.7974  1.0316
20207TIP3   OH282111   2.240   5.098   2.588 -0.0497 -0.2172 -0.2801
20207TIP3    H182112   2.314   5.069   2.643 -1.9606 -0.9080  2.1129
20207TIP3    H282113   2.244   5.194   2.592  0.0716 -0.2544  0.7816
20208TIP3   OH282114   6.687   4.513  12.715 -0.2224  0.3077  0.4311
20208TIP3    H182115   6.682   4.435  12.660 -0.3918 -0.6982  1.8164
20208TIP3    H282116   6.681   4.586  12.654 -0.2103 -0.7575 -0.8914
20209TIP3   OH282117   1.215   3.292  10.706  0.3923  0.0376 -0.4571
20209TIP3    H182118   1.275   3.358  10.671  0.3406  0.0196 -0.5814
20209TIP3    H282119   1.271   3.221  10.736  0.3603 -0.7524 -2.1593
20210TIP3   OH282120   3.345   5.892  12.861  0.3599  0.3022  0.3235
20210TIP3    H182121   3.396   5.971  12.873 -0.4882  0.4291  4.6469
20210TIP3    H282122   3.282   5.892  12.934 -1.6637 -2.9009 -1.1654
20211TIP3   OH282123   1.576   3.797   0.579  0.4034  0.6302  0.1304
20211TIP3    H182124   1.528   3.756   0.651 -0.3892  1.1703 -0.0738
20211TIP3    H282125   1.527   3.876   0.560  0.7613  0.6330 -0.8269
20212TIP3   OH282126   1.772   4.589  16.422  0.1489 -0.3529  0.3050
20212TIP3    H182127   1.695   4.552  16.379  0.5177 -0.3895 -0.3305
20212TIP3    H282128   1.797   4.664  16.368  2.1612 -1.8999 -1.0808
20213TIP3   OH282129   2.608   3.063  16.533  0.2871  0.1439 -0.5436
20213TIP3    H182130   2.630   3.049  16.441 -0.8783 -0.0423 -0.8062
20213TIP3    H282131   2.518   3.094  16.532 -0.4651 -1.8025  0.6244
20214TIP3   OH282132   6.639   1.638  17.072  0.1952  0.6750 -0.1378
20214TIP3    H182133   6.645   1.567  17.008  1.2558 -0.0182  0.7031
20214TIP3    H282134   6.722   1.635  17.119 -0.6580  0.9903  1.4657
20215TIP3   OH282135   5.859   0.107   0.056 -0.4419  0.3751  0.0673
20215TIP3    H182136   5.795   0.067   0.115  0.0198  0.9934  1.0052
20215TIP3    H282137   5.875   0.039  -0.010  0.1439 -0.9340  1.4749
20216TIP3   OH282138   2.034   2.039  11.947 -0.0314  0.4302 -0.3461
20216TIP3    H182139   2.107   2.061  12.005 -0.9816  1.5898  0.4666
20216TIP3    H282140   2.050   1.948  11.922  0.6512  0.0227  1.3944
20217TIP3   OH282141   2.071   0.775  15.947 -0.0458 -0.2702 -0.1765
20217TIP3    H182142   2.148   0.827  15.970 -0.4566  0.4168 -0.3199
20217TIP3    H282143   2.106   0.699  15.901  0.6195 -0.5119  0.7036
20218TIP3   OH282144   2.641   5.498  12.331 -0.1269 -0.2388  0.2147
20218TIP3    H182145   2.561   5.483  12.382 -0.3335 -1.0137 -0.3188
20218TIP3    H282146   2.708   5.515  12.397 -0.9465  1.5988  0.6347
20219TIP3   OH282147   3.938   6.582  15.171 -0.0119  0.1080  0.2963
20219TIP3    H182148   3.978   6.654  15.123  0.1642 -1.3071 -1.8048
20219TIP3    H282149   3.844   6.596  15.163  0.0058 -0.3577 -0.9298
20220TIP3   OH282150   0.083   0.074  14.854 -0.0409 -0.0840 -0.5100
20220TIP3    H182151   0.055   0.096  14.765 -1.2698 -0.5301 -0.2546
20220TIP3    H282152   0.120   0.156  14.887 -1.2489  0.6193 -0.8122
20221TIP3   OH282153   1.398   3.518  16.069 -0.3085  0.2979 -0.3996
20221TIP3    H182154   1.404   3.570  16.150  0.3454  0.5868 -0.6274
20221TIP3    H282155   1.478   3.539  16.021 -1.1264  0.8615 -1.5624
20222TIP3   OH282156   2.343   1.701   6.343  0.1002  0.2309 -0.3497
20222TIP3    H182157   2.407   1.655   6.288 -0.5613 -1.4375  0.1900
20222TIP3    H282158   2.381   1.701   6.431  0.1523  0.8546 -0.3681
20223TIP3   OH282159   4.383   3.260  16.074  0.1804  0.1317  0.8340
20223TIP3    H182160   4.324   3.335  16.080  1.6623  1.5319 -0.9796
20223TIP3    H282161   4.469   3.296  16.096  0.8462 -1.1481  0.4091
20224TIP3   OH282162   5.409   1.105  12.001  0.0080 -0.1095 -0.0092
20224TIP3    H182163   5.498   1.110  12.035 -0.2034  1.7325  0.3523
20224TIP3    H282164   5.419   1.103  11.906  0.4302  1.2321 -0.0110
20225TIP3   OH282165   4.944   3.233   2.215  0.9898 -0.4457  0.5862
20225TIP3    H182166   4.912   3.323   2.221  1.1212 -0.1625 -2.0613
20225TIP3    H282167   5.034   3.237   2.248  1.3203  0.6128 -0.3919
20226TIP3   OH282168   3.393   5.645  11.202  0.4330  0.1607  0.5334
20226TIP3    H182169   3.390   5.669  11.110  2.3764  3.6011  1.2099
20226TIP3    H282170   3.301   5.639  11.228 -0.2400  2.9491 -0.8244
20227TIP3   OH282171   1.322   6.807   0.800 -0.2100  0.1000  0.0496
20227TIP3    H182172   1.272   6.868   0.854  0.3136 -1.2128  2.1395
20227TIP3    H282173   1.256   6.748   0.763 -0.5226  0.6327 -0.2524
20228TIP3   OH282174   0.337   2.796   6.249 -0.4920 -0.4049 -0.2920
20228TIP3    H182175   0.249   2.822   6.276 -1.2521 -1.8764 -1.2193
20228TIP3    H282176   0.357   2.719   6.302 -1.4825 -2.5387 -2.7574
20229TIP3   OH282177   3.302   5.615  11.683 -0.0816 -0.2482 -0.3317
20229TIP3    H182178   3.269   5.547  11.741 -3.3015  1.2797 -0.2007
20229TIP3    H282179   3.249   5.607  11.604  0.2219  1.4135 -0.7427
20230TIP3   OH282180   5.875   3.960  14.796 -0.2759 -0.3358  0.1670
20230TIP3    H182181   5.808   3.937  14.860 -0.1612  0.1427  0.4680
20230TIP3    H282182   5.921   4.035  14.835 -0.3137  0.0713 -0.5480
20231TIP3   OH282183   3.964   4.431   1.833  0.1727  0.0670 -0.3284
20231TIP3    H182184   3.965   4.460   1.924  0.2555  0.3890 -0.4280
20231TIP3    H282185   3.906   4.493   1.789 -0.0547 -0.2309 -0.4488
20232TIP3   OH282186   2.271   3.494   3.784 -0.0133  0.3635 -0.5405
20232TIP3    H182187   2.354   3.489   3.830 -0.4695  0.0222  0.2772
20232TIP3    H282188   2.282   3.438   3.707  0.7960  1.0271 -0.9130
20233TIP3   OH282189   4.915   5.171   4.171  0.0103  0.2697 -0.0589
20233TIP3    H182190   4.827   5.158   4.207  0.8847  0.2925  2.2715
20233TIP3    H282191   4.945   5.252   4.213  1.6663 -0.5232  0.3480
20234TIP3   OH282192   6.569   1.962   5.505 -0.0077  0.1615 -0.4299
20234TIP3    H182193   6.559   2.057   5.502  0.1889  0.1758 -0.6591
20234TIP3    H282194   6.480   1.929   5.509 -0.0725  0.3607 -0.2231
20235TIP3   OH282195   3.000   0.886  16.076 -0.3610 -0.1439  0.2560
20235TIP3    H182196   3.031   0.853  16.160 -1.2034 -3.1695 -0.5253
20235TIP3    H282197   2.905   0.893  16.086 -0.7248 -2.4624 -0.9650
20236LIG     O182198   2.095   1.936   9.884  0.1279  0.3450  0.0505
20236LIG     O282199   1.909   1.966   9.755  0.2845 -0.0761 -0.0223
20236LIG     O382200   1.686   2.026   9.812 -0.0181 -0.0191  0.7574
20236LIG     O482201   2.031   2.272   9.834 -0.2596 -0.3363 -0.3224
20236LIG     O582202   2.278   2.177   9.908  0.5927 -0.2348  0.3440
20236LIG     O682203   1.827   1.976   9.468  0.0164  0.7171 -0.4651
20236LIG     O782204   1.758   1.727   9.626  0.0909  0.0795 -0.2640
20236LIG     O882205   1.511   1.706   9.727  0.4902  0.5659  0.2363
20236LIG     O982206   1.989   2.136  10.078 -0.0196  0.1189  0.4012
20236LIG    O1082207   2.100   1.879   9.586  0.0689  0.1710 -0.0798
20236LIG    O1182208   1.485   1.799   9.995 -0.4349 -0.0472  0.1480
20236LIG     C182209   1.991   2.032   9.847  0.1822  0.7688 -0.1772
20236LIG     C282210   2.071   2.148   9.782  0.7684  0.0034 -0.5469
20236LIG     C382211   2.220   2.114   9.790  0.7174  0.6663  0.5912
20236LIG     C482212   2.211   1.960   9.806 -0.3506 -0.1393 -0.5478
20236LIG     C582213   1.794   2.031   9.714  0.8026  0.7985 -0.0735
20236LIG     C682214   1.740   1.965   9.576  0.6849 -0.4895  0.5027
20236LIG     C782215   1.669   1.831   9.590 -0.0848 -0.2125 -0.4035
20236LIG     C882216   1.564   1.841   9.703  0.1388 -0.7076  0.4902
20236LIG     C982217   1.635   1.897   9.830 -0.4050 -0.2871 -0.5452
20236LIG    C1082218   1.916   2.069   9.977  0.1260 -0.3303 -0.5256
20236LIG    C1182219   2.222   1.878   9.672 -0.3065 -0.5259  0.4153
20236LIG    C1282220   1.529   1.921   9.945 -0.4718  0.2956 -0.0981
20236LIG     H182221   2.050   2.146   9.674  0.0931 -0.9912 -0.4197
20236LIG     H282222   2.267   2.145   9.696 -2.0349 -1.7540 -1.8014
20236LIG     H382223   2.294   1.929   9.871 -0.0084  1.2294 -0.3005
20236LIG     H482224   1.812   2.137   9.686  1.5044  0.8467  0.5393
20236LIG     H582225   1.655   2.030   9.546  2.6884  1.0464 -2.3223
20236LIG     H682226   1.610   1.813   9.497 -0.2012 -0.6666 -0.2444
20236LIG     H782227   1.482   1.909   9.670  0.8481  0.6080  1.3615
20236LIG     H882228   1.720   1.832   9.859  1.7223  2.5731 -0.0053
20236LIG     H982229   1.835   2.138   9.944 -0.6605  0.1607  2.2159
20236LIG    H1082230   1.858   1.985  10.020 -2.5748  1.8960  0.5585
20236LIG    H1182231   2.303   1.918   9.608  0.7459 -3.1340 -0.0165
20236LIG    H1282232   2.251   1.775   9.701  2.6603 -0.4695 -1.8192
20236LIG    H1382233   1.574   1.967  10.035  0.4993 -0.2763 -0.2848
20236LIG    H1482234   1.446   1.985   9.906  0.2606  0.8465 -0.7711
20236LIG    H1582235   2.035   2.254   9.928 -0.1611 -1.2398 -0.4950
20236LIG    H1682236   2.217   2.155   9.978  0.1310  1.3920  0.4953
20236LIG    H1782237   1.890   1.907   9.489 -0.8152  0.0244 -0.1720
20236LIG    H1882238   1.701   1.649   9.630  2.8941 -2.2758 -1.8607
20236LIG    H1982239   1.509   1.709   9.823 -0.5188 -1.5232  0.3475
20236LIG    H2082240   1.934   2.125  10.155 -0.3906 -1.4528 -0.0559
20236LIG    H2182241   2.030   1.874   9.651  0.8198  0.5776  0.7913
20236LIG    H2282242   1.448   1.817  10.081  1.8525  0.6153  1.0797
   6.82034   6.82034  17.28551
