Generated by CHARMM-GUI FF-Converter
43236
    1CHL1    C3    1   3.569   3.822   6.042
    1CHL1    H3    2   3.467   3.850   6.005
    1CHL1    O3    3   3.565   3.799   6.182
    1CHL1   H3'    4   3.540   3.886   6.220
    1CHL1    C4    5   3.617   3.695   5.971
    1CHL1   H4A    6   3.709   3.661   6.024
    1CHL1   H4B    7   3.540   3.617   5.990
    1CHL1    C5    8   3.646   3.713   5.823
    1CHL1    C6    9   3.589   3.634   5.731
    1CHL1    H6   10   3.523   3.552   5.763
    1CHL1    C7   11   3.615   3.644   5.583
    1CHL1   H7A   12   3.633   3.543   5.541
    1CHL1   H7B   13   3.523   3.684   5.534
    1CHL1    C8   14   3.734   3.738   5.544
    1CHL1    H8   15   3.828   3.681   5.560
    1CHL1   C14   16   3.723   3.779   5.397
    1CHL1   H14   17   3.629   3.840   5.390
    1CHL1   C15   18   3.705   3.668   5.294
    1CHL1  H15A   19   3.773   3.583   5.318
    1CHL1  H15B   20   3.601   3.632   5.293
    1CHL1   C16   21   3.746   3.731   5.160
    1CHL1  H16A   22   3.834   3.676   5.120
    1CHL1  H16B   23   3.665   3.727   5.084
    1CHL1   C17   24   3.789   3.876   5.191
    1CHL1   H17   25   3.695   3.937   5.190
    1CHL1   C13   26   3.833   3.870   5.341
    1CHL1   C18   27   3.972   3.802   5.348
    1CHL1  H18A   28   3.973   3.706   5.293
    1CHL1  H18B   29   4.048   3.868   5.303
    1CHL1  H18C   30   4.001   3.780   5.452
    1CHL1   C12   31   3.831   3.998   5.428
    1CHL1  H12A   32   3.917   4.063   5.399
    1CHL1  H12B   33   3.737   4.053   5.408
    1CHL1   C11   34   3.840   3.966   5.580
    1CHL1  H11A   35   3.940   3.924   5.600
    1CHL1  H11B   36   3.829   4.061   5.636
    1CHL1    C9   37   3.734   3.863   5.631
    1CHL1    H9   38   3.635   3.911   5.612
    1CHL1   C10   39   3.735   3.833   5.785
    1CHL1   C19   40   3.880   3.802   5.829
    1CHL1  H19A   41   3.944   3.891   5.816
    1CHL1  H19B   42   3.882   3.773   5.936
    1CHL1  H19C   43   3.920   3.717   5.769
    1CHL1    C1   44   3.685   3.957   5.863
    1CHL1   H1A   45   3.754   4.043   5.847
    1CHL1   H1B   46   3.586   3.983   5.819
    1CHL1    C2   47   3.665   3.936   6.014
    1CHL1   H2A   48   3.623   4.027   6.060
    1CHL1   H2B   49   3.763   3.919   6.063
    1CHL1   C20   50   3.878   3.934   5.080
    1CHL1   H20   51   3.975   3.879   5.075
    1CHL1   C21   52   3.909   4.080   5.119
    1CHL1  H21A   53   3.996   4.084   5.189
    1CHL1  H21B   54   3.822   4.126   5.169
    1CHL1  H21C   55   3.934   4.144   5.032
    1CHL1   C22   56   3.811   3.926   4.937
    1CHL1  H22A   57   3.701   3.929   4.948
    1CHL1  H22B   58   3.833   4.017   4.879
    1CHL1   C23   59   3.853   3.808   4.845
    1CHL1  H23A   60   3.958   3.825   4.812
    1CHL1  H23B   61   3.856   3.714   4.904
    1CHL1   C24   62   3.763   3.784   4.720
    1CHL1  H24A   63   3.754   3.674   4.705
    1CHL1  H24B   64   3.661   3.822   4.738
    1CHL1   C25   65   3.821   3.841   4.587
    1CHL1   H25   66   3.845   3.948   4.606
    1CHL1   C26   67   3.952   3.767   4.555
    1CHL1  H26A   68   3.948   3.715   4.457
    1CHL1  H26B   69   4.037   3.838   4.556
    1CHL1  H26C   70   3.971   3.690   4.633
    1CHL1   C27   71   3.725   3.838   4.465
    1CHL1  H27A   72   3.692   3.736   4.440
    1CHL1  H27B   73   3.636   3.902   4.482
    1CHL1  H27C   74   3.778   3.878   4.376
    2CHL1    C3   75   3.894   4.591   5.995
    2CHL1    H3   76   3.910   4.700   5.985
    2CHL1    O3   77   3.865   4.562   6.130
    2CHL1   H3'   78   3.951   4.555   6.176
    2CHL1    C4   79   3.774   4.547   5.910
    2CHL1   H4A   80   3.750   4.442   5.934
    2CHL1   H4B   81   3.686   4.607   5.944
    2CHL1    C5   82   3.802   4.564   5.761
    2CHL1    C6   83   3.727   4.643   5.683
    2CHL1    H6   84   3.639   4.694   5.726
    2CHL1    C7   85   3.755   4.666   5.537
    2CHL1   H7A   86   3.661   4.665   5.479
    2CHL1   H7B   87   3.802   4.766   5.525
    2CHL1    C8   88   3.851   4.561   5.474
    2CHL1    H8   89   3.793   4.468   5.456
    2CHL1   C14   90   3.911   4.613   5.344
    2CHL1   H14   91   3.981   4.696   5.374
    2CHL1   C15   92   3.819   4.679   5.242
    2CHL1  H15A   93   3.728   4.615   5.228
    2CHL1  H15B   94   3.788   4.780   5.274
    2CHL1   C16   95   3.903   4.682   5.114
    2CHL1  H16A   96   3.836   4.641   5.035
    2CHL1  H16B   97   3.933   4.784   5.086
    2CHL1   C17   98   4.030   4.595   5.139
    2CHL1   H17   99   4.107   4.667   5.176
    2CHL1   C13  100   3.996   4.513   5.266
    2CHL1   C18  101   3.913   4.391   5.225
    2CHL1  H18A  102   3.883   4.330   5.313
    2CHL1  H18B  103   3.821   4.420   5.169
    2CHL1  H18C  104   3.976   4.327   5.160
    2CHL1   C12  105   4.113   4.476   5.358
    2CHL1  H12A  106   4.172   4.398   5.307
    2CHL1  H12B  107   4.177   4.566   5.373
    2CHL1   C11  108   4.066   4.428   5.497
    2CHL1  H11A  109   4.018   4.328   5.484
    2CHL1  H11B  110   4.155   4.415   5.563
    2CHL1    C9  111   3.969   4.528   5.566
    2CHL1    H9  112   4.027   4.623   5.574
    2CHL1   C10  113   3.929   4.492   5.711
    2CHL1   C19  114   3.907   4.339   5.721
    2CHL1  H19A  115   4.002   4.284   5.702
    2CHL1  H19B  116   3.874   4.308   5.823
    2CHL1  H19C  117   3.830   4.306   5.648
    2CHL1    C1  118   4.047   4.537   5.803
    2CHL1   H1A  119   4.140   4.483   5.772
    2CHL1   H1B  120   4.066   4.645   5.785
    2CHL1    C2  121   4.022   4.517   5.953
    2CHL1   H2A  122   4.109   4.557   6.009
    2CHL1   H2B  123   4.014   4.409   5.975
    2CHL1   C20  124   4.094   4.537   5.008
    2CHL1   H20  125   4.136   4.629   4.960
    2CHL1   C21  126   3.991   4.484   4.907
    2CHL1  H21A  127   3.932   4.400   4.949
    2CHL1  H21B  128   4.044   4.448   4.816
    2CHL1  H21C  129   3.922   4.563   4.872
    2CHL1   C22  130   4.215   4.439   5.014
    2CHL1  H22A  131   4.256   4.439   5.116
    2CHL1  H22B  132   4.180   4.336   4.992
    2CHL1   C23  133   4.328   4.480   4.913
    2CHL1  H23A  134   4.286   4.474   4.812
    2CHL1  H23B  135   4.339   4.588   4.931
    2CHL1   C24  136   4.468   4.413   4.929
    2CHL1  H24A  137   4.530   4.472   4.998
    2CHL1  H24B  138   4.447   4.316   4.978
    2CHL1   C25  139   4.565   4.377   4.809
    2CHL1   H25  140   4.508   4.325   4.730
    2CHL1   C26  141   4.652   4.483   4.739
    2CHL1  H26A  142   4.755   4.481   4.779
    2CHL1  H26B  143   4.659   4.457   4.631
    2CHL1  H26C  144   4.618   4.586   4.749
    2CHL1   C27  145   4.670   4.280   4.861
    2CHL1  H27A  146   4.740   4.246   4.782
    2CHL1  H27B  147   4.727   4.328   4.944
    2CHL1  H27C  148   4.619   4.193   4.903
    3CHL1    C3  149   3.784   2.328   6.005
    3CHL1    H3  150   3.889   2.317   6.041
    3CHL1    O3  151   3.707   2.392   6.103
    3CHL1   H3'  152   3.714   2.335   6.182
    3CHL1    C4  153   3.781   2.417   5.880
    3CHL1   H4A  154   3.676   2.442   5.857
    3CHL1   H4B  155   3.830   2.514   5.907
    3CHL1    C5  156   3.847   2.350   5.762
    3CHL1    C6  157   3.947   2.409   5.696
    3CHL1    H6  158   3.980   2.510   5.724
    3CHL1    C7  159   4.007   2.349   5.573
    3CHL1   H7A  160   4.021   2.427   5.496
    3CHL1   H7B  161   4.108   2.309   5.597
    3CHL1    C8  162   3.921   2.236   5.511
    3CHL1    H8  163   3.833   2.283   5.461
    3CHL1   C14  164   4.003   2.160   5.410
    3CHL1   H14  165   4.086   2.112   5.469
    3CHL1   C15  166   4.073   2.243   5.304
    3CHL1  H15A  167   3.998   2.302   5.247
    3CHL1  H15B  168   4.151   2.311   5.343
    3CHL1   C16  169   4.131   2.133   5.217
    3CHL1  H16A  170   4.134   2.170   5.112
    3CHL1  H16B  171   4.234   2.109   5.253
    3CHL1   C17  172   4.045   2.004   5.237
    3CHL1   H17  173   4.110   1.932   5.293
    3CHL1   C13  174   3.933   2.046   5.336
    3CHL1   C18  175   3.811   2.098   5.256
    3CHL1  H18A  176   3.843   2.168   5.176
    3CHL1  H18B  177   3.757   2.013   5.209
    3CHL1  H18C  178   3.739   2.150   5.322
    3CHL1   C12  179   3.892   1.943   5.443
    3CHL1  H12A  180   3.832   1.861   5.397
    3CHL1  H12B  181   3.983   1.897   5.488
    3CHL1   C11  182   3.809   2.010   5.555
    3CHL1  H11A  183   3.714   2.040   5.508
    3CHL1  H11B  184   3.787   1.936   5.634
    3CHL1    C9  185   3.874   2.138   5.617
    3CHL1    H9  186   3.968   2.102   5.667
    3CHL1   C10  187   3.793   2.210   5.728
    3CHL1   C19  188   3.648   2.236   5.677
    3CHL1  H19A  189   3.584   2.277   5.757
    3CHL1  H19B  190   3.649   2.308   5.593
    3CHL1  H19C  191   3.600   2.143   5.642
    3CHL1    C1  192   3.795   2.122   5.856
    3CHL1   H1A  193   3.748   2.024   5.835
    3CHL1   H1B  194   3.902   2.103   5.882
    3CHL1    C2  195   3.727   2.187   5.978
    3CHL1   H2A  196   3.741   2.122   6.067
    3CHL1   H2B  197   3.618   2.195   5.958
    3CHL1   C20  198   4.011   1.937   5.104
    3CHL1   H20  199   3.943   2.003   5.045
    3CHL1   C21  200   3.940   1.803   5.130
    3CHL1  H21A  201   4.004   1.736   5.192
    3CHL1  H21B  202   3.918   1.751   5.034
    3CHL1  H21C  203   3.843   1.817   5.182
    3CHL1   C22  204   4.140   1.917   5.018
    3CHL1  H22A  205   4.190   2.013   5.002
    3CHL1  H22B  206   4.210   1.852   5.074
    3CHL1   C23  207   4.123   1.862   4.876
    3CHL1  H23A  208   4.225   1.838   4.837
    3CHL1  H23B  209   4.065   1.768   4.878
    3CHL1   C24  210   4.056   1.965   4.782
    3CHL1  H24A  211   3.950   1.976   4.814
    3CHL1  H24B  212   4.106   2.063   4.790
    3CHL1   C25  213   4.057   1.920   4.634
    3CHL1   H25  214   4.020   1.816   4.638
    3CHL1   C26  215   3.951   1.991   4.549
    3CHL1  H26A  216   3.967   2.100   4.547
    3CHL1  H26B  217   3.955   1.951   4.445
    3CHL1  H26C  218   3.850   1.969   4.590
    3CHL1   C27  219   4.197   1.928   4.570
    3CHL1  H27A  220   4.232   2.033   4.565
    3CHL1  H27B  221   4.272   1.869   4.627
    3CHL1  H27C  222   4.194   1.887   4.466
    4CHL1    C3  223   4.611   4.692   6.008
    4CHL1    H3  224   4.653   4.791   5.979
    4CHL1    O3  225   4.629   4.680   6.148
    4CHL1   H3'  226   4.714   4.634   6.156
    4CHL1    C4  227   4.463   4.683   5.967
    4CHL1   H4A  228   4.425   4.582   5.994
    4CHL1   H4B  229   4.406   4.756   6.029
    4CHL1    C5  230   4.450   4.709   5.818
    4CHL1    C6  231   4.372   4.807   5.770
    4CHL1    H6  232   4.314   4.868   5.841
    4CHL1    C7  233   4.353   4.838   5.624
    4CHL1   H7A  234   4.245   4.842   5.599
    4CHL1   H7B  235   4.396   4.938   5.603
    4CHL1    C8  236   4.419   4.736   5.525
    4CHL1    H8  237   4.349   4.651   5.513
    4CHL1   C14  238   4.445   4.803   5.389
    4CHL1   H14  239   4.518   4.885   5.411
    4CHL1   C15  240   4.327   4.872   5.317
    4CHL1  H15A  241   4.238   4.805   5.320
    4CHL1  H15B  242   4.302   4.969   5.364
    4CHL1   C16  243   4.377   4.889   5.171
    4CHL1  H16A  244   4.305   4.841   5.102
    4CHL1  H16B  245   4.387   4.996   5.144
    4CHL1   C17  246   4.516   4.817   5.162
    4CHL1   H17  247   4.593   4.894   5.187
    4CHL1   C13  248   4.513   4.717   5.282
    4CHL1   C18  249   4.423   4.597   5.247
    4CHL1  H18A  250   4.331   4.628   5.194
    4CHL1  H18B  251   4.478   4.526   5.182
    4CHL1  H18C  252   4.393   4.540   5.337
    4CHL1   C12  253   4.647   4.667   5.339
    4CHL1  H12A  254   4.695   4.599   5.267
    4CHL1  H12B  255   4.712   4.756   5.354
    4CHL1   C11  256   4.627   4.596   5.476
    4CHL1  H11A  257   4.571   4.501   5.460
    4CHL1  H11B  258   4.727   4.568   5.515
    4CHL1    C9  259   4.551   4.683   5.582
    4CHL1    H9  260   4.616   4.773   5.594
    4CHL1   C10  261   4.539   4.622   5.725
    4CHL1   C19  262   4.466   4.486   5.719
    4CHL1  H19A  263   4.522   4.413   5.656
    4CHL1  H19B  264   4.455   4.440   5.819
    4CHL1  H19C  265   4.364   4.497   5.675
    4CHL1    C1  266   4.682   4.600   5.786
    4CHL1   H1A  267   4.728   4.511   5.737
    4CHL1   H1B  268   4.744   4.689   5.763
    4CHL1    C2  269   4.688   4.579   5.938
    4CHL1   H2A  270   4.793   4.577   5.972
    4CHL1   H2B  271   4.641   4.481   5.964
    4CHL1   C20  272   4.550   4.765   5.019
    4CHL1   H20  273   4.487   4.676   5.005
    4CHL1   C21  274   4.696   4.716   5.007
    4CHL1  H21A  275   4.730   4.720   4.901
    4CHL1  H21B  276   4.705   4.610   5.039
    4CHL1  H21C  277   4.766   4.778   5.067
    4CHL1   C22  278   4.516   4.858   4.897
    4CHL1  H22A  279   4.458   4.947   4.926
    4CHL1  H22B  280   4.612   4.896   4.855
    4CHL1   C23  281   4.440   4.783   4.783
    4CHL1  H23A  282   4.460   4.676   4.796
    4CHL1  H23B  283   4.330   4.792   4.800
    4CHL1   C24  284   4.477   4.817   4.637
    4CHL1  H24A  285   4.417   4.904   4.604
    4CHL1  H24B  286   4.584   4.846   4.634
    4CHL1   C25  287   4.460   4.699   4.535
    4CHL1   H25  288   4.523   4.615   4.570
    4CHL1   C26  289   4.318   4.641   4.533
    4CHL1  H26A  290   4.298   4.585   4.627
    4CHL1  H26B  291   4.242   4.720   4.524
    4CHL1  H26C  292   4.306   4.569   4.448
    4CHL1   C27  293   4.517   4.729   4.394
    4CHL1  H27A  294   4.511   4.837   4.369
    4CHL1  H27B  295   4.623   4.698   4.388
    4CHL1  H27C  296   4.461   4.671   4.317
    5CHL1    C3  297   3.073   2.291   5.996
    5CHL1    H3  298   3.184   2.302   5.999
    5CHL1    O3  299   3.025   2.289   6.130
    5CHL1   H3'  300   3.025   2.380   6.164
    5CHL1    C4  301   3.010   2.409   5.922
    5CHL1   H4A  302   2.899   2.402   5.932
    5CHL1   H4B  303   3.041   2.502   5.975
    5CHL1    C5  304   3.046   2.412   5.775
    5CHL1    C6  305   3.099   2.521   5.721
    5CHL1    H6  306   3.116   2.610   5.784
    5CHL1    C7  307   3.130   2.535   5.576
    5CHL1   H7A  308   3.089   2.630   5.537
    5CHL1   H7B  309   3.241   2.539   5.563
    5CHL1    C8  310   3.078   2.418   5.489
    5CHL1    H8  311   2.971   2.434   5.465
    5CHL1   C14  312   3.158   2.416   5.361
    5CHL1   H14  313   3.263   2.393   5.394
    5CHL1   C15  314   3.171   2.551   5.290
    5CHL1  H15A  315   3.073   2.603   5.286
    5CHL1  H15B  316   3.245   2.615   5.342
    5CHL1   C16  317   3.220   2.511   5.153
    5CHL1  H16A  318   3.148   2.552   5.078
    5CHL1  H16B  319   3.321   2.553   5.133
    5CHL1   C17  320   3.223   2.355   5.146
    5CHL1   H17  321   3.325   2.325   5.180
    5CHL1   C13  322   3.127   2.307   5.258
    5CHL1   C18  323   2.982   2.311   5.205
    5CHL1  H18A  324   2.967   2.393   5.134
    5CHL1  H18B  325   2.958   2.216   5.152
    5CHL1  H18C  326   2.909   2.322   5.288
    5CHL1   C12  327   3.151   2.173   5.330
    5CHL1  H12A  328   3.123   2.090   5.263
    5CHL1  H12B  329   3.259   2.163   5.353
    5CHL1   C11  330   3.070   2.164   5.462
    5CHL1  H11A  331   2.962   2.161   5.436
    5CHL1  H11B  332   3.094   2.069   5.512
    5CHL1    C9  333   3.096   2.284   5.559
    5CHL1    H9  334   3.205   2.277   5.582
    5CHL1   C10  335   3.024   2.280   5.697
    5CHL1   C19  336   2.871   2.269   5.674
    5CHL1  H19A  337   2.833   2.352   5.612
    5CHL1  H19B  338   2.846   2.173   5.624
    5CHL1  H19C  339   2.815   2.270   5.770
    5CHL1    C1  340   3.078   2.159   5.778
    5CHL1   H1A  341   3.043   2.065   5.731
    5CHL1   H1B  342   3.189   2.160   5.772
    5CHL1    C2  343   3.039   2.158   5.927
    5CHL1   H2A  344   3.090   2.074   5.979
    5CHL1   H2B  345   2.929   2.140   5.936
    5CHL1   C20  346   3.211   2.310   5.000
    5CHL1   H20  347   3.109   2.334   4.963
    5CHL1   C21  348   3.234   2.159   4.987
    5CHL1  H21A  349   3.339   2.134   5.015
    5CHL1  H21B  350   3.218   2.128   4.881
    5CHL1  H21C  351   3.164   2.102   5.050
    5CHL1   C22  352   3.313   2.393   4.915
    5CHL1  H22A  353   3.279   2.498   4.913
    5CHL1  H22B  354   3.413   2.390   4.965
    5CHL1   C23  355   3.331   2.357   4.767
    5CHL1  H23A  356   3.418   2.414   4.727
    5CHL1  H23B  357   3.354   2.249   4.755
    5CHL1   C24  358   3.206   2.397   4.690
    5CHL1  H24A  359   3.118   2.354   4.743
    5CHL1  H24B  360   3.193   2.507   4.689
    5CHL1   C25  361   3.201   2.344   4.546
    5CHL1   H25  362   3.225   2.235   4.549
    5CHL1   C26  363   3.058   2.360   4.497
    5CHL1  H26A  364   3.039   2.464   4.460
    5CHL1  H26B  365   3.040   2.287   4.416
    5CHL1  H26C  366   2.985   2.338   4.577
    5CHL1   C27  367   3.300   2.415   4.452
    5CHL1  H27A  368   3.271   2.522   4.440
    5CHL1  H27B  369   3.403   2.410   4.492
    5CHL1  H27C  370   3.298   2.367   4.352
    6CHL1    C3  371   4.068   5.283   6.002
    6CHL1    H3  372   4.124   5.186   6.010
    6CHL1    O3  373   4.040   5.330   6.133
    6CHL1   H3'  374   3.966   5.391   6.121
    6CHL1    C4  375   4.156   5.385   5.926
    6CHL1   H4A  376   4.113   5.486   5.936
    6CHL1   H4B  377   4.255   5.389   5.977
    6CHL1    C5  378   4.170   5.352   5.778
    6CHL1    C6  379   4.291   5.344   5.720
    6CHL1    H6  380   4.382   5.363   5.779
    6CHL1    C7  381   4.310   5.328   5.572
    6CHL1   H7A  382   4.386   5.399   5.535
    6CHL1   H7B  383   4.345   5.225   5.547
    6CHL1    C8  384   4.179   5.357   5.495
    6CHL1    H8  385   4.159   5.466   5.506
    6CHL1   C14  386   4.195   5.327   5.348
    6CHL1   H14  387   4.221   5.219   5.338
    6CHL1   C15  388   4.307   5.404   5.274
    6CHL1  H15A  389   4.310   5.509   5.310
    6CHL1  H15B  390   4.406   5.358   5.291
    6CHL1   C16  391   4.264   5.401   5.127
    6CHL1  H16A  392   4.259   5.505   5.089
    6CHL1  H16B  393   4.335   5.344   5.064
    6CHL1   C17  394   4.123   5.334   5.124
    6CHL1   H17  395   4.140   5.224   5.111
    6CHL1   C13  396   4.069   5.350   5.267
    6CHL1   C18  397   4.019   5.495   5.282
    6CHL1  H18A  398   3.997   5.521   5.387
    6CHL1  H18B  399   4.092   5.569   5.243
    6CHL1  H18C  400   3.924   5.506   5.227
    6CHL1   C12  401   3.963   5.250   5.317
    6CHL1  H12A  402   3.868   5.265   5.262
    6CHL1  H12B  403   3.998   5.146   5.298
    6CHL1   C11  404   3.935   5.270   5.467
    6CHL1  H11A  405   3.875   5.363   5.473
    6CHL1  H11B  406   3.869   5.188   5.503
    6CHL1    C9  407   4.062   5.278   5.557
    6CHL1    H9  408   4.098   5.173   5.564
    6CHL1   C10  409   4.037   5.326   5.704
    6CHL1   C19  410   3.957   5.459   5.699
    6CHL1  H19A  411   3.943   5.502   5.800
    6CHL1  H19B  412   4.007   5.536   5.637
    6CHL1  H19C  413   3.855   5.441   5.660
    6CHL1    C1  414   3.955   5.221   5.783
    6CHL1   H1A  415   3.855   5.211   5.735
    6CHL1   H1B  416   4.005   5.122   5.776
    6CHL1    C2  417   3.935   5.258   5.931
    6CHL1   H2A  418   3.881   5.177   5.984
    6CHL1   H2B  419   3.873   5.350   5.938
    6CHL1   C20  420   4.038   5.385   5.009
    6CHL1   H20  421   4.019   5.495   5.021
    6CHL1   C21  422   3.901   5.314   5.004
    6CHL1  H21A  423   3.831   5.360   5.078
    6CHL1  H21B  424   3.914   5.207   5.028
    6CHL1  H21C  425   3.856   5.323   4.903
    6CHL1   C22  426   4.108   5.370   4.873
    6CHL1  H22A  427   4.039   5.414   4.799
    6CHL1  H22B  428   4.201   5.431   4.870
    6CHL1   C23  429   4.143   5.225   4.835
    6CHL1  H23A  430   4.210   5.180   4.912
    6CHL1  H23B  431   4.051   5.163   4.831
    6CHL1   C24  432   4.217   5.221   4.701
    6CHL1  H24A  433   4.308   5.283   4.708
    6CHL1  H24B  434   4.249   5.117   4.679
    6CHL1   C25  435   4.130   5.272   4.584
    6CHL1   H25  436   4.082   5.369   4.611
    6CHL1   C26  437   4.219   5.301   4.463
    6CHL1  H26A  438   4.291   5.218   4.449
    6CHL1  H26B  439   4.157   5.314   4.371
    6CHL1  H26C  440   4.276   5.394   4.480
    6CHL1   C27  441   4.018   5.171   4.555
    6CHL1  H27A  442   3.961   5.200   4.464
    6CHL1  H27B  443   4.062   5.071   4.541
    6CHL1  H27C  444   3.947   5.164   4.640
    7CHL1    C3  445   3.624   1.764   5.974
    7CHL1    H3  446   3.716   1.804   5.926
    7CHL1    O3  447   3.635   1.782   6.113
    7CHL1   H3'  448   3.552   1.741   6.145
    7CHL1    C4  449   3.500   1.839   5.926
    7CHL1   H4A  450   3.410   1.802   5.980
    7CHL1   H4B  451   3.512   1.947   5.953
    7CHL1    C5  452   3.477   1.820   5.778
    7CHL1    C6  453   3.463   1.929   5.701
    7CHL1    H6  454   3.464   2.027   5.750
    7CHL1    C7  455   3.437   1.926   5.554
    7CHL1   H7A  456   3.352   1.992   5.527
    7CHL1   H7B  457   3.526   1.965   5.500
    7CHL1    C8  458   3.410   1.783   5.501
    7CHL1    H8  459   3.303   1.760   5.520
    7CHL1   C14  460   3.437   1.781   5.352
    7CHL1   H14  461   3.548   1.799   5.341
    7CHL1   C15  462   3.373   1.891   5.265
    7CHL1  H15A  463   3.269   1.911   5.300
    7CHL1  H15B  464   3.432   1.984   5.270
    7CHL1   C16  465   3.372   1.830   5.124
    7CHL1  H16A  466   3.267   1.822   5.090
    7CHL1  H16B  467   3.429   1.893   5.052
    7CHL1   C17  468   3.436   1.688   5.137
    7CHL1   H17  469   3.546   1.701   5.127
    7CHL1   C13  470   3.411   1.647   5.284
    7CHL1   C18  471   3.263   1.605   5.299
    7CHL1  H18A  472   3.195   1.678   5.251
    7CHL1  H18B  473   3.248   1.507   5.251
    7CHL1  H18C  474   3.232   1.595   5.405
    7CHL1   C12  475   3.509   1.546   5.350
    7CHL1  H12A  476   3.499   1.444   5.307
    7CHL1  H12B  477   3.613   1.581   5.332
    7CHL1   C11  478   3.487   1.537   5.502
    7CHL1  H11A  479   3.386   1.494   5.520
    7CHL1  H11B  480   3.561   1.468   5.546
    7CHL1    C9  481   3.499   1.677   5.570
    7CHL1    H9  482   3.604   1.709   5.551
    7CHL1   C10  483   3.482   1.676   5.724
    7CHL1   C19  484   3.346   1.613   5.756
    7CHL1  H19A  485   3.264   1.668   5.707
    7CHL1  H19B  486   3.340   1.506   5.725
    7CHL1  H19C  487   3.329   1.617   5.865
    7CHL1    C1  488   3.592   1.589   5.793
    7CHL1   H1A  489   3.568   1.481   5.779
    7CHL1   H1B  490   3.690   1.609   5.745
    7CHL1    C2  491   3.608   1.615   5.945
    7CHL1   H2A  492   3.695   1.560   5.986
    7CHL1   H2B  493   3.517   1.577   5.997
    7CHL1   C20  494   3.391   1.595   5.024
    7CHL1   H20  495   3.280   1.587   5.026
    7CHL1   C21  496   3.450   1.454   5.043
    7CHL1  H21A  497   3.408   1.406   5.133
    7CHL1  H21B  498   3.561   1.458   5.051
    7CHL1  H21C  499   3.425   1.386   4.959
    7CHL1   C22  500   3.430   1.650   4.885
    7CHL1  H22A  501   3.394   1.754   4.872
    7CHL1  H22B  502   3.541   1.650   4.876
    7CHL1   C23  503   3.370   1.568   4.770
    7CHL1  H23A  504   3.402   1.462   4.777
    7CHL1  H23B  505   3.260   1.571   4.781
    7CHL1   C24  506   3.405   1.617   4.630
    7CHL1  H24A  507   3.366   1.719   4.614
    7CHL1  H24B  508   3.516   1.620   4.618
    7CHL1   C25  509   3.345   1.520   4.526
    7CHL1   H25  510   3.251   1.481   4.569
    7CHL1   C26  511   3.308   1.587   4.394
    7CHL1  H26A  512   3.285   1.509   4.318
    7CHL1  H26B  513   3.220   1.652   4.408
    7CHL1  H26C  514   3.392   1.650   4.357
    7CHL1   C27  515   3.436   1.398   4.507
    7CHL1  H27A  516   3.417   1.345   4.412
    7CHL1  H27B  517   3.541   1.433   4.506
    7CHL1  H27C  518   3.425   1.326   4.591
    8CHL1    C3  519   4.471   1.874   5.958
    8CHL1    H3  520   4.397   1.958   5.959
    8CHL1    O3  521   4.495   1.827   6.090
    8CHL1   H3'  522   4.532   1.902   6.141
    8CHL1    C4  523   4.415   1.756   5.878
    8CHL1   H4A  524   4.473   1.666   5.906
    8CHL1   H4B  525   4.313   1.738   5.916
    8CHL1    C5  526   4.419   1.775   5.727
    8CHL1    C6  527   4.311   1.758   5.651
    8CHL1    H6  528   4.216   1.728   5.699
    8CHL1    C7  529   4.315   1.764   5.501
    8CHL1   H7A  530   4.249   1.685   5.458
    8CHL1   H7B  531   4.278   1.863   5.465
    8CHL1    C8  532   4.460   1.742   5.450
    8CHL1    H8  533   4.491   1.642   5.482
    8CHL1   C14  534   4.472   1.749   5.299
    8CHL1   H14  535   4.452   1.855   5.271
    8CHL1   C15  536   4.374   1.665   5.216
    8CHL1  H15A  537   4.363   1.565   5.264
    8CHL1  H15B  538   4.274   1.712   5.211
    8CHL1   C16  539   4.443   1.649   5.080
    8CHL1  H16A  540   4.451   1.541   5.057
    8CHL1  H16B  541   4.386   1.699   4.998
    8CHL1   C17  542   4.586   1.711   5.094
    8CHL1   H17  543   4.578   1.816   5.061
    8CHL1   C13  544   4.612   1.714   5.245
    8CHL1   C18  545   4.657   1.572   5.287
    8CHL1  H18A  546   4.762   1.555   5.256
    8CHL1  H18B  547   4.654   1.558   5.397
    8CHL1  H18C  548   4.594   1.494   5.240
    8CHL1   C12  549   4.708   1.820   5.298
    8CHL1  H12A  550   4.814   1.802   5.273
    8CHL1  H12B  551   4.682   1.914   5.249
    8CHL1   C11  552   4.699   1.827   5.452
    8CHL1  H11A  553   4.753   1.736   5.482
    8CHL1  H11B  554   4.757   1.910   5.492
    8CHL1    C9  555   4.557   1.838   5.516
    8CHL1    H9  556   4.519   1.941   5.496
    8CHL1   C10  557   4.555   1.818   5.670
    8CHL1   C19  558   4.663   1.713   5.704
    8CHL1  H19A  559   4.661   1.689   5.812
    8CHL1  H19B  560   4.649   1.619   5.647
    8CHL1  H19C  561   4.766   1.752   5.687
    8CHL1    C1  562   4.590   1.948   5.745
    8CHL1   H1A  563   4.686   1.982   5.703
    8CHL1   H1B  564   4.515   2.027   5.724
    8CHL1    C2  565   4.602   1.927   5.898
    8CHL1   H2A  566   4.625   2.020   5.949
    8CHL1   H2B  567   4.687   1.859   5.922
    8CHL1   C20  568   4.687   1.646   4.999
    8CHL1   H20  569   4.693   1.537   5.021
    8CHL1   C21  570   4.829   1.704   5.019
    8CHL1  H21A  571   4.866   1.688   5.122
    8CHL1  H21B  572   4.830   1.813   4.996
    8CHL1  H21C  573   4.902   1.653   4.954
    8CHL1   C22  574   4.639   1.663   4.852
    8CHL1  H22A  575   4.552   1.596   4.835
    8CHL1  H22B  576   4.605   1.768   4.838
    8CHL1   C23  577   4.745   1.635   4.744
    8CHL1  H23A  578   4.830   1.705   4.757
    8CHL1  H23B  579   4.784   1.531   4.755
    8CHL1   C24  580   4.691   1.657   4.602
    8CHL1  H24A  581   4.611   1.585   4.578
    8CHL1  H24B  582   4.647   1.759   4.598
    8CHL1   C25  583   4.802   1.649   4.495
    8CHL1   H25  584   4.896   1.691   4.538
    8CHL1   C26  585   4.827   1.503   4.451
    8CHL1  H26A  586   4.732   1.459   4.414
    8CHL1  H26B  587   4.901   1.500   4.368
    8CHL1  H26C  588   4.865   1.442   4.535
    8CHL1   C27  589   4.766   1.733   4.372
    8CHL1  H27A  590   4.690   1.681   4.311
    8CHL1  H27B  591   4.725   1.832   4.403
    8CHL1  H27C  592   4.855   1.751   4.309
    9CHL1    C3  593   5.512   2.750   6.028
    9CHL1    H3  594   5.621   2.753   6.003
    9CHL1    O3  595   5.500   2.756   6.170
    9CHL1   H3'  596   5.520   2.665   6.197
    9CHL1    C4  597   5.444   2.871   5.962
    9CHL1   H4A  598   5.340   2.881   6.002
    9CHL1   H4B  599   5.498   2.962   5.996
    9CHL1    C5  600   5.443   2.860   5.810
    9CHL1    C6  601   5.500   2.952   5.731
    9CHL1    H6  602   5.549   3.040   5.776
    9CHL1    C7  603   5.497   2.947   5.580
    9CHL1   H7A  604   5.479   3.047   5.537
    9CHL1   H7B  605   5.595   2.912   5.544
    9CHL1    C8  606   5.390   2.849   5.525
    9CHL1    H8  607   5.293   2.899   5.541
    9CHL1   C14  608   5.410   2.823   5.375
    9CHL1   H14  609   5.510   2.773   5.366
    9CHL1   C15  610   5.414   2.942   5.279
    9CHL1  H15A  611   5.322   3.003   5.291
    9CHL1  H15B  612   5.503   3.007   5.293
    9CHL1   C16  613   5.412   2.873   5.141
    9CHL1  H16A  614   5.368   2.936   5.062
    9CHL1  H16B  615   5.517   2.853   5.115
    9CHL1   C17  616   5.344   2.734   5.159
    9CHL1   H17  617   5.425   2.658   5.145
    9CHL1   C13  618   5.309   2.727   5.311
    9CHL1   C18  619   5.168   2.783   5.331
    9CHL1  H18A  620   5.149   2.807   5.436
    9CHL1  H18B  621   5.149   2.873   5.270
    9CHL1  H18C  622   5.095   2.703   5.307
    9CHL1   C12  623   5.321   2.592   5.383
    9CHL1  H12A  624   5.242   2.524   5.348
    9CHL1  H12B  625   5.419   2.547   5.361
    9CHL1   C11  626   5.302   2.608   5.536
    9CHL1  H11A  627   5.195   2.632   5.553
    9CHL1  H11B  628   5.320   2.510   5.585
    9CHL1    C9  629   5.393   2.716   5.601
    9CHL1    H9  630   5.496   2.678   5.585
    9CHL1   C10  631   5.377   2.731   5.755
    9CHL1   C19  632   5.227   2.738   5.794
    9CHL1  H19A  633   5.211   2.738   5.904
    9CHL1  H19B  634   5.181   2.830   5.754
    9CHL1  H19C  635   5.170   2.651   5.756
    9CHL1    C1  636   5.450   2.611   5.824
    9CHL1   H1A  637   5.402   2.517   5.792
    9CHL1   H1B  638   5.555   2.610   5.787
    9CHL1    C2  639   5.455   2.616   5.978
    9CHL1   H2A  640   5.520   2.534   6.014
    9CHL1   H2B  641   5.352   2.600   6.017
    9CHL1   C20  642   5.238   2.700   5.051
    9CHL1   H20  643   5.153   2.771   5.058
    9CHL1   C21  644   5.193   2.557   5.079
    9CHL1  H21A  645   5.140   2.549   5.175
    9CHL1  H21B  646   5.283   2.494   5.085
    9CHL1  H21C  647   5.128   2.517   4.999
    9CHL1   C22  648   5.295   2.703   4.905
    9CHL1  H22A  649   5.358   2.792   4.894
    9CHL1  H22B  650   5.359   2.613   4.896
    9CHL1   C23  651   5.200   2.703   4.782
    9CHL1  H23A  652   5.125   2.624   4.794
    9CHL1  H23B  653   5.147   2.800   4.775
    9CHL1   C24  654   5.280   2.679   4.651
    9CHL1  H24A  655   5.341   2.770   4.630
    9CHL1  H24B  656   5.350   2.595   4.669
    9CHL1   C25  657   5.200   2.641   4.523
    9CHL1   H25  658   5.153   2.542   4.543
    9CHL1   C26  659   5.090   2.740   4.486
    9CHL1  H26A  660   5.137   2.832   4.448
    9CHL1  H26B  661   5.027   2.698   4.404
    9CHL1  H26C  662   5.024   2.764   4.572
    9CHL1   C27  663   5.291   2.623   4.400
    9CHL1  H27A  664   5.367   2.544   4.416
    9CHL1  H27B  665   5.231   2.598   4.310
    9CHL1  H27C  666   5.343   2.719   4.377
   10CHL1    C3  667   5.706   3.371   5.995
   10CHL1    H3  668   5.714   3.261   5.974
   10CHL1    O3  669   5.702   3.392   6.135
   10CHL1   H3'  670   5.754   3.473   6.147
   10CHL1    C4  671   5.831   3.442   5.942
   10CHL1   H4A  672   5.828   3.549   5.969
   10CHL1   H4B  673   5.922   3.400   5.991
   10CHL1    C5  674   5.839   3.429   5.792
   10CHL1    C6  675   5.947   3.379   5.728
   10CHL1    H6  676   6.034   3.344   5.786
   10CHL1    C7  677   5.959   3.378   5.579
   10CHL1   H7A  678   6.059   3.414   5.546
   10CHL1   H7B  679   5.950   3.275   5.541
   10CHL1    C8  680   5.850   3.461   5.508
   10CHL1    H8  681   5.878   3.567   5.521
   10CHL1   C14  682   5.838   3.417   5.362
   10CHL1   H14  683   5.789   3.316   5.363
   10CHL1   C15  684   5.965   3.400   5.280
   10CHL1  H15A  685   6.022   3.494   5.294
   10CHL1  H15B  686   6.027   3.315   5.311
   10CHL1   C16  687   5.916   3.393   5.134
   10CHL1  H16A  688   5.979   3.460   5.071
   10CHL1  H16B  689   5.921   3.290   5.095
   10CHL1   C17  690   5.767   3.442   5.139
   10CHL1   H17  691   5.706   3.349   5.140
   10CHL1   C13  692   5.751   3.507   5.278
   10CHL1   C18  693   5.818   3.647   5.268
   10CHL1  H18A  694   5.898   3.650   5.191
   10CHL1  H18B  695   5.743   3.725   5.245
   10CHL1  H18C  696   5.868   3.676   5.362
   10CHL1   C12  697   5.608   3.512   5.337
   10CHL1  H12A  698   5.564   3.610   5.309
   10CHL1  H12B  699   5.547   3.433   5.290
   10CHL1   C11  700   5.594   3.500   5.490
   10CHL1  H11A  701   5.568   3.601   5.525
   10CHL1  H11B  702   5.505   3.436   5.510
   10CHL1    C9  703   5.713   3.441   5.571
   10CHL1    H9  704   5.698   3.330   5.567
   10CHL1   C10  705   5.711   3.478   5.721
   10CHL1   C19  706   5.707   3.631   5.748
   10CHL1  H19A  707   5.628   3.684   5.691
   10CHL1  H19B  708   5.687   3.656   5.854
   10CHL1  H19C  709   5.804   3.676   5.722
   10CHL1    C1  710   5.582   3.415   5.781
   10CHL1   H1A  711   5.493   3.466   5.737
   10CHL1   H1B  712   5.577   3.308   5.751
   10CHL1    C2  713   5.576   3.424   5.933
   10CHL1   H2A  714   5.489   3.367   5.970
   10CHL1   H2B  715   5.561   3.530   5.963
   10CHL1   C20  716   5.720   3.528   5.021
   10CHL1   H20  717   5.767   3.628   5.026
   10CHL1   C21  718   5.567   3.541   5.032
   10CHL1  H21A  719   5.522   3.443   5.057
   10CHL1  H21B  720   5.520   3.575   4.937
   10CHL1  H21C  721   5.540   3.614   5.109
   10CHL1   C22  722   5.754   3.474   4.880
   10CHL1  H22A  723   5.857   3.432   4.875
   10CHL1  H22B  724   5.679   3.394   4.865
   10CHL1   C23  725   5.738   3.587   4.776
   10CHL1  H23A  726   5.629   3.610   4.772
   10CHL1  H23B  727   5.784   3.677   4.818
   10CHL1   C24  728   5.774   3.570   4.626
   10CHL1  H24A  729   5.691   3.513   4.582
   10CHL1  H24B  730   5.757   3.669   4.580
   10CHL1   C25  731   5.910   3.513   4.572
   10CHL1   H25  732   5.914   3.404   4.597
   10CHL1   C26  733   5.915   3.524   4.419
   10CHL1  H26A  734   5.884   3.624   4.385
   10CHL1  H26B  735   6.015   3.501   4.377
   10CHL1  H26C  736   5.842   3.454   4.376
   10CHL1   C27  737   6.041   3.565   4.631
   10CHL1  H27A  738   6.126   3.501   4.600
   10CHL1  H27B  739   6.063   3.668   4.595
   10CHL1  H27C  740   6.035   3.563   4.742
   11CHL1    C3  741   4.862   5.405   5.983
   11CHL1    H3  742   4.941   5.326   5.984
   11CHL1    O3  743   4.843   5.455   6.114
   11CHL1   H3'  744   4.931   5.455   6.157
   11CHL1    C4  745   4.906   5.524   5.896
   11CHL1   H4A  746   4.837   5.608   5.916
   11CHL1   H4B  747   5.006   5.556   5.932
   11CHL1    C5  748   4.906   5.495   5.747
   11CHL1    C6  749   5.011   5.524   5.669
   11CHL1    H6  750   5.097   5.576   5.714
   11CHL1    C7  751   5.015   5.502   5.520
   11CHL1   H7A  752   5.058   5.590   5.468
   11CHL1   H7B  753   5.081   5.415   5.498
   11CHL1    C8  754   4.875   5.472   5.460
   11CHL1    H8  755   4.820   5.568   5.453
   11CHL1   C14  756   4.887   5.411   5.320
   11CHL1   H14  757   4.940   5.314   5.333
   11CHL1   C15  758   4.968   5.488   5.214
   11CHL1  H15A  759   4.943   5.596   5.218
   11CHL1  H15B  760   5.077   5.476   5.229
   11CHL1   C16  761   4.919   5.428   5.080
   11CHL1  H16A  762   4.885   5.511   5.014
   11CHL1  H16B  763   5.000   5.373   5.028
   11CHL1   C17  764   4.800   5.332   5.113
   11CHL1   H17  765   4.844   5.230   5.125
   11CHL1   C13  766   4.753   5.376   5.253
   11CHL1   C18  767   4.666   5.504   5.237
   11CHL1  H18A  768   4.641   5.550   5.334
   11CHL1  H18B  769   4.720   5.580   5.177
   11CHL1  H18C  770   4.571   5.481   5.185
   11CHL1   C12  771   4.687   5.269   5.343
   11CHL1  H12A  772   4.590   5.234   5.305
   11CHL1  H12B  773   4.755   5.181   5.348
   11CHL1   C11  774   4.666   5.323   5.485
   11CHL1  H11A  775   4.592   5.405   5.479
   11CHL1  H11B  776   4.622   5.242   5.546
   11CHL1    C9  777   4.797   5.375   5.550
   11CHL1    H9  778   4.863   5.285   5.559
   11CHL1   C10  779   4.778   5.428   5.694
   11CHL1   C19  780   4.667   5.536   5.695
   11CHL1  H19A  781   4.660   5.588   5.793
   11CHL1  H19B  782   4.686   5.613   5.618
   11CHL1  H19C  783   4.568   5.491   5.677
   11CHL1    C1  784   4.736   5.309   5.786
   11CHL1   H1A  785   4.635   5.273   5.755
   11CHL1   H1B  786   4.808   5.225   5.772
   11CHL1    C2  787   4.730   5.344   5.936
   11CHL1   H2A  788   4.707   5.252   5.995
   11CHL1   H2B  789   4.648   5.417   5.953
   11CHL1   C20  790   4.696   5.322   4.999
   11CHL1   H20  791   4.647   5.421   4.985
   11CHL1   C21  792   4.587   5.218   5.035
   11CHL1  H21A  793   4.515   5.204   4.952
   11CHL1  H21B  794   4.526   5.253   5.120
   11CHL1  H21C  795   4.632   5.120   5.059
   11CHL1   C22  796   4.760   5.285   4.862
   11CHL1  H22A  797   4.844   5.354   4.841
   11CHL1  H22B  798   4.802   5.182   4.869
   11CHL1   C23  799   4.664   5.294   4.741
   11CHL1  H23A  800   4.578   5.225   4.754
   11CHL1  H23B  801   4.625   5.398   4.736
   11CHL1   C24  802   4.734   5.258   4.608
   11CHL1  H24A  803   4.819   5.327   4.592
   11CHL1  H24B  804   4.777   5.155   4.618
   11CHL1   C25  805   4.644   5.259   4.482
   11CHL1   H25  806   4.568   5.178   4.494
   11CHL1   C26  807   4.570   5.393   4.462
   11CHL1  H26A  808   4.508   5.389   4.370
   11CHL1  H26B  809   4.503   5.413   4.548
   11CHL1  H26C  810   4.642   5.476   4.453
   11CHL1   C27  811   4.728   5.229   4.356
   11CHL1  H27A  812   4.785   5.135   4.369
   11CHL1  H27B  813   4.662   5.219   4.267
   11CHL1  H27C  814   4.800   5.312   4.337
   12CHL1    C3  815   1.556   4.201   5.966
   12CHL1    H3  816   1.577   4.305   5.930
   12CHL1    O3  817   1.563   4.193   6.108
   12CHL1   H3'  818   1.650   4.151   6.115
   12CHL1    C4  819   1.419   4.155   5.917
   12CHL1   H4A  820   1.390   4.067   5.979
   12CHL1   H4B  821   1.351   4.239   5.942
   12CHL1    C5  822   1.407   4.121   5.770
   12CHL1    C6  823   1.300   4.162   5.702
   12CHL1    H6  824   1.218   4.212   5.755
   12CHL1    C7  825   1.281   4.137   5.556
   12CHL1   H7A  826   1.181   4.091   5.537
   12CHL1   H7B  827   1.284   4.235   5.505
   12CHL1    C8  828   1.389   4.046   5.491
   12CHL1    H8  829   1.359   3.942   5.513
   12CHL1   C14  830   1.390   4.069   5.342
   12CHL1   H14  831   1.417   4.176   5.324
   12CHL1   C15  832   1.256   4.042   5.277
   12CHL1  H15A  833   1.230   3.943   5.315
   12CHL1  H15B  834   1.169   4.102   5.305
   12CHL1   C16  835   1.287   4.038   5.129
   12CHL1  H16A  836   1.240   3.946   5.087
   12CHL1  H16B  837   1.250   4.124   5.071
   12CHL1   C17  838   1.441   4.025   5.116
   12CHL1   H17  839   1.482   4.127   5.098
   12CHL1   C13  840   1.485   3.982   5.259
   12CHL1   C18  841   1.448   3.832   5.274
   12CHL1  H18A  842   1.391   3.813   5.367
   12CHL1  H18B  843   1.382   3.797   5.193
   12CHL1  H18C  844   1.538   3.770   5.274
   12CHL1   C12  845   1.628   4.008   5.313
   12CHL1  H12A  846   1.700   3.940   5.263
   12CHL1  H12B  847   1.657   4.112   5.290
   12CHL1   C11  848   1.634   3.987   5.467
   12CHL1  H11A  849   1.618   3.880   5.488
   12CHL1  H11B  850   1.736   4.013   5.502
   12CHL1    C9  851   1.527   4.068   5.548
   12CHL1    H9  852   1.549   4.176   5.531
   12CHL1   C10  853   1.527   4.051   5.703
   12CHL1   C19  854   1.509   3.901   5.740
   12CHL1  H19A  855   1.416   3.860   5.697
   12CHL1  H19B  856   1.596   3.843   5.704
   12CHL1  H19C  857   1.503   3.888   5.850
   12CHL1    C1  858   1.661   4.104   5.760
   12CHL1   H1A  859   1.745   4.040   5.724
   12CHL1   H1B  860   1.679   4.206   5.721
   12CHL1    C2  861   1.664   4.107   5.913
   12CHL1   H2A  862   1.763   4.142   5.947
   12CHL1   H2B  863   1.648   4.005   5.953
   12CHL1   C20  864   1.469   3.939   4.992
   12CHL1   H20  865   1.426   3.837   5.005
   12CHL1   C21  866   1.619   3.922   4.976
   12CHL1  H21A  867   1.667   4.022   4.982
   12CHL1  H21B  868   1.642   3.874   4.878
   12CHL1  H21C  869   1.662   3.858   5.056
   12CHL1   C22  870   1.398   3.997   4.866
   12CHL1  H22A  871   1.288   4.001   4.885
   12CHL1  H22B  872   1.430   4.102   4.848
   12CHL1   C23  873   1.411   3.915   4.737
   12CHL1  H23A  874   1.496   3.956   4.678
   12CHL1  H23B  875   1.434   3.809   4.762
   12CHL1   C24  876   1.280   3.918   4.656
   12CHL1  H24A  877   1.209   3.845   4.701
   12CHL1  H24B  878   1.233   4.019   4.664
   12CHL1   C25  879   1.293   3.886   4.506
   12CHL1   H25  880   1.349   3.790   4.494
   12CHL1   C26  881   1.154   3.870   4.442
   12CHL1  H26A  882   1.098   3.788   4.491
   12CHL1  H26B  883   1.096   3.964   4.456
   12CHL1  H26C  884   1.163   3.849   4.334
   12CHL1   C27  885   1.370   3.997   4.432
   12CHL1  H27A  886   1.473   4.010   4.471
   12CHL1  H27B  887   1.377   3.974   4.323
   12CHL1  H27C  888   1.316   4.093   4.444
   13CHL1    C3  889   5.289   1.988   6.040
   13CHL1    H3  890   5.360   1.903   6.021
   13CHL1    O3  891   5.249   1.986   6.176
   13CHL1   H3'  892   5.219   1.893   6.190
   13CHL1    C4  893   5.359   2.121   6.007
   13CHL1   H4A  894   5.290   2.202   6.042
   13CHL1   H4B  895   5.451   2.129   6.070
   13CHL1    C5  896   5.389   2.145   5.860
   13CHL1    C6  897   5.506   2.193   5.815
   13CHL1    H6  898   5.586   2.215   5.888
   13CHL1    C7  899   5.533   2.235   5.673
   13CHL1   H7A  900   5.558   2.343   5.668
   13CHL1   H7B  901   5.622   2.180   5.635
   13CHL1    C8  902   5.416   2.212   5.573
   13CHL1    H8  903   5.355   2.305   5.567
   13CHL1   C14  904   5.471   2.184   5.434
   13CHL1   H14  905   5.529   2.089   5.446
   13CHL1   C15  906   5.574   2.283   5.377
   13CHL1  H15A  907   5.551   2.387   5.408
   13CHL1  H15B  908   5.677   2.257   5.410
   13CHL1   C16  909   5.561   2.266   5.224
   13CHL1  H16A  910   5.513   2.360   5.189
   13CHL1  H16B  911   5.657   2.254   5.171
   13CHL1   C17  912   5.467   2.144   5.205
   13CHL1   H17  913   5.530   2.055   5.226
   13CHL1   C13  914   5.370   2.153   5.324
   13CHL1   C18  915   5.269   2.268   5.296
   13CHL1  H18A  916   5.185   2.230   5.234
   13CHL1  H18B  917   5.227   2.309   5.389
   13CHL1  H18C  918   5.315   2.351   5.240
   13CHL1   C12  919   5.292   2.028   5.368
   13CHL1  H12A  920   5.218   2.001   5.291
   13CHL1  H12B  921   5.363   1.943   5.379
   13CHL1   C11  922   5.224   2.055   5.505
   13CHL1  H11A  923   5.150   2.136   5.493
   13CHL1  H11B  924   5.169   1.964   5.535
   13CHL1    C9  925   5.327   2.096   5.617
   13CHL1    H9  926   5.395   2.007   5.622
   13CHL1   C10  927   5.273   2.115   5.762
   13CHL1   C19  928   5.190   2.246   5.773
   13CHL1  H19A  929   5.113   2.238   5.853
   13CHL1  H19B  930   5.251   2.336   5.796
   13CHL1  H19C  931   5.142   2.270   5.677
   13CHL1    C1  932   5.195   1.986   5.805
   13CHL1   H1A  933   5.099   1.979   5.750
   13CHL1   H1B  934   5.256   1.898   5.775
   13CHL1    C2  935   5.163   1.972   5.955
   13CHL1   H2A  936   5.116   1.872   5.975
   13CHL1   H2B  937   5.090   2.050   5.985
   13CHL1   C20  938   5.407   2.126   5.067
   13CHL1   H20  939   5.301   2.097   5.086
   13CHL1   C21  940   5.477   2.005   5.000
   13CHL1  H21A  941   5.586   2.021   4.997
   13CHL1  H21B  942   5.440   1.991   4.897
   13CHL1  H21C  943   5.456   1.913   5.058
   13CHL1   C22  944   5.410   2.250   4.972
   13CHL1  H22A  945   5.393   2.341   5.030
   13CHL1  H22B  946   5.511   2.258   4.925
   13CHL1   C23  947   5.303   2.254   4.860
   13CHL1  H23A  948   5.263   2.358   4.853
   13CHL1  H23B  949   5.351   2.233   4.763
   13CHL1   C24  950   5.186   2.158   4.884
   13CHL1  H24A  951   5.222   2.056   4.910
   13CHL1  H24B  952   5.124   2.196   4.969
   13CHL1   C25  953   5.097   2.130   4.764
   13CHL1   H25  954   5.053   2.227   4.733
   13CHL1   C26  955   5.177   2.073   4.645
   13CHL1  H26A  956   5.276   2.033   4.678
   13CHL1  H26B  957   5.120   1.991   4.596
   13CHL1  H26C  958   5.195   2.153   4.570
   13CHL1   C27  959   4.986   2.032   4.805
   13CHL1  H27A  960   4.910   2.023   4.725
   13CHL1  H27B  961   5.031   1.932   4.825
   13CHL1  H27C  962   4.936   2.067   4.899
   14CHL1    C3  963   2.718   5.917   6.014
   14CHL1    H3  964   2.704   6.027   6.025
   14CHL1    O3  965   2.701   5.855   6.141
   14CHL1   H3'  966   2.624   5.900   6.184
   14CHL1    C4  967   2.612   5.861   5.916
   14CHL1   H4A  968   2.618   5.751   5.920
   14CHL1   H4B  969   2.511   5.888   5.955
   14CHL1    C5  970   2.630   5.905   5.771
   14CHL1    C6  971   2.528   5.956   5.700
   14CHL1    H6  972   2.429   5.967   5.746
   14CHL1    C7  973   2.538   5.990   5.554
   14CHL1   H7A  974   2.453   5.947   5.498
   14CHL1   H7B  975   2.537   6.101   5.541
   14CHL1    C8  976   2.667   5.934   5.489
   14CHL1    H8  977   2.653   5.824   5.480
   14CHL1   C14  978   2.681   5.988   5.348
   14CHL1   H14  979   2.681   6.099   5.354
   14CHL1   C15  980   2.569   5.947   5.252
   14CHL1  H15A  981   2.552   5.837   5.260
   14CHL1  H15B  982   2.472   5.997   5.270
   14CHL1   C16  983   2.625   5.982   5.116
   14CHL1  H16A  984   2.593   5.902   5.045
   14CHL1  H16B  985   2.586   6.079   5.079
   14CHL1   C17  986   2.780   5.991   5.129
   14CHL1   H17  987   2.809   6.098   5.119
   14CHL1   C13  988   2.812   5.950   5.277
   14CHL1   C18  989   2.830   5.798   5.277
   14CHL1  H18A  990   2.930   5.768   5.241
   14CHL1  H18B  991   2.815   5.751   5.376
   14CHL1  H18C  992   2.755   5.758   5.208
   14CHL1   C12  993   2.926   6.014   5.359
   14CHL1  H12A  994   3.024   5.993   5.313
   14CHL1  H12B  995   2.912   6.125   5.363
   14CHL1   C11  996   2.925   5.959   5.505
   14CHL1  H11A  997   2.959   5.854   5.502
   14CHL1  H11B  998   3.000   6.014   5.566
   14CHL1    C9  999   2.786   5.967   5.578
   14CHL1    H9 1000   2.775   6.075   5.602
   14CHL1   C10 1001   2.773   5.890   5.714
   14CHL1   C19 1002   2.796   5.738   5.692
   14CHL1  H19A 1003   2.789   5.682   5.787
   14CHL1  H19B 1004   2.721   5.694   5.623
   14CHL1  H19C 1005   2.897   5.720   5.651
   14CHL1    C1 1006   2.877   5.944   5.816
   14CHL1   H1A 1007   2.979   5.914   5.781
   14CHL1   H1B 1008   2.872   6.055   5.816
   14CHL1    C2 1009   2.859   5.891   5.960
   14CHL1   H2A 1010   2.935   5.938   6.027
   14CHL1   H2B 1011   2.879   5.782   5.961
   14CHL1   C20 1012   2.839   5.911   5.010
   14CHL1   H20 1013   2.810   5.804   5.020
   14CHL1   C21 1014   2.989   5.922   5.009
   14CHL1  H21A 1015   3.031   5.870   5.098
   14CHL1  H21B 1016   3.019   6.029   5.011
   14CHL1  H21C 1017   3.032   5.874   4.918
   14CHL1   C22 1018   2.789   5.952   4.870
   14CHL1  H22A 1019   2.697   6.012   4.881
   14CHL1  H22B 1020   2.865   6.018   4.820
   14CHL1   C23 1021   2.754   5.837   4.773
   14CHL1  H23A 1022   2.848   5.796   4.729
   14CHL1  H23B 1023   2.703   5.755   4.828
   14CHL1   C24 1024   2.663   5.891   4.662
   14CHL1  H24A 1025   2.568   5.928   4.708
   14CHL1  H24B 1026   2.717   5.979   4.622
   14CHL1   C25 1027   2.629   5.804   4.540
   14CHL1   H25 1028   2.577   5.711   4.572
   14CHL1   C26 1029   2.534   5.884   4.449
   14CHL1  H26A 1030   2.509   5.829   4.357
   14CHL1  H26B 1031   2.441   5.912   4.502
   14CHL1  H26C 1032   2.585   5.978   4.419
   14CHL1   C27 1033   2.756   5.767   4.461
   14CHL1  H27A 1034   2.728   5.724   4.362
   14CHL1  H27B 1035   2.816   5.859   4.443
   14CHL1  H27C 1036   2.818   5.694   4.516
   15CHL1    C3 1037   1.174   3.308   6.013
   15CHL1    H3 1038   1.134   3.412   6.011
   15CHL1    O3 1039   1.206   3.273   6.146
   15CHL1   H3' 1040   1.285   3.326   6.170
   15CHL1    C4 1041   1.067   3.212   5.959
   15CHL1   H4A 1042   1.103   3.107   5.963
   15CHL1   H4B 1043   0.978   3.215   6.025
   15CHL1    C5 1044   1.034   3.250   5.817
   15CHL1    C6 1045   0.910   3.286   5.783
   15CHL1    H6 1046   0.828   3.280   5.857
   15CHL1    C7 1047   0.872   3.329   5.645
   15CHL1   H7A 1048   0.775   3.284   5.616
   15CHL1   H7B 1049   0.861   3.440   5.643
   15CHL1    C8 1050   0.980   3.288   5.542
   15CHL1    H8 1051   0.968   3.178   5.528
   15CHL1   C14 1052   0.958   3.362   5.414
   15CHL1   H14 1053   0.988   3.468   5.432
   15CHL1   C15 1054   0.813   3.373   5.367
   15CHL1  H15A 1055   0.770   3.271   5.375
   15CHL1  H15B 1056   0.753   3.444   5.426
   15CHL1   C16 1057   0.829   3.416   5.222
   15CHL1  H16A 1058   0.758   3.360   5.161
   15CHL1  H16B 1059   0.807   3.524   5.209
   15CHL1   C17 1060   0.978   3.388   5.182
   15CHL1   H17 1061   1.026   3.487   5.189
   15CHL1   C13 1062   1.044   3.313   5.298
   15CHL1   C18 1063   1.029   3.161   5.276
   15CHL1  H18A 1064   1.087   3.127   5.188
   15CHL1  H18B 1065   1.064   3.102   5.363
   15CHL1  H18C 1066   0.922   3.139   5.259
   15CHL1   C12 1067   1.190   3.351   5.333
   15CHL1  H12A 1068   1.261   3.315   5.257
   15CHL1  H12B 1069   1.199   3.461   5.338
   15CHL1   C11 1070   1.228   3.293   5.471
   15CHL1  H11A 1071   1.245   3.184   5.455
   15CHL1  H11B 1072   1.324   3.335   5.505
   15CHL1    C9 1073   1.122   3.319   5.584
   15CHL1    H9 1074   1.124   3.429   5.599
   15CHL1   C10 1075   1.156   3.257   5.721
   15CHL1   C19 1076   1.207   3.115   5.695
   15CHL1  H19A 1077   1.204   3.051   5.785
   15CHL1  H19B 1078   1.147   3.067   5.615
   15CHL1  H19C 1079   1.313   3.117   5.660
   15CHL1    C1 1080   1.270   3.339   5.784
   15CHL1   H1A 1081   1.360   3.322   5.723
   15CHL1   H1B 1082   1.244   3.447   5.781
   15CHL1    C2 1083   1.301   3.301   5.929
   15CHL1   H2A 1084   1.375   3.373   5.969
   15CHL1   H2B 1085   1.345   3.199   5.931
   15CHL1   C20 1086   0.993   3.338   5.038
   15CHL1   H20 1087   0.960   3.231   5.032
   15CHL1   C21 1088   1.141   3.346   4.995
   15CHL1  H21A 1089   1.154   3.309   4.891
   15CHL1  H21B 1090   1.205   3.283   5.059
   15CHL1  H21C 1091   1.178   3.451   4.999
   15CHL1   C22 1092   0.902   3.418   4.942
   15CHL1  H22A 1093   0.795   3.396   4.961
   15CHL1  H22B 1094   0.913   3.526   4.961
   15CHL1   C23 1095   0.925   3.399   4.793
   15CHL1  H23A 1096   0.843   3.454   4.742
   15CHL1  H23B 1097   1.020   3.447   4.763
   15CHL1   C24 1098   0.918   3.254   4.746
   15CHL1  H24A 1099   1.002   3.193   4.786
   15CHL1  H24B 1100   0.823   3.208   4.782
   15CHL1   C25 1101   0.921   3.254   4.594
   15CHL1   H25 1102   0.847   3.332   4.564
   15CHL1   C26 1103   1.057   3.297   4.537
   15CHL1  H26A 1104   1.093   3.224   4.461
   15CHL1  H26B 1105   1.048   3.397   4.488
   15CHL1  H26C 1106   1.133   3.305   4.617
   15CHL1   C27 1107   0.869   3.123   4.535
   15CHL1  H27A 1108   0.929   3.039   4.572
   15CHL1  H27B 1109   0.766   3.100   4.568
   15CHL1  H27C 1110   0.875   3.127   4.424
   16CHL1    C3 1111   2.003   5.671   6.013
   16CHL1    H3 1112   1.896   5.640   6.009
   16CHL1    O3 1113   2.032   5.710   6.145
   16CHL1   H3' 1114   2.005   5.803   6.146
   16CHL1    C4 1115   2.092   5.552   5.969
   16CHL1   H4A 1116   2.198   5.580   5.989
   16CHL1   H4B 1117   2.070   5.467   6.036
   16CHL1    C5 1118   2.073   5.518   5.821
   16CHL1    C6 1119   2.034   5.396   5.778
   16CHL1    H6 1120   2.019   5.317   5.853
   16CHL1    C7 1121   2.013   5.361   5.633
   16CHL1   H7A 1122   2.055   5.260   5.612
   16CHL1   H7B 1123   1.904   5.355   5.612
   16CHL1    C8 1124   2.076   5.463   5.535
   16CHL1    H8 1125   2.186   5.448   5.538
   16CHL1   C14 1126   2.024   5.445   5.392
   16CHL1   H14 1127   1.916   5.469   5.394
   16CHL1   C15 1128   2.031   5.305   5.331
   16CHL1  H15A 1129   2.130   5.261   5.353
   16CHL1  H15B 1130   1.950   5.239   5.369
   16CHL1   C16 1131   2.021   5.327   5.179
   16CHL1  H16A 1132   2.106   5.273   5.133
   16CHL1  H16B 1133   1.926   5.288   5.138
   16CHL1   C17 1134   2.032   5.480   5.155
   16CHL1   H17 1135   1.927   5.517   5.144
   16CHL1   C13 1136   2.086   5.539   5.289
   16CHL1   C18 1137   2.240   5.524   5.289
   16CHL1  H18A 1138   2.286   5.590   5.214
   16CHL1  H18B 1139   2.285   5.551   5.386
   16CHL1  H18C 1140   2.269   5.419   5.268
   16CHL1   C12 1141   2.042   5.681   5.329
   16CHL1  H12A 1142   2.083   5.757   5.260
   16CHL1  H12B 1143   1.931   5.687   5.325
   16CHL1   C11 1144   2.088   5.713   5.473
   16CHL1  H11A 1145   2.198   5.722   5.470
   16CHL1  H11B 1146   2.047   5.812   5.501
   16CHL1    C9 1147   2.044   5.606   5.578
   16CHL1    H9 1148   1.933   5.611   5.579
   16CHL1   C10 1149   2.089   5.636   5.724
   16CHL1   C19 1150   2.239   5.675   5.724
   16CHL1  H19A 1151   2.257   5.768   5.667
   16CHL1  H19B 1152   2.276   5.694   5.827
   16CHL1  H19C 1153   2.301   5.593   5.681
   16CHL1    C1 1154   1.996   5.748   5.777
   16CHL1   H1A 1155   1.999   5.834   5.708
   16CHL1   H1B 1156   1.890   5.711   5.774
   16CHL1    C2 1157   2.026   5.791   5.920
   16CHL1   H2A 1158   1.960   5.876   5.948
   16CHL1   H2B 1159   2.131   5.825   5.928
   16CHL1   C20 1160   2.108   5.515   5.026
   16CHL1   H20 1161   2.216   5.494   5.042
   16CHL1   C21 1162   2.093   5.665   4.994
   16CHL1  H21A 1163   1.986   5.694   4.992
   16CHL1  H21B 1164   2.139   5.689   4.896
   16CHL1  H21C 1165   2.146   5.727   5.069
   16CHL1   C22 1166   2.072   5.428   4.903
   16CHL1  H22A 1167   2.079   5.320   4.928
   16CHL1  H22B 1168   1.967   5.448   4.873
   16CHL1   C23 1169   2.168   5.452   4.784
   16CHL1  H23A 1170   2.127   5.539   4.729
   16CHL1  H23B 1171   2.269   5.479   4.823
   16CHL1   C24 1172   2.185   5.330   4.691
   16CHL1  H24A 1173   2.242   5.251   4.746
   16CHL1  H24B 1174   2.085   5.287   4.675
   16CHL1   C25 1175   2.258   5.357   4.556
   16CHL1   H25 1176   2.366   5.339   4.576
   16CHL1   C26 1177   2.214   5.262   4.444
   16CHL1  H26A 1178   2.135   5.309   4.382
   16CHL1  H26B 1179   2.298   5.240   4.376
   16CHL1  H26C 1180   2.173   5.167   4.484
   16CHL1   C27 1181   2.243   5.501   4.503
   16CHL1  H27A 1182   2.135   5.525   4.489
   16CHL1  H27B 1183   2.288   5.574   4.572
   16CHL1  H27C 1184   2.294   5.509   4.404
   17CHL1    C3 1185   5.109   1.254   6.015
   17CHL1    H3 1186   5.207   1.308   6.026
   17CHL1    O3 1187   5.049   1.234   6.142
   17CHL1   H3' 1188   4.980   1.169   6.127
   17CHL1    C4 1189   5.014   1.338   5.927
   17CHL1   H4A 1190   4.915   1.294   5.946
   17CHL1   H4B 1191   5.012   1.442   5.968
   17CHL1    C5 1192   5.038   1.340   5.777
   17CHL1    C6 1193   5.032   1.453   5.703
   17CHL1    H6 1194   5.005   1.548   5.751
   17CHL1    C7 1195   5.048   1.456   5.553
   17CHL1   H7A 1196   4.964   1.510   5.505
   17CHL1   H7B 1197   5.142   1.509   5.524
   17CHL1    C8 1198   5.052   1.312   5.494
   17CHL1    H8 1199   4.946   1.278   5.491
   17CHL1   C14 1200   5.104   1.312   5.354
   17CHL1   H14 1201   5.209   1.350   5.356
   17CHL1   C15 1202   5.027   1.400   5.255
   17CHL1  H15A 1203   4.918   1.381   5.267
   17CHL1  H15B 1204   5.047   1.508   5.270
   17CHL1   C16 1205   5.074   1.349   5.120
   17CHL1  H16A 1206   4.987   1.336   5.052
   17CHL1  H16B 1207   5.147   1.418   5.074
   17CHL1   C17 1208   5.145   1.212   5.149
   17CHL1   H17 1209   5.255   1.234   5.154
   17CHL1   C13 1210   5.110   1.173   5.292
   17CHL1   C18 1211   4.974   1.102   5.300
   17CHL1  H18A 1212   4.980   1.000   5.257
   17CHL1  H18B 1213   4.941   1.087   5.405
   17CHL1  H18C 1214   4.894   1.160   5.250
   17CHL1   C12 1215   5.216   1.091   5.365
   17CHL1  H12A 1216   5.218   0.987   5.325
   17CHL1  H12B 1217   5.317   1.134   5.354
   17CHL1   C11 1218   5.176   1.082   5.512
   17CHL1  H11A 1219   5.092   1.011   5.515
   17CHL1  H11B 1220   5.257   1.035   5.569
   17CHL1    C9 1221   5.138   1.219   5.579
   17CHL1    H9 1222   5.235   1.272   5.591
   17CHL1   C10 1223   5.076   1.203   5.718
   17CHL1   C19 1224   4.945   1.120   5.707
   17CHL1  H19A 1225   4.868   1.174   5.649
   17CHL1  H19B 1226   4.959   1.024   5.656
   17CHL1  H19C 1227   4.901   1.096   5.805
   17CHL1    C1 1228   5.180   1.132   5.810
   17CHL1   H1A 1229   5.203   1.031   5.770
   17CHL1   H1B 1230   5.274   1.192   5.807
   17CHL1    C2 1231   5.133   1.116   5.954
   17CHL1   H2A 1232   5.209   1.061   6.013
   17CHL1   H2B 1233   5.039   1.056   5.956
   17CHL1   C20 1234   5.126   1.117   5.032
   17CHL1   H20 1235   5.018   1.110   5.008
   17CHL1   C21 1236   5.179   0.974   5.053
   17CHL1  H21A 1237   5.289   0.975   5.058
   17CHL1  H21B 1238   5.148   0.909   4.968
   17CHL1  H21C 1239   5.137   0.927   5.144
   17CHL1   C22 1240   5.201   1.184   4.916
   17CHL1  H22A 1241   5.150   1.279   4.887
   17CHL1  H22B 1242   5.305   1.210   4.947
   17CHL1   C23 1243   5.213   1.097   4.794
   17CHL1  H23A 1244   5.294   1.023   4.806
   17CHL1  H23B 1245   5.117   1.045   4.777
   17CHL1   C24 1246   5.240   1.188   4.677
   17CHL1  H24A 1247   5.151   1.253   4.661
   17CHL1  H24B 1248   5.327   1.254   4.699
   17CHL1   C25 1249   5.269   1.113   4.549
   17CHL1   H25 1250   5.370   1.069   4.557
   17CHL1   C26 1251   5.175   0.992   4.526
   17CHL1  H26A 1252   5.209   0.931   4.441
   17CHL1  H26B 1253   5.176   0.923   4.613
   17CHL1  H26C 1254   5.070   1.023   4.510
   17CHL1   C27 1255   5.269   1.223   4.444
   17CHL1  H27A 1256   5.275   1.184   4.342
   17CHL1  H27B 1257   5.176   1.283   4.450
   17CHL1  H27C 1258   5.354   1.292   4.461
   18CHL1    C3 1259   5.947   2.147   5.984
   18CHL1    H3 1260   5.837   2.134   5.999
   18CHL1    O3 1261   6.013   2.133   6.110
   18CHL1   H3' 1262   5.999   2.217   6.158
   18CHL1    C4 1263   5.997   2.034   5.892
   18CHL1   H4A 1264   6.108   2.025   5.904
   18CHL1   H4B 1265   5.958   1.938   5.933
   18CHL1    C5 1266   5.965   2.050   5.745
   18CHL1    C6 1267   5.904   1.952   5.675
   18CHL1    H6 1268   5.878   1.859   5.726
   18CHL1    C7 1269   5.882   1.954   5.526
   18CHL1   H7A 1270   5.908   1.855   5.483
   18CHL1   H7B 1271   5.776   1.976   5.499
   18CHL1    C8 1272   5.973   2.060   5.461
   18CHL1    H8 1273   6.076   2.019   5.470
   18CHL1   C14 1274   5.942   2.076   5.312
   18CHL1   H14 1275   5.840   2.121   5.306
   18CHL1   C15 1276   5.935   1.949   5.227
   18CHL1  H15A 1277   6.027   1.889   5.245
   18CHL1  H15B 1278   5.845   1.888   5.249
   18CHL1   C16 1279   5.937   2.003   5.084
   18CHL1  H16A 1280   5.995   1.932   5.022
   18CHL1  H16B 1281   5.834   2.011   5.043
   18CHL1   C17 1282   6.001   2.145   5.089
   18CHL1   H17 1283   5.919   2.217   5.066
   18CHL1   C13 1284   6.038   2.169   5.239
   18CHL1   C18 1285   6.184   2.126   5.264
   18CHL1  H18A 1286   6.197   2.019   5.240
   18CHL1  H18B 1287   6.259   2.185   5.209
   18CHL1  H18C 1288   6.211   2.137   5.371
   18CHL1   C12 1289   6.010   2.307   5.300
   18CHL1  H12A 1290   6.068   2.386   5.249
   18CHL1  H12B 1291   5.903   2.327   5.283
   18CHL1   C11 1292   6.038   2.308   5.453
   18CHL1  H11A 1293   6.148   2.305   5.463
   18CHL1  H11B 1294   6.010   2.400   5.506
   18CHL1    C9 1295   5.965   2.195   5.534
   18CHL1    H9 1296   5.856   2.221   5.531
   18CHL1   C10 1297   6.003   2.188   5.686
   18CHL1   C19 1298   6.153   2.224   5.702
   18CHL1  H19A 1299   6.197   2.177   5.792
   18CHL1  H19B 1300   6.215   2.194   5.616
   18CHL1  H19C 1301   6.164   2.334   5.715
   18CHL1    C1 1302   5.924   2.290   5.775
   18CHL1   H1A 1303   5.938   2.393   5.735
   18CHL1   H1B 1304   5.815   2.268   5.771
   18CHL1    C2 1305   5.970   2.287   5.923
   18CHL1   H2A 1306   5.914   2.365   5.980
   18CHL1   H2B 1307   6.078   2.313   5.932
   18CHL1   C20 1308   6.108   2.161   4.979
   18CHL1   H20 1309   6.192   2.092   4.999
   18CHL1   C21 1310   6.163   2.303   4.986
   18CHL1  H21A 1311   6.230   2.326   4.900
   18CHL1  H21B 1312   6.217   2.325   5.079
   18CHL1  H21C 1313   6.077   2.370   4.987
   18CHL1   C22 1314   6.051   2.125   4.837
   18CHL1  H22A 1315   6.026   2.017   4.836
   18CHL1  H22B 1316   5.957   2.181   4.821
   18CHL1   C23 1317   6.140   2.145   4.711
   18CHL1  H23A 1318   6.137   2.253   4.685
   18CHL1  H23B 1319   6.246   2.120   4.730
   18CHL1   C24 1320   6.086   2.059   4.594
   18CHL1  H24A 1321   6.104   1.951   4.612
   18CHL1  H24B 1322   5.975   2.073   4.592
   18CHL1   C25 1323   6.138   2.096   4.453
   18CHL1   H25 1324   6.162   2.204   4.459
   18CHL1   C26 1325   6.267   2.026   4.411
   18CHL1  H26A 1326   6.252   1.916   4.402
   18CHL1  H26B 1327   6.299   2.062   4.311
   18CHL1  H26C 1328   6.348   2.048   4.483
   18CHL1   C27 1329   6.031   2.073   4.345
   18CHL1  H27A 1330   6.003   1.966   4.342
   18CHL1  H27B 1331   5.939   2.131   4.364
   18CHL1  H27C 1332   6.069   2.103   4.245
   19CHL1    C3 1333   6.508   3.641   6.004
   19CHL1    H3 1334   6.508   3.748   5.971
   19CHL1    O3 1335   6.503   3.634   6.144
   19CHL1   H3' 1336   6.596   3.626   6.170
   19CHL1    C4 1337   6.385   3.569   5.951
   19CHL1   H4A 1338   6.385   3.464   5.985
   19CHL1   H4B 1339   6.294   3.617   5.995
   19CHL1    C5 1340   6.386   3.575   5.801
   19CHL1    C6 1341   6.286   3.636   5.736
   19CHL1    H6 1342   6.202   3.679   5.793
   19CHL1    C7 1343   6.277   3.640   5.588
   19CHL1   H7A 1344   6.175   3.610   5.556
   19CHL1   H7B 1345   6.294   3.744   5.552
   19CHL1    C8 1346   6.378   3.544   5.521
   19CHL1    H8 1347   6.337   3.441   5.525
   19CHL1   C14 1348   6.396   3.589   5.380
   19CHL1   H14 1349   6.445   3.689   5.383
   19CHL1   C15 1350   6.266   3.608   5.302
   19CHL1  H15A 1351   6.212   3.513   5.315
   19CHL1  H15B 1352   6.203   3.693   5.335
   19CHL1   C16 1353   6.317   3.624   5.160
   19CHL1  H16A 1354   6.256   3.560   5.092
   19CHL1  H16B 1355   6.310   3.730   5.127
   19CHL1   C17 1356   6.467   3.578   5.164
   19CHL1   H17 1357   6.529   3.670   5.174
   19CHL1   C13 1358   6.484   3.500   5.293
   19CHL1   C18 1359   6.426   3.357   5.276
   19CHL1  H18A 1360   6.329   3.359   5.222
   19CHL1  H18B 1361   6.496   3.293   5.218
   19CHL1  H18C 1362   6.410   3.308   5.374
   19CHL1   C12 1363   6.625   3.496   5.355
   19CHL1  H12A 1364   6.688   3.420   5.303
   19CHL1  H12B 1365   6.674   3.595   5.344
   19CHL1   C11 1366   6.617   3.458   5.503
   19CHL1  H11A 1367   6.584   3.352   5.506
   19CHL1  H11B 1368   6.719   3.465   5.548
   19CHL1    C9 1369   6.517   3.545   5.584
   19CHL1    H9 1370   6.554   3.650   5.574
   19CHL1   C10 1371   6.511   3.515   5.735
   19CHL1   C19 1372   6.509   3.361   5.754
   19CHL1  H19A 1373   6.494   3.332   5.859
   19CHL1  H19B 1374   6.429   3.315   5.692
   19CHL1  H19C 1375   6.606   3.320   5.723
   19CHL1    C1 1376   6.639   3.575   5.800
   19CHL1   H1A 1377   6.729   3.520   5.764
   19CHL1   H1B 1378   6.649   3.681   5.767
   19CHL1    C2 1379   6.636   3.572   5.953
   19CHL1   H2A 1380   6.726   3.624   5.993
   19CHL1   H2B 1381   6.639   3.467   5.989
   19CHL1   C20 1382   6.503   3.514   5.033
   19CHL1   H20 1383   6.430   3.433   5.011
   19CHL1   C21 1384   6.644   3.453   5.029
   19CHL1  H21A 1385   6.720   3.531   5.047
   19CHL1  H21B 1386   6.664   3.407   4.930
   19CHL1  H21C 1387   6.654   3.372   5.103
   19CHL1   C22 1388   6.490   3.623   4.927
   19CHL1  H22A 1389   6.402   3.689   4.939
   19CHL1  H22B 1390   6.581   3.688   4.928
   19CHL1   C23 1391   6.473   3.556   4.794
   19CHL1  H23A 1392   6.567   3.501   4.773
   19CHL1  H23B 1393   6.391   3.481   4.799
   19CHL1   C24 1394   6.442   3.659   4.687
   19CHL1  H24A 1395   6.332   3.665   4.674
   19CHL1  H24B 1396   6.479   3.760   4.715
   19CHL1   C25 1397   6.511   3.612   4.560
   19CHL1   H25 1398   6.481   3.676   4.475
   19CHL1   C26 1399   6.664   3.632   4.578
   19CHL1  H26A 1400   6.712   3.661   4.483
   19CHL1  H26B 1401   6.684   3.714   4.650
   19CHL1  H26C 1402   6.711   3.539   4.616
   19CHL1   C27 1403   6.462   3.467   4.533
   19CHL1  H27A 1404   6.460   3.442   4.425
   19CHL1  H27B 1405   6.524   3.393   4.586
   19CHL1  H27C 1406   6.357   3.456   4.568
   20CHL1    C3 1407   5.231   6.103   6.023
   20CHL1    H3 1408   5.312   6.038   5.984
   20CHL1    O3 1409   5.238   6.099   6.165
   20CHL1   H3' 1410   5.333   6.106   6.184
   20CHL1    C4 1411   5.254   6.245   5.970
   20CHL1   H4A 1412   5.170   6.310   6.001
   20CHL1   H4B 1413   5.347   6.287   6.015
   20CHL1    C5 1414   5.264   6.235   5.819
   20CHL1    C6 1415   5.379   6.265   5.756
   20CHL1    H6 1416   5.465   6.302   5.814
   20CHL1    C7 1417   5.394   6.255   5.607
   20CHL1   H7A 1418   5.453   6.337   5.563
   20CHL1   H7B 1419   5.448   6.160   5.584
   20CHL1    C8 1420   5.259   6.245   5.533
   20CHL1    H8 1421   5.206   6.342   5.541
   20CHL1   C14 1422   5.285   6.217   5.387
   20CHL1   H14 1423   5.352   6.127   5.383
   20CHL1   C15 1424   5.354   6.328   5.306
   20CHL1  H15A 1425   5.300   6.424   5.322
   20CHL1  H15B 1426   5.460   6.344   5.334
   20CHL1   C16 1427   5.337   6.279   5.162
   20CHL1  H16A 1428   5.311   6.364   5.096
   20CHL1  H16B 1429   5.431   6.232   5.126
   20CHL1   C17 1430   5.223   6.171   5.165
   20CHL1   H17 1431   5.276   6.073   5.164
   20CHL1   C13 1432   5.162   6.179   5.306
   20CHL1   C18 1433   5.060   6.294   5.308
   20CHL1  H18A 1434   5.099   6.383   5.255
   20CHL1  H18B 1435   4.966   6.264   5.259
   20CHL1  H18C 1436   5.035   6.325   5.412
   20CHL1   C12 1437   5.103   6.050   5.368
   20CHL1  H12A 1438   5.015   6.014   5.312
   20CHL1  H12B 1439   5.181   5.970   5.366
   20CHL1   C11 1440   5.062   6.077   5.514
   20CHL1  H11A 1441   4.977   6.147   5.514
   20CHL1  H11B 1442   5.026   5.982   5.559
   20CHL1    C9 1443   5.178   6.134   5.600
   20CHL1    H9 1444   5.249   6.047   5.607
   20CHL1   C10 1445   5.142   6.173   5.746
   20CHL1   C19 1446   5.027   6.277   5.744
   20CHL1  H19A 1447   5.002   6.312   5.846
   20CHL1  H19B 1448   5.055   6.365   5.684
   20CHL1  H19C 1449   4.935   6.233   5.701
   20CHL1    C1 1450   5.096   6.044   5.820
   20CHL1   H1A 1451   4.997   6.013   5.782
   20CHL1   H1B 1452   5.167   5.963   5.792
   20CHL1    C2 1453   5.095   6.053   5.973
   20CHL1   H2A 1454   5.073   5.952   6.013
   20CHL1   H2B 1455   5.016   6.123   6.007
   20CHL1   C20 1456   5.131   6.178   5.042
   20CHL1   H20 1457   5.087   6.279   5.037
   20CHL1   C21 1458   5.017   6.074   5.053
   20CHL1  H21A 1459   5.057   5.975   5.085
   20CHL1  H21B 1460   4.967   6.061   4.954
   20CHL1  H21C 1461   4.940   6.106   5.126
   20CHL1   C22 1462   5.207   6.154   4.909
   20CHL1  H22A 1463   5.315   6.180   4.918
   20CHL1  H22B 1464   5.202   6.044   4.889
   20CHL1   C23 1465   5.149   6.228   4.787
   20CHL1  H23A 1466   5.039   6.224   4.793
   20CHL1  H23B 1467   5.179   6.335   4.789
   20CHL1   C24 1468   5.197   6.160   4.657
   20CHL1  H24A 1469   5.307   6.176   4.645
   20CHL1  H24B 1470   5.179   6.051   4.669
   20CHL1   C25 1471   5.126   6.198   4.525
   20CHL1   H25 1472   5.148   6.305   4.501
   20CHL1   C26 1473   5.178   6.111   4.409
   20CHL1  H26A 1474   5.272   6.153   4.367
   20CHL1  H26B 1475   5.199   6.008   4.444
   20CHL1  H26C 1476   5.102   6.105   4.328
   20CHL1   C27 1477   4.974   6.182   4.536
   20CHL1  H27A 1478   4.930   6.259   4.602
   20CHL1  H27B 1479   4.928   6.192   4.435
   20CHL1  H27C 1480   4.950   6.082   4.577
   21CHL1    C3 1481   6.212   5.001   6.050
   21CHL1    H3 1482   6.114   4.963   6.083
   21CHL1    O3 1483   6.290   5.018   6.165
   21CHL1   H3' 1484   6.229   5.056   6.230
   21CHL1    C4 1485   6.282   4.895   5.964
   21CHL1   H4A 1486   6.387   4.929   5.957
   21CHL1   H4B 1487   6.283   4.801   6.023
   21CHL1    C5 1488   6.235   4.874   5.823
   21CHL1    C6 1489   6.214   4.752   5.768
   21CHL1    H6 1490   6.239   4.662   5.827
   21CHL1    C7 1491   6.175   4.729   5.623
   21CHL1   H7A 1492   6.237   4.649   5.576
   21CHL1   H7B 1493   6.069   4.698   5.615
   21CHL1    C8 1494   6.199   4.860   5.543
   21CHL1    H8 1495   6.309   4.867   5.545
   21CHL1   C14 1496   6.157   4.861   5.396
   21CHL1   H14 1497   6.046   4.852   5.396
   21CHL1   C15 1498   6.202   4.745   5.305
   21CHL1  H15A 1499   6.303   4.712   5.335
   21CHL1  H15B 1500   6.133   4.659   5.314
   21CHL1   C16 1501   6.201   4.801   5.162
   21CHL1  H16A 1502   6.297   4.783   5.110
   21CHL1  H16B 1503   6.122   4.752   5.100
   21CHL1   C17 1504   6.167   4.951   5.175
   21CHL1   H17 1505   6.055   4.949   5.168
   21CHL1   C13 1506   6.189   4.994   5.325
   21CHL1   C18 1507   6.329   5.054   5.358
   21CHL1  H18A 1508   6.395   5.068   5.272
   21CHL1  H18B 1509   6.318   5.154   5.403
   21CHL1  H18C 1510   6.387   4.996   5.431
   21CHL1   C12 1511   6.087   5.093   5.383
   21CHL1  H12A 1512   6.096   5.194   5.336
   21CHL1  H12B 1513   5.987   5.054   5.359
   21CHL1   C11 1514   6.097   5.107   5.536
   21CHL1  H11A 1515   6.168   5.188   5.558
   21CHL1  H11B 1516   5.998   5.141   5.573
   21CHL1    C9 1517   6.133   4.978   5.618
   21CHL1    H9 1518   6.033   4.937   5.649
   21CHL1   C10 1519   6.211   5.007   5.749
   21CHL1   C19 1520   6.351   5.067   5.715
   21CHL1  H19A 1521   6.341   5.160   5.656
   21CHL1  H19B 1522   6.407   5.093   5.807
   21CHL1  H19C 1523   6.414   4.996   5.659
   21CHL1    C1 1524   6.130   5.106   5.839
   21CHL1   H1A 1525   6.116   5.203   5.787
   21CHL1   H1B 1526   6.030   5.063   5.858
   21CHL1    C2 1527   6.196   5.134   5.976
   21CHL1   H2A 1528   6.132   5.205   6.034
   21CHL1   H2B 1529   6.295   5.183   5.963
   21CHL1   C20 1530   6.211   5.040   5.057
   21CHL1   H20 1531   6.301   5.097   5.088
   21CHL1   C21 1532   6.092   5.135   5.033
   21CHL1  H21A 1533   6.117   5.213   4.958
   21CHL1  H21B 1534   6.062   5.185   5.127
   21CHL1  H21C 1535   6.003   5.079   4.997
   21CHL1   C22 1536   6.253   4.973   4.922
   21CHL1  H22A 1537   6.297   5.054   4.858
   21CHL1  H22B 1538   6.332   4.897   4.937
   21CHL1   C23 1539   6.135   4.915   4.844
   21CHL1  H23A 1540   6.063   4.893   4.927
   21CHL1  H23B 1541   6.094   4.996   4.780
   21CHL1   C24 1542   6.145   4.781   4.766
   21CHL1  H24A 1543   6.234   4.774   4.700
   21CHL1  H24B 1544   6.152   4.700   4.842
   21CHL1   C25 1545   6.015   4.756   4.685
   21CHL1   H25 1546   6.022   4.802   4.584
   21CHL1   C26 1547   5.972   4.610   4.667
   21CHL1  H26A 1548   5.946   4.564   4.765
   21CHL1  H26B 1549   5.878   4.610   4.606
   21CHL1  H26C 1550   6.044   4.547   4.612
   21CHL1   C27 1551   5.900   4.825   4.759
   21CHL1  H27A 1552   5.900   4.796   4.865
   21CHL1  H27B 1553   5.901   4.935   4.755
   21CHL1  H27C 1554   5.807   4.793   4.717
   22CHL1    C3 1555   0.945   4.765   5.977
   22CHL1    H3 1556   0.894   4.865   5.975
   22CHL1    O3 1557   0.974   4.732   6.112
   22CHL1   H3' 1558   1.055   4.780   6.136
   22CHL1    C4 1559   0.852   4.658   5.918
   22CHL1   H4A 1560   0.903   4.561   5.929
   22CHL1   H4B 1561   0.760   4.653   5.982
   22CHL1    C5 1562   0.820   4.685   5.773
   22CHL1    C6 1563   0.693   4.701   5.733
   22CHL1    H6 1564   0.613   4.690   5.806
   22CHL1    C7 1565   0.653   4.725   5.590
   22CHL1   H7A 1566   0.565   4.662   5.564
   22CHL1   H7B 1567   0.624   4.831   5.576
   22CHL1    C8 1568   0.768   4.691   5.491
   22CHL1    H8 1569   0.778   4.580   5.493
   22CHL1   C14 1570   0.731   4.737   5.349
   22CHL1   H14 1571   0.711   4.847   5.355
   22CHL1   C15 1572   0.607   4.673   5.285
   22CHL1  H15A 1573   0.607   4.565   5.314
   22CHL1  H15B 1574   0.513   4.720   5.318
   22CHL1   C16 1575   0.631   4.684   5.133
   22CHL1  H16A 1576   0.630   4.582   5.089
   22CHL1  H16B 1577   0.551   4.739   5.083
   22CHL1   C17 1578   0.770   4.752   5.112
   22CHL1   H17 1579   0.754   4.862   5.109
   22CHL1   C13 1580   0.841   4.719   5.245
   22CHL1   C18 1581   0.873   4.570   5.236
   22CHL1  H18A 1582   0.887   4.529   5.337
   22CHL1  H18B 1583   0.797   4.507   5.186
   22CHL1  H18C 1584   0.966   4.558   5.181
   22CHL1   C12 1585   0.962   4.802   5.293
   22CHL1  H12A 1586   1.048   4.796   5.223
   22CHL1  H12B 1587   0.932   4.908   5.302
   22CHL1   C11 1588   1.011   4.751   5.430
   22CHL1  H11A 1589   1.049   4.647   5.416
   22CHL1  H11B 1590   1.097   4.812   5.463
   22CHL1    C9 1591   0.900   4.754   5.539
   22CHL1    H9 1592   0.877   4.862   5.552
   22CHL1   C10 1593   0.943   4.702   5.680
   22CHL1   C19 1594   1.014   4.565   5.662
   22CHL1  H19A 1595   1.039   4.518   5.759
   22CHL1  H19B 1596   0.950   4.494   5.606
   22CHL1  H19C 1597   1.110   4.577   5.607
   22CHL1    C1 1598   1.041   4.803   5.747
   22CHL1   H1A 1599   1.136   4.805   5.689
   22CHL1   H1B 1600   0.996   4.904   5.741
   22CHL1    C2 1601   1.074   4.773   5.895
   22CHL1   H2A 1602   1.141   4.852   5.936
   22CHL1   H2B 1603   1.127   4.676   5.902
   22CHL1   C20 1604   0.837   4.708   4.981
   22CHL1   H20 1605   0.850   4.597   4.984
   22CHL1   C21 1606   0.978   4.769   4.966
   22CHL1  H21A 1607   0.975   4.879   4.978
   22CHL1  H21B 1608   1.023   4.745   4.868
   22CHL1  H21C 1609   1.047   4.725   5.040
   22CHL1   C22 1610   0.753   4.735   4.854
   22CHL1  H22A 1611   0.659   4.676   4.861
   22CHL1  H22B 1612   0.725   4.842   4.847
   22CHL1   C23 1613   0.824   4.692   4.723
   22CHL1  H23A 1614   0.891   4.773   4.687
   22CHL1  H23B 1615   0.888   4.605   4.746
   22CHL1   C24 1616   0.725   4.648   4.615
   22CHL1  H24A 1617   0.682   4.552   4.651
   22CHL1  H24B 1618   0.645   4.725   4.607
   22CHL1   C25 1619   0.783   4.623   4.474
   22CHL1   H25 1620   0.874   4.562   4.487
   22CHL1   C26 1621   0.689   4.539   4.387
   22CHL1  H26A 1622   0.738   4.512   4.291
   22CHL1  H26B 1623   0.662   4.445   4.440
   22CHL1  H26C 1624   0.596   4.595   4.365
   22CHL1   C27 1625   0.816   4.755   4.404
   22CHL1  H27A 1626   0.886   4.817   4.465
   22CHL1  H27B 1627   0.862   4.737   4.305
   22CHL1  H27C 1628   0.722   4.814   4.389
   23CHL1    C3 1629   3.765   6.692   5.993
   23CHL1    H3 1630   3.721   6.794   5.989
   23CHL1    O3 1631   3.766   6.649   6.128
   23CHL1   H3' 1632   3.791   6.729   6.180
   23CHL1    C4 1633   3.677   6.598   5.909
   23CHL1   H4A 1634   3.711   6.493   5.923
   23CHL1   H4B 1635   3.573   6.603   5.949
   23CHL1    C5 1636   3.685   6.637   5.763
   23CHL1    C6 1637   3.577   6.684   5.698
   23CHL1    H6 1638   3.479   6.690   5.748
   23CHL1    C7 1639   3.580   6.726   5.555
   23CHL1   H7A 1640   3.483   6.702   5.506
   23CHL1   H7B 1641   3.595   6.836   5.546
   23CHL1    C8 1642   3.696   6.655   5.482
   23CHL1    H8 1643   3.673   6.546   5.485
   23CHL1   C14 1644   3.704   6.700   5.337
   23CHL1   H14 1645   3.736   6.808   5.340
   23CHL1   C15 1646   3.573   6.701   5.259
   23CHL1  H15A 1647   3.518   6.608   5.281
   23CHL1  H15B 1648   3.513   6.790   5.287
   23CHL1   C16 1649   3.615   6.703   5.112
   23CHL1  H16A 1650   3.558   6.625   5.058
   23CHL1  H16B 1651   3.593   6.802   5.065
   23CHL1   C17 1652   3.767   6.674   5.109
   23CHL1   H17 1653   3.818   6.772   5.096
   23CHL1   C13 1654   3.806   6.626   5.253
   23CHL1   C18 1655   3.785   6.473   5.261
   23CHL1  H18A 1656   3.686   6.445   5.221
   23CHL1  H18B 1657   3.862   6.418   5.205
   23CHL1  H18C 1658   3.793   6.436   5.365
   23CHL1   C12 1659   3.942   6.668   5.311
   23CHL1  H12A 1660   4.026   6.624   5.255
   23CHL1  H12B 1661   3.952   6.777   5.298
   23CHL1   C11 1662   3.953   6.637   5.463
   23CHL1  H11A 1663   3.968   6.528   5.469
   23CHL1  H11B 1664   4.044   6.685   5.504
   23CHL1    C9 1665   3.830   6.681   5.551
   23CHL1    H9 1666   3.837   6.791   5.555
   23CHL1   C10 1667   3.828   6.634   5.700
   23CHL1   C19 1668   3.903   6.499   5.712
   23CHL1  H19A 1669   3.883   6.433   5.626
   23CHL1  H19B 1670   4.013   6.520   5.713
   23CHL1  H19C 1671   3.880   6.444   5.805
   23CHL1    C1 1672   3.904   6.735   5.790
   23CHL1   H1A 1673   4.007   6.750   5.750
   23CHL1   H1B 1674   3.850   6.831   5.784
   23CHL1    C2 1675   3.908   6.695   5.938
   23CHL1   H2A 1676   3.971   6.765   5.997
   23CHL1   H2B 1677   3.953   6.594   5.950
   23CHL1   C20 1678   3.801   6.586   4.988
   23CHL1   H20 1679   3.747   6.489   4.995
   23CHL1   C21 1680   3.953   6.559   4.987
   23CHL1  H21A 1681   3.984   6.514   4.891
   23CHL1  H21B 1682   3.985   6.491   5.068
   23CHL1  H21C 1683   4.006   6.654   5.003
   23CHL1   C22 1684   3.760   6.653   4.853
   23CHL1  H22A 1685   3.725   6.757   4.868
   23CHL1  H22B 1686   3.853   6.657   4.794
   23CHL1   C23 1687   3.667   6.579   4.755
   23CHL1  H23A 1688   3.711   6.480   4.730
   23CHL1  H23B 1689   3.567   6.563   4.799
   23CHL1   C24 1690   3.656   6.663   4.625
   23CHL1  H24A 1691   3.596   6.753   4.646
   23CHL1  H24B 1692   3.758   6.697   4.595
   23CHL1   C25 1693   3.594   6.593   4.502
   23CHL1   H25 1694   3.652   6.500   4.479
   23CHL1   C26 1695   3.449   6.556   4.531
   23CHL1  H26A 1696   3.398   6.648   4.566
   23CHL1  H26B 1697   3.398   6.518   4.440
   23CHL1  H26C 1698   3.442   6.479   4.611
   23CHL1   C27 1699   3.600   6.684   4.379
   23CHL1  H27A 1700   3.549   6.636   4.293
   23CHL1  H27B 1701   3.551   6.782   4.399
   23CHL1  H27C 1702   3.705   6.702   4.351
   24CHL1    C3 1703   1.210   5.514   6.001
   24CHL1    H3 1704   1.318   5.529   5.978
   24CHL1    O3 1705   1.186   5.522   6.140
   24CHL1   H3' 1706   1.262   5.564   6.183
   24CHL1    C4 1707   1.126   5.622   5.929
   24CHL1   H4A 1708   1.024   5.619   5.973
   24CHL1   H4B 1709   1.168   5.721   5.957
   24CHL1    C5 1710   1.118   5.605   5.778
   24CHL1    C6 1711   1.144   5.705   5.693
   24CHL1    H6 1712   1.173   5.804   5.731
   24CHL1    C7 1713   1.129   5.694   5.543
   24CHL1   H7A 1714   1.075   5.782   5.502
   24CHL1   H7B 1715   1.230   5.693   5.497
   24CHL1    C8 1716   1.055   5.565   5.498
   24CHL1    H8 1717   0.946   5.580   5.514
   24CHL1   C14 1718   1.082   5.538   5.351
   24CHL1   H14 1719   1.192   5.518   5.344
   24CHL1   C15 1720   1.056   5.652   5.252
   24CHL1  H15A 1721   0.958   5.700   5.275
   24CHL1  H15B 1722   1.135   5.730   5.255
   24CHL1   C16 1723   1.048   5.581   5.116
   24CHL1  H16A 1724   0.954   5.615   5.070
   24CHL1  H16B 1725   1.132   5.609   5.049
   24CHL1   C17 1726   1.052   5.428   5.146
   24CHL1   H17 1727   1.160   5.400   5.143
   24CHL1   C13 1728   1.015   5.413   5.295
   24CHL1   C18 1729   0.861   5.420   5.311
   24CHL1  H18A 1730   0.825   5.522   5.289
   24CHL1  H18B 1731   0.809   5.348   5.245
   24CHL1  H18C 1732   0.831   5.398   5.415
   24CHL1   C12 1733   1.072   5.291   5.368
   24CHL1  H12A 1734   1.022   5.198   5.333
   24CHL1  H12B 1735   1.181   5.283   5.346
   24CHL1   C11 1736   1.055   5.306   5.521
   24CHL1  H11A 1737   0.948   5.290   5.545
   24CHL1  H11B 1738   1.111   5.224   5.570
   24CHL1    C9 1739   1.103   5.444   5.578
   24CHL1    H9 1740   1.214   5.443   5.564
   24CHL1   C10 1741   1.081   5.463   5.731
   24CHL1   C19 1742   0.931   5.446   5.764
   24CHL1  H19A 1743   0.871   5.521   5.711
   24CHL1  H19B 1744   0.893   5.345   5.738
   24CHL1  H19C 1745   0.912   5.459   5.873
   24CHL1    C1 1746   1.167   5.358   5.805
   24CHL1   H1A 1747   1.130   5.256   5.781
   24CHL1   H1B 1748   1.272   5.366   5.767
   24CHL1    C2 1749   1.168   5.373   5.957
   24CHL1   H2A 1750   1.238   5.299   6.003
   24CHL1   H2B 1751   1.066   5.353   5.997
   24CHL1   C20 1752   0.980   5.336   5.044
   24CHL1   H20 1753   0.940   5.247   5.096
   24CHL1   C21 1754   1.088   5.287   4.944
   24CHL1  H21A 1755   1.046   5.213   4.874
   24CHL1  H21B 1756   1.172   5.240   4.998
   24CHL1  H21C 1757   1.128   5.373   4.886
   24CHL1   C22 1758   0.864   5.409   4.970
   24CHL1  H22A 1759   0.797   5.457   5.044
   24CHL1  H22B 1760   0.912   5.489   4.910
   24CHL1   C23 1761   0.775   5.332   4.871
   24CHL1  H23A 1762   0.839   5.267   4.807
   24CHL1  H23B 1763   0.701   5.268   4.923
   24CHL1   C24 1764   0.702   5.435   4.782
   24CHL1  H24A 1765   0.617   5.480   4.838
   24CHL1  H24B 1766   0.772   5.518   4.759
   24CHL1   C25 1767   0.652   5.384   4.647
   24CHL1   H25 1768   0.574   5.307   4.666
   24CHL1   C26 1769   0.582   5.501   4.577
   24CHL1  H26A 1770   0.487   5.530   4.624
   24CHL1  H26B 1771   0.648   5.590   4.583
   24CHL1  H26C 1772   0.563   5.479   4.470
   24CHL1   C27 1773   0.762   5.321   4.560
   24CHL1  H27A 1774   0.855   5.381   4.561
   24CHL1  H27B 1775   0.786   5.219   4.597
   24CHL1  H27C 1776   0.729   5.311   4.455
   25CHL1    C3 1777   0.765   1.802   5.974
   25CHL1    H3 1778   0.733   1.903   5.938
   25CHL1    O3 1779   0.754   1.797   6.115
   25CHL1   H3' 1780   0.724   1.707   6.133
   25CHL1    C4 1781   0.676   1.693   5.914
   25CHL1   H4A 1782   0.710   1.594   5.951
   25CHL1   H4B 1783   0.572   1.706   5.950
   25CHL1    C5 1784   0.684   1.697   5.763
   25CHL1    C6 1785   0.575   1.719   5.688
   25CHL1    H6 1786   0.477   1.731   5.736
   25CHL1    C7 1787   0.576   1.729   5.538
   25CHL1   H7A 1788   0.497   1.667   5.492
   25CHL1   H7B 1789   0.558   1.835   5.510
   25CHL1    C8 1790   0.709   1.682   5.473
   25CHL1    H8 1791   0.706   1.572   5.465
   25CHL1   C14 1792   0.725   1.746   5.336
   25CHL1   H14 1793   0.736   1.856   5.357
   25CHL1   C15 1794   0.609   1.741   5.233
   25CHL1  H15A 1795   0.565   1.640   5.230
   25CHL1  H15B 1796   0.530   1.815   5.257
   25CHL1   C16 1797   0.680   1.773   5.099
   25CHL1  H16A 1798   0.667   1.687   5.030
   25CHL1  H16B 1799   0.638   1.864   5.051
   25CHL1   C17 1800   0.832   1.791   5.135
   25CHL1   H17 1801   0.842   1.897   5.167
   25CHL1   C13 1802   0.850   1.705   5.260
   25CHL1   C18 1803   0.844   1.554   5.222
   25CHL1  H18A 1804   0.934   1.526   5.163
   25CHL1  H18B 1805   0.842   1.491   5.313
   25CHL1  H18C 1806   0.754   1.529   5.163
   25CHL1   C12 1807   0.974   1.735   5.345
   25CHL1  H12A 1808   1.066   1.693   5.301
   25CHL1  H12B 1809   0.983   1.845   5.349
   25CHL1   C11 1810   0.963   1.680   5.487
   25CHL1  H11A 1811   0.967   1.570   5.481
   25CHL1  H11B 1812   1.051   1.715   5.545
   25CHL1    C9 1813   0.831   1.723   5.557
   25CHL1    H9 1814   0.829   1.835   5.556
   25CHL1   C10 1815   0.826   1.684   5.706
   25CHL1   C19 1816   0.871   1.536   5.722
   25CHL1  H19A 1817   0.809   1.469   5.660
   25CHL1  H19B 1818   0.977   1.523   5.692
   25CHL1  H19C 1819   0.865   1.503   5.828
   25CHL1    C1 1820   0.925   1.779   5.782
   25CHL1   H1A 1821   1.029   1.753   5.755
   25CHL1   H1B 1822   0.906   1.884   5.748
   25CHL1    C2 1823   0.911   1.779   5.935
   25CHL1   H2A 1824   0.976   1.857   5.980
   25CHL1   H2B 1825   0.944   1.680   5.974
   25CHL1   C20 1826   0.930   1.772   5.018
   25CHL1   H20 1827   0.929   1.664   4.989
   25CHL1   C21 1828   1.076   1.807   5.056
   25CHL1  H21A 1829   1.138   1.818   4.965
   25CHL1  H21B 1830   1.122   1.726   5.115
   25CHL1  H21C 1831   1.082   1.902   5.113
   25CHL1   C22 1832   0.888   1.853   4.894
   25CHL1  H22A 1833   0.810   1.928   4.920
   25CHL1  H22B 1834   0.975   1.910   4.854
   25CHL1   C23 1835   0.834   1.758   4.786
   25CHL1  H23A 1836   0.915   1.695   4.745
   25CHL1  H23B 1837   0.764   1.688   4.835
   25CHL1   C24 1838   0.765   1.831   4.671
   25CHL1  H24A 1839   0.707   1.916   4.712
   25CHL1  H24B 1840   0.841   1.872   4.601
   25CHL1   C25 1841   0.666   1.740   4.595
   25CHL1   H25 1842   0.718   1.647   4.562
   25CHL1   C26 1843   0.550   1.700   4.687
   25CHL1  H26A 1844   0.576   1.611   4.748
   25CHL1  H26B 1845   0.524   1.784   4.755
   25CHL1  H26C 1846   0.460   1.677   4.628
   25CHL1   C27 1847   0.614   1.813   4.470
   25CHL1  H27A 1848   0.509   1.785   4.451
   25CHL1  H27B 1849   0.619   1.922   4.484
   25CHL1  H27C 1850   0.675   1.785   4.381
   26CHL1    C3 1851   5.583   6.748   6.001
   26CHL1    H3 1852   5.649   6.839   6.003
   26CHL1    O3 1853   5.541   6.715   6.133
   26CHL1   H3' 1854   5.506   6.799   6.167
   26CHL1    C4 1855   5.460   6.780   5.915
   26CHL1   H4A 1856   5.385   6.699   5.927
   26CHL1   H4B 1857   5.411   6.872   5.956
   26CHL1    C5 1858   5.497   6.799   5.770
   26CHL1    C6 1859   5.468   6.912   5.704
   26CHL1    H6 1860   5.412   6.991   5.755
   26CHL1    C7 1861   5.507   6.936   5.562
   26CHL1   H7A 1862   5.421   6.981   5.507
   26CHL1   H7B 1863   5.591   7.008   5.560
   26CHL1    C8 1864   5.546   6.808   5.486
   26CHL1    H8 1865   5.449   6.760   5.461
   26CHL1   C14 1866   5.629   6.838   5.364
   26CHL1   H14 1867   5.735   6.851   5.400
   26CHL1   C15 1868   5.609   6.974   5.299
   26CHL1  H15A 1869   5.510   7.015   5.324
   26CHL1  H15B 1870   5.681   7.046   5.343
   26CHL1   C16 1871   5.635   6.944   5.151
   26CHL1  H16A 1872   5.537   6.950   5.099
   26CHL1  H16B 1873   5.704   7.017   5.105
   26CHL1   C17 1874   5.691   6.799   5.138
   26CHL1   H17 1875   5.802   6.806   5.151
   26CHL1   C13 1876   5.638   6.724   5.263
   26CHL1   C18 1877   5.500   6.662   5.227
   26CHL1  H18A 1878   5.448   6.621   5.315
   26CHL1  H18B 1879   5.435   6.738   5.179
   26CHL1  H18C 1880   5.514   6.577   5.157
   26CHL1   C12 1881   5.728   6.622   5.335
   26CHL1  H12A 1882   5.738   6.529   5.276
   26CHL1  H12B 1883   5.830   6.666   5.347
   26CHL1   C11 1884   5.674   6.589   5.478
   26CHL1  H11A 1885   5.585   6.525   5.462
   26CHL1  H11B 1886   5.749   6.530   5.534
   26CHL1    C9 1887   5.633   6.713   5.566
   26CHL1    H9 1888   5.727   6.770   5.586
   26CHL1   C10 1889   5.578   6.684   5.707
   26CHL1   C19 1890   5.486   6.562   5.697
   26CHL1  H19A 1891   5.551   6.473   5.682
   26CHL1  H19B 1892   5.428   6.544   5.790
   26CHL1  H19C 1893   5.415   6.570   5.613
   26CHL1    C1 1894   5.699   6.650   5.798
   26CHL1   H1A 1895   5.747   6.557   5.760
   26CHL1   H1B 1896   5.774   6.732   5.793
   26CHL1    C2 1897   5.661   6.629   5.945
   26CHL1   H2A 1898   5.754   6.614   6.005
   26CHL1   H2B 1899   5.598   6.538   5.954
   26CHL1   C20 1900   5.664   6.743   4.996
   26CHL1   H20 1901   5.559   6.708   4.986
   26CHL1   C21 1902   5.758   6.625   4.970
   26CHL1  H21A 1903   5.744   6.547   5.048
   26CHL1  H21B 1904   5.864   6.660   4.973
   26CHL1  H21C 1905   5.738   6.579   4.871
   26CHL1   C22 1906   5.681   6.858   4.893
   26CHL1  H22A 1907   5.596   6.929   4.902
   26CHL1  H22B 1908   5.775   6.911   4.923
   26CHL1   C23 1909   5.697   6.835   4.743
   26CHL1  H23A 1910   5.777   6.760   4.727
   26CHL1  H23B 1911   5.603   6.797   4.695
   26CHL1   C24 1912   5.734   6.974   4.686
   26CHL1  H24A 1913   5.646   7.041   4.698
   26CHL1  H24B 1914   5.814   7.017   4.750
   26CHL1   C25 1915   5.786   6.986   4.542
   26CHL1   H25 1916   5.701   7.012   4.475
   26CHL1   C26 1917   5.888   7.099   4.529
   26CHL1  H26A 1918   5.920   7.105   4.423
   26CHL1  H26B 1919   5.847   7.197   4.558
   26CHL1  H26C 1920   5.978   7.077   4.589
   26CHL1   C27 1921   5.851   6.858   4.491
   26CHL1  H27A 1922   5.890   6.793   4.570
   26CHL1  H27B 1923   5.778   6.799   4.433
   26CHL1  H27C 1924   5.936   6.884   4.424
   27CHL1    C3 1925   6.340   0.775   6.050
   27CHL1    H3 1926   6.358   0.666   6.037
   27CHL1    O3 1927   6.357   0.807   6.186
   27CHL1   H3' 1928   6.293   0.752   6.233
   27CHL1    C4 1929   6.445   0.853   5.969
   27CHL1   H4A 1930   6.441   0.959   6.000
   27CHL1   H4B 1931   6.544   0.814   6.002
   27CHL1    C5 1932   6.425   0.843   5.819
   27CHL1    C6 1933   6.525   0.806   5.739
   27CHL1    H6 1934   6.624   0.783   5.782
   27CHL1    C7 1935   6.513   0.799   5.591
   27CHL1   H7A 1936   6.600   0.847   5.542
   27CHL1   H7B 1937   6.512   0.691   5.564
   27CHL1    C8 1938   6.384   0.861   5.531
   27CHL1    H8 1939   6.395   0.971   5.523
   27CHL1   C14 1940   6.360   0.800   5.394
   27CHL1   H14 1941   6.341   0.691   5.416
   27CHL1   C15 1942   6.479   0.798   5.299
   27CHL1  H15A 1943   6.527   0.898   5.294
   27CHL1  H15B 1944   6.549   0.722   5.337
   27CHL1   C16 1945   6.420   0.755   5.165
   27CHL1  H16A 1946   6.457   0.822   5.085
   27CHL1  H16B 1947   6.450   0.651   5.140
   27CHL1   C17 1948   6.266   0.761   5.186
   27CHL1   H17 1949   6.239   0.656   5.218
   27CHL1   C13 1950   6.239   0.845   5.314
   27CHL1   C18 1951   6.246   0.994   5.276
   27CHL1  H18A 1952   6.331   1.014   5.208
   27CHL1  H18B 1953   6.153   1.021   5.222
   27CHL1  H18C 1954   6.254   1.059   5.365
   27CHL1   C12 1955   6.117   0.813   5.403
   27CHL1  H12A 1956   6.024   0.855   5.359
   27CHL1  H12B 1957   6.105   0.703   5.408
   27CHL1   C11 1958   6.132   0.869   5.547
   27CHL1  H11A 1959   6.131   0.980   5.540
   27CHL1  H11B 1960   6.045   0.834   5.605
   27CHL1    C9 1961   6.264   0.827   5.618
   27CHL1    H9 1962   6.260   0.716   5.621
   27CHL1   C10 1963   6.283   0.871   5.766
   27CHL1   C19 1964   6.264   1.024   5.779
   27CHL1  H19A 1965   6.341   1.079   5.720
   27CHL1  H19B 1966   6.164   1.055   5.743
   27CHL1  H19C 1967   6.273   1.058   5.884
   27CHL1    C1 1968   6.182   0.792   5.854
   27CHL1   H1A 1969   6.079   0.820   5.824
   27CHL1   H1B 1970   6.194   0.683   5.833
   27CHL1    C2 1971   6.197   0.810   6.006
   27CHL1   H2A 1972   6.126   0.744   6.059
   27CHL1   H2B 1973   6.173   0.915   6.034
   27CHL1   C20 1974   6.186   0.780   5.056
   27CHL1   H20 1975   6.214   0.693   4.992
   27CHL1   C21 1976   6.222   0.905   4.969
   27CHL1  H21A 1977   6.160   0.991   4.998
   27CHL1  H21B 1978   6.201   0.881   4.863
   27CHL1  H21C 1979   6.328   0.935   4.974
   27CHL1   C22 1980   6.035   0.769   5.082
   27CHL1  H22A 1981   6.015   0.670   5.130
   27CHL1  H22B 1982   6.005   0.847   5.153
   27CHL1   C23 1983   5.950   0.781   4.957
   27CHL1  H23A 1984   5.847   0.812   4.985
   27CHL1  H23B 1985   5.987   0.863   4.892
   27CHL1   C24 1986   5.951   0.648   4.883
   27CHL1  H24A 1987   6.056   0.618   4.865
   27CHL1  H24B 1988   5.905   0.569   4.946
   27CHL1   C25 1989   5.881   0.653   4.747
   27CHL1   H25 1990   5.772   0.672   4.761
   27CHL1   C26 1991   5.939   0.761   4.658
   27CHL1  H26A 1992   5.909   0.743   4.552
   27CHL1  H26B 1993   5.899   0.860   4.688
   27CHL1  H26C 1994   6.049   0.764   4.666
   27CHL1   C27 1995   5.896   0.517   4.683
   27CHL1  H27A 1996   5.832   0.447   4.740
   27CHL1  H27B 1997   5.863   0.517   4.577
   27CHL1  H27C 1998   6.001   0.482   4.689
   28CHL1    C3 1999   1.167   0.286   6.016
   28CHL1    H3 2000   1.087   0.352   5.977
   28CHL1    O3 2001   1.161   0.295   6.157
   28CHL1   H3' 2002   1.068   0.278   6.176
   28CHL1    C4 2003   1.147   0.140   5.966
   28CHL1   H4A 2004   1.230   0.080   6.010
   28CHL1   H4B 2005   1.054   0.099   6.011
   28CHL1    C5 2006   1.147   0.130   5.814
   28CHL1    C6 2007   1.043   0.080   5.744
   28CHL1    H6 2008   0.957   0.041   5.800
   28CHL1    C7 2009   1.029   0.080   5.593
   28CHL1   H7A 2010   1.004  -0.023   5.558
   28CHL1   H7B 2011   0.943   0.142   5.563
   28CHL1    C8 2012   1.154   0.126   5.513
   28CHL1    H8 2013   1.208   0.031   5.496
   28CHL1   C14 2014   1.125   0.200   5.377
   28CHL1   H14 2015   1.093   0.304   5.404
   28CHL1   C15 2016   1.017   0.153   5.277
   28CHL1  H15A 2017   1.016   0.042   5.273
   28CHL1  H15B 2018   0.916   0.188   5.304
   28CHL1   C16 2019   1.063   0.206   5.138
   28CHL1  H16A 2020   1.069   0.121   5.067
   28CHL1  H16B 2021   0.996   0.283   5.095
   28CHL1   C17 2022   1.203   0.272   5.153
   28CHL1   H17 2023   1.183   0.381   5.165
   28CHL1   C13 2024   1.250   0.217   5.291
   28CHL1   C18 2025   1.297   0.078   5.259
   28CHL1  H18A 2026   1.336   0.026   5.348
   28CHL1  H18B 2027   1.220   0.013   5.213
   28CHL1  H18C 2028   1.383   0.084   5.190
   28CHL1   C12 2029   1.355   0.293   5.373
   28CHL1  H12A 2030   1.451   0.310   5.320
   28CHL1  H12B 2031   1.307   0.389   5.395
   28CHL1   C11 2032   1.381   0.237   5.514
   28CHL1  H11A 2033   1.435   0.141   5.507
   28CHL1  H11B 2034   1.450   0.305   5.570
   28CHL1    C9 2035   1.249   0.217   5.593
   28CHL1    H9 2036   1.199   0.317   5.588
   28CHL1   C10 2037   1.267   0.195   5.747
   28CHL1   C19 2038   1.387   0.102   5.779
   28CHL1  H19A 2039   1.365  -0.004   5.755
   28CHL1  H19B 2040   1.479   0.133   5.726
   28CHL1  H19C 2041   1.413   0.107   5.887
   28CHL1    C1 2042   1.291   0.337   5.808
   28CHL1   H1A 2043   1.383   0.380   5.765
   28CHL1   H1B 2044   1.210   0.405   5.775
   28CHL1    C2 2045   1.296   0.346   5.962
   28CHL1   H2A 2046   1.304   0.453   5.991
   28CHL1   H2B 2047   1.385   0.293   6.003
   28CHL1   C20 2048   1.293   0.256   5.025
   28CHL1   H20 2049   1.301   0.147   5.003
   28CHL1   C21 2050   1.436   0.306   5.054
   28CHL1  H21A 2051   1.433   0.405   5.104
   28CHL1  H21B 2052   1.499   0.311   4.964
   28CHL1  H21C 2053   1.489   0.236   5.122
   28CHL1   C22 2054   1.235   0.316   4.892
   28CHL1  H22A 2055   1.164   0.241   4.852
   28CHL1  H22B 2056   1.178   0.409   4.912
   28CHL1   C23 2057   1.335   0.337   4.774
   28CHL1  H23A 2058   1.418   0.405   4.805
   28CHL1  H23B 2059   1.379   0.239   4.748
   28CHL1   C24 2060   1.270   0.405   4.651
   28CHL1  H24A 2061   1.160   0.386   4.652
   28CHL1  H24B 2062   1.285   0.514   4.668
   28CHL1   C25 2063   1.323   0.375   4.508
   28CHL1   H25 2064   1.434   0.384   4.506
   28CHL1   C26 2065   1.285   0.242   4.443
   28CHL1  H26A 2066   1.179   0.217   4.456
   28CHL1  H26B 2067   1.305   0.246   4.333
   28CHL1  H26C 2068   1.346   0.160   4.483
   28CHL1   C27 2069   1.263   0.483   4.417
   28CHL1  H27A 2070   1.152   0.483   4.432
   28CHL1  H27B 2071   1.305   0.580   4.446
   28CHL1  H27C 2072   1.285   0.464   4.310
   29CHL1    C3 2073   3.606   4.073   2.522
   29CHL1    H3 2074   3.510   4.128   2.531
   29CHL1    O3 2075   3.638   4.064   2.385
   29CHL1   H3' 2076   3.651   4.154   2.351
   29CHL1    C4 2077   3.717   4.150   2.596
   29CHL1   H4A 2078   3.814   4.097   2.579
   29CHL1   H4B 2079   3.727   4.251   2.551
   29CHL1    C5 2080   3.686   4.156   2.744
   29CHL1    C6 2081   3.671   4.272   2.810
   29CHL1    H6 2082   3.683   4.368   2.758
   29CHL1    C7 2083   3.645   4.279   2.958
   29CHL1   H7A 2084   3.706   4.359   3.005
   29CHL1   H7B 2085   3.538   4.303   2.976
   29CHL1    C8 2086   3.677   4.144   3.029
   29CHL1    H8 2087   3.788   4.132   3.030
   29CHL1   C14 2088   3.623   4.143   3.170
   29CHL1   H14 2089   3.512   4.153   3.161
   29CHL1   C15 2090   3.667   4.257   3.263
   29CHL1  H15A 2091   3.776   4.274   3.256
   29CHL1  H15B 2092   3.615   4.350   3.238
   29CHL1   C16 2093   3.628   4.207   3.402
   29CHL1  H16A 2094   3.713   4.223   3.473
   29CHL1  H16B 2095   3.538   4.260   3.441
   29CHL1   C17 2096   3.596   4.055   3.386
   29CHL1   H17 2097   3.485   4.047   3.380
   29CHL1   C13 2098   3.648   4.015   3.247
   29CHL1   C18 2099   3.801   3.987   3.255
   29CHL1  H18A 2100   3.856   4.073   3.298
   29CHL1  H18B 2101   3.823   3.898   3.316
   29CHL1  H18C 2102   3.843   3.969   3.154
   29CHL1   C12 2103   3.571   3.903   3.176
   29CHL1  H12A 2104   3.587   3.804   3.224
   29CHL1  H12B 2105   3.462   3.925   3.180
   29CHL1   C11 2106   3.615   3.892   3.030
   29CHL1  H11A 2107   3.716   3.848   3.032
   29CHL1  H11B 2108   3.548   3.819   2.979
   29CHL1    C9 2109   3.613   4.027   2.953
   29CHL1    H9 2110   3.505   4.055   2.945
   29CHL1   C10 2111   3.667   4.017   2.809
   29CHL1   C19 2112   3.805   3.945   2.811
   29CHL1  H19A 2113   3.792   3.840   2.844
   29CHL1  H19B 2114   3.852   3.940   2.711
   29CHL1  H19C 2115   3.875   3.996   2.880
   29CHL1    C1 2116   3.563   3.934   2.728
   29CHL1   H1A 2117   3.561   3.830   2.765
   29CHL1   H1B 2118   3.462   3.979   2.744
   29CHL1    C2 2119   3.590   3.931   2.577
   29CHL1   H2A 2120   3.507   3.879   2.525
   29CHL1   H2B 2121   3.683   3.874   2.559
   29CHL1   C20 2122   3.642   3.973   3.506
   29CHL1   H20 2123   3.752   3.982   3.518
   29CHL1   C21 2124   3.608   3.825   3.483
   29CHL1  H21A 2125   3.684   3.773   3.422
   29CHL1  H21B 2126   3.511   3.818   3.428
   29CHL1  H21C 2127   3.596   3.772   3.580
   29CHL1   C22 2128   3.577   4.022   3.637
   29CHL1  H22A 2129   3.568   4.133   3.637
   29CHL1  H22B 2130   3.473   3.982   3.644
   29CHL1   C23 2131   3.658   3.985   3.761
   29CHL1  H23A 2132   3.666   3.874   3.770
   29CHL1  H23B 2133   3.760   4.027   3.753
   29CHL1   C24 2134   3.590   4.042   3.885
   29CHL1  H24A 2135   3.573   4.149   3.864
   29CHL1  H24B 2136   3.493   3.989   3.898
   29CHL1   C25 2137   3.669   4.033   4.016
   29CHL1   H25 2138   3.767   4.086   4.003
   29CHL1   C26 2139   3.594   4.100   4.131
   29CHL1  H26A 2140   3.498   4.049   4.153
   29CHL1  H26B 2141   3.653   4.098   4.225
   29CHL1  H26C 2142   3.573   4.206   4.107
   29CHL1   C27 2143   3.694   3.887   4.049
   29CHL1  H27A 2144   3.716   3.872   4.157
   29CHL1  H27B 2145   3.601   3.833   4.024
   29CHL1  H27C 2146   3.777   3.846   3.988
   30CHL1    C3 2147   4.032   3.409   2.499
   30CHL1    H3 2148   4.002   3.301   2.505
   30CHL1    O3 2149   4.073   3.440   2.367
   30CHL1   H3' 2150   3.995   3.422   2.314
   30CHL1    C4 2151   3.913   3.498   2.538
   30CHL1   H4A 2152   3.944   3.605   2.526
   30CHL1   H4B 2153   3.830   3.481   2.466
   30CHL1    C5 2154   3.869   3.472   2.681
   30CHL1    C6 2155   3.745   3.431   2.713
   30CHL1    H6 2156   3.670   3.422   2.633
   30CHL1    C7 2157   3.697   3.400   2.853
   30CHL1   H7A 2158   3.598   3.445   2.872
   30CHL1   H7B 2159   3.687   3.290   2.865
   30CHL1    C8 2160   3.795   3.454   2.961
   30CHL1    H8 2161   3.776   3.563   2.966
   30CHL1   C14 2162   3.772   3.389   3.098
   30CHL1   H14 2163   3.805   3.283   3.088
   30CHL1   C15 2164   3.630   3.377   3.154
   30CHL1  H15A 2165   3.568   3.464   3.121
   30CHL1  H15B 2166   3.582   3.283   3.121
   30CHL1   C16 2167   3.649   3.380   3.307
   30CHL1  H16A 2168   3.606   3.476   3.343
   30CHL1  H16B 2169   3.599   3.294   3.357
   30CHL1   C17 2170   3.800   3.386   3.339
   30CHL1   H17 2171   3.837   3.281   3.344
   30CHL1   C13 2172   3.858   3.449   3.210
   30CHL1   C18 2173   3.828   3.602   3.216
   30CHL1  H18A 2174   3.720   3.622   3.226
   30CHL1  H18B 2175   3.878   3.651   3.302
   30CHL1  H18C 2176   3.863   3.655   3.126
   30CHL1   C12 2177   4.002   3.410   3.173
   30CHL1  H12A 2178   4.077   3.435   3.249
   30CHL1  H12B 2179   4.006   3.300   3.166
   30CHL1   C11 2180   4.040   3.470   3.037
   30CHL1  H11A 2181   4.040   3.580   3.049
   30CHL1  H11B 2182   4.144   3.440   3.012
   30CHL1    C9 2183   3.942   3.430   2.923
   30CHL1    H9 2184   3.949   3.320   2.911
   30CHL1   C10 2185   3.982   3.485   2.784
   30CHL1   C19 2186   4.015   3.635   2.800
   30CHL1  H19A 2187   4.113   3.647   2.851
   30CHL1  H19B 2188   4.024   3.689   2.704
   30CHL1  H19C 2189   3.938   3.685   2.861
   30CHL1    C1 2190   4.108   3.407   2.738
   30CHL1   H1A 2191   4.194   3.431   2.804
   30CHL1   H1B 2192   4.088   3.298   2.747
   30CHL1    C2 2193   4.149   3.434   2.593
   30CHL1   H2A 2194   4.235   3.370   2.565
   30CHL1   H2B 2195   4.181   3.541   2.584
   30CHL1   C20 2196   3.830   3.453   3.475
   30CHL1   H20 2197   3.821   3.564   3.467
   30CHL1   C21 2198   3.973   3.419   3.520
   30CHL1  H21A 2199   3.997   3.468   3.617
   30CHL1  H21B 2200   4.048   3.454   3.447
   30CHL1  H21C 2201   3.984   3.309   3.534
   30CHL1   C22 2202   3.731   3.415   3.589
   30CHL1  H22A 2203   3.626   3.409   3.553
   30CHL1  H22B 2204   3.759   3.315   3.625
   30CHL1   C23 2205   3.730   3.514   3.707
   30CHL1  H23A 2206   3.834   3.534   3.742
   30CHL1  H23B 2207   3.690   3.612   3.672
   30CHL1   C24 2208   3.645   3.466   3.826
   30CHL1  H24A 2209   3.540   3.449   3.792
   30CHL1  H24B 2210   3.683   3.368   3.862
   30CHL1   C25 2211   3.651   3.565   3.943
   30CHL1   H25 2212   3.673   3.665   3.900
   30CHL1   C26 2213   3.517   3.576   4.020
   30CHL1  H26A 2214   3.504   3.674   4.070
   30CHL1  H26B 2215   3.431   3.561   3.952
   30CHL1  H26C 2216   3.514   3.502   4.101
   30CHL1   C27 2217   3.764   3.524   4.038
   30CHL1  H27A 2218   3.749   3.420   4.072
   30CHL1  H27B 2219   3.863   3.529   3.987
   30CHL1  H27C 2220   3.768   3.590   4.128
   31CHL1    C3 2221   3.195   4.796   2.487
   31CHL1    H3 2222   3.171   4.902   2.515
   31CHL1    O3 2223   3.157   4.773   2.352
   31CHL1   H3' 2224   3.183   4.850   2.303
   31CHL1    C4 2225   3.347   4.770   2.501
   31CHL1   H4A 2226   3.365   4.668   2.461
   31CHL1   H4B 2227   3.400   4.840   2.432
   31CHL1    C5 2228   3.398   4.779   2.643
   31CHL1    C6 2229   3.502   4.855   2.681
   31CHL1    H6 2230   3.559   4.914   2.607
   31CHL1    C7 2231   3.550   4.862   2.824
   31CHL1   H7A 2232   3.660   4.870   2.830
   31CHL1   H7B 2233   3.506   4.955   2.865
   31CHL1    C8 2234   3.497   4.750   2.917
   31CHL1    H8 2235   3.552   4.656   2.898
   31CHL1   C14 2236   3.513   4.790   3.063
   31CHL1   H14 2237   3.461   4.889   3.071
   31CHL1   C15 2238   3.654   4.817   3.118
   31CHL1  H15A 2239   3.724   4.736   3.088
   31CHL1  H15B 2240   3.694   4.913   3.079
   31CHL1   C16 2241   3.633   4.817   3.270
   31CHL1  H16A 2242   3.700   4.741   3.315
   31CHL1  H16B 2243   3.654   4.915   3.316
   31CHL1   C17 2244   3.484   4.775   3.296
   31CHL1   H17 2245   3.424   4.869   3.294
   31CHL1   C13 2246   3.445   4.701   3.167
   31CHL1   C18 2247   3.509   4.561   3.167
   31CHL1  H18A 2248   3.496   4.511   3.070
   31CHL1  H18B 2249   3.617   4.564   3.188
   31CHL1  H18C 2250   3.459   4.498   3.244
   31CHL1   C12 2251   3.296   4.692   3.136
   31CHL1  H12A 2252   3.245   4.618   3.201
   31CHL1  H12B 2253   3.248   4.792   3.150
   31CHL1   C11 2254   3.275   4.646   2.992
   31CHL1  H11A 2255   3.309   4.541   2.982
   31CHL1  H11B 2256   3.166   4.649   2.974
   31CHL1    C9 2257   3.348   4.735   2.889
   31CHL1    H9 2258   3.306   4.837   2.904
   31CHL1   C10 2259   3.316   4.697   2.743
   31CHL1   C19 2260   3.355   4.549   2.719
   31CHL1  H19A 2261   3.341   4.519   2.613
   31CHL1  H19B 2262   3.461   4.531   2.746
   31CHL1  H19C 2263   3.291   4.481   2.779
   31CHL1    C1 2264   3.163   4.717   2.722
   31CHL1   H1A 2265   3.107   4.641   2.781
   31CHL1   H1B 2266   3.134   4.818   2.760
   31CHL1    C2 2267   3.115   4.703   2.578
   31CHL1   H2A 2268   3.006   4.725   2.571
   31CHL1   H2B 2269   3.129   4.597   2.546
   31CHL1   C20 2270   3.459   4.717   3.437
   31CHL1   H20 2271   3.495   4.612   3.442
   31CHL1   C21 2272   3.308   4.720   3.470
   31CHL1  H21A 2273   3.271   4.824   3.474
   31CHL1  H21B 2274   3.289   4.671   3.568
   31CHL1  H21C 2275   3.248   4.665   3.395
   31CHL1   C22 2276   3.537   4.804   3.539
   31CHL1  H22A 2277   3.646   4.786   3.526
   31CHL1  H22B 2278   3.516   4.910   3.512
   31CHL1   C23 2279   3.508   4.791   3.689
   31CHL1  H23A 2280   3.405   4.822   3.714
   31CHL1  H23B 2281   3.520   4.684   3.719
   31CHL1   C24 2282   3.610   4.875   3.771
   31CHL1  H24A 2283   3.598   4.852   3.879
   31CHL1  H24B 2284   3.711   4.840   3.741
   31CHL1   C25 2285   3.606   5.029   3.753
   31CHL1   H25 2286   3.558   5.053   3.656
   31CHL1   C26 2287   3.523   5.095   3.864
   31CHL1  H26A 2288   3.540   5.045   3.962
   31CHL1  H26B 2289   3.550   5.202   3.875
   31CHL1  H26C 2290   3.415   5.088   3.840
   31CHL1   C27 2291   3.747   5.093   3.747
   31CHL1  H27A 2292   3.742   5.201   3.770
   31CHL1  H27B 2293   3.818   5.045   3.818
   31CHL1  H27C 2294   3.789   5.083   3.645
   32CHL1    C3 2295   4.043   1.960   2.519
   32CHL1    H3 2296   4.074   2.044   2.586
   32CHL1    O3 2297   4.047   2.003   2.385
   32CHL1   H3' 2298   4.113   2.073   2.383
   32CHL1    C4 2299   4.137   1.840   2.538
   32CHL1   H4A 2300   4.102   1.758   2.472
   32CHL1   H4B 2301   4.239   1.868   2.503
   32CHL1    C5 2302   4.136   1.798   2.683
   32CHL1    C6 2303   4.250   1.799   2.755
   32CHL1    H6 2304   4.344   1.826   2.707
   32CHL1    C7 2305   4.257   1.763   2.901
   32CHL1   H7A 2306   4.339   1.691   2.920
   32CHL1   H7B 2307   4.280   1.856   2.957
   32CHL1    C8 2308   4.124   1.705   2.957
   32CHL1    H8 2309   4.120   1.597   2.934
   32CHL1   C14 2310   4.121   1.727   3.107
   32CHL1   H14 2311   4.126   1.838   3.121
   32CHL1   C15 2312   4.239   1.671   3.187
   32CHL1  H15A 2313   4.246   1.565   3.157
   32CHL1  H15B 2314   4.335   1.723   3.170
   32CHL1   C16 2315   4.190   1.679   3.332
   32CHL1  H16A 2316   4.194   1.578   3.376
   32CHL1  H16B 2317   4.250   1.748   3.393
   32CHL1   C17 2318   4.040   1.721   3.324
   32CHL1   H17 2319   4.039   1.833   3.325
   32CHL1   C13 2320   3.996   1.681   3.182
   32CHL1   C18 2321   3.978   1.527   3.170
   32CHL1  H18A 2322   3.972   1.497   3.063
   32CHL1  H18B 2323   4.061   1.471   3.216
   32CHL1  H18C 2324   3.883   1.495   3.218
   32CHL1   C12 2325   3.876   1.757   3.122
   32CHL1  H12A 2326   3.781   1.724   3.168
   32CHL1  H12B 2327   3.888   1.865   3.143
   32CHL1   C11 2328   3.869   1.737   2.969
   32CHL1  H11A 2329   3.845   1.631   2.948
   32CHL1  H11B 2330   3.785   1.798   2.931
   32CHL1    C9 2331   4.002   1.776   2.898
   32CHL1    H9 2332   4.017   1.884   2.924
   32CHL1   C10 2333   3.997   1.771   2.744
   32CHL1   C19 2334   3.954   1.629   2.698
   32CHL1  H19A 2335   4.021   1.551   2.741
   32CHL1  H19B 2336   3.850   1.607   2.729
   32CHL1  H19C 2337   3.957   1.620   2.588
   32CHL1    C1 2338   3.891   1.875   2.698
   32CHL1   H1A 2339   3.789   1.835   2.716
   32CHL1   H1B 2340   3.903   1.967   2.760
   32CHL1    C2 2341   3.901   1.918   2.552
   32CHL1   H2A 2342   3.831   2.002   2.532
   32CHL1   H2B 2343   3.873   1.833   2.486
   32CHL1   C20 2344   3.965   1.676   3.449
   32CHL1   H20 2345   3.997   1.571   3.472
   32CHL1   C21 2346   3.812   1.676   3.435
   32CHL1  H21A 2347   3.778   1.612   3.352
   32CHL1  H21B 2348   3.773   1.779   3.424
   32CHL1  H21C 2349   3.770   1.633   3.528
   32CHL1   C22 2350   4.003   1.765   3.569
   32CHL1  H22A 2351   4.113   1.783   3.570
   32CHL1  H22B 2352   3.954   1.865   3.559
   32CHL1   C23 2353   3.963   1.702   3.703
   32CHL1  H23A 2354   3.854   1.715   3.720
   32CHL1  H23B 2355   3.985   1.593   3.698
   32CHL1   C24 2356   4.042   1.762   3.820
   32CHL1  H24A 2357   4.146   1.781   3.786
   32CHL1  H24B 2358   3.997   1.860   3.848
   32CHL1   C25 2359   4.050   1.671   3.943
   32CHL1   H25 2360   4.093   1.573   3.912
   32CHL1   C26 2361   4.144   1.736   4.045
   32CHL1  H26A 2362   4.105   1.836   4.074
   32CHL1  H26B 2363   4.152   1.673   4.137
   32CHL1  H26C 2364   4.245   1.749   4.001
   32CHL1   C27 2365   3.913   1.645   4.004
   32CHL1  H27A 2366   3.871   1.741   4.042
   32CHL1  H27B 2367   3.842   1.603   3.930
   32CHL1  H27C 2368   3.920   1.574   4.089
   33CHL1    C3 2369   3.236   2.013   2.501
   33CHL1    H3 2370   3.235   2.125   2.504
   33CHL1    O3 2371   3.220   1.967   2.368
   33CHL1   H3' 2372   3.303   1.988   2.321
   33CHL1    C4 2373   3.371   1.961   2.554
   33CHL1   H4A 2374   3.374   1.852   2.533
   33CHL1   H4B 2375   3.450   2.007   2.491
   33CHL1    C5 2376   3.394   1.982   2.702
   33CHL1    C6 2377   3.506   2.040   2.749
   33CHL1    H6 2378   3.585   2.069   2.678
   33CHL1    C7 2379   3.536   2.061   2.895
   33CHL1   H7A 2380   3.637   2.021   2.919
   33CHL1   H7B 2381   3.538   2.170   2.916
   33CHL1    C8 2382   3.435   1.993   2.991
   33CHL1    H8 2383   3.468   1.887   3.002
   33CHL1   C14 2384   3.431   2.062   3.128
   33CHL1   H14 2385   3.382   2.161   3.109
   33CHL1   C15 2386   3.562   2.097   3.199
   33CHL1  H15A 2387   3.628   2.008   3.202
   33CHL1  H15B 2388   3.616   2.180   3.149
   33CHL1   C16 2389   3.515   2.134   3.341
   33CHL1  H16A 2390   3.580   2.085   3.416
   33CHL1  H16B 2391   3.520   2.244   3.356
   33CHL1   C17 2392   3.366   2.087   3.355
   33CHL1   H17 2393   3.303   2.177   3.336
   33CHL1   C13 2394   3.344   1.994   3.234
   33CHL1   C18 2395   3.404   1.856   3.270
   33CHL1  H18A 2396   3.332   1.799   3.333
   33CHL1  H18B 2397   3.424   1.795   3.180
   33CHL1  H18C 2398   3.499   1.865   3.326
   33CHL1   C12 2399   3.200   1.984   3.178
   33CHL1  H12A 2400   3.135   1.923   3.244
   33CHL1  H12B 2401   3.157   2.087   3.172
   33CHL1   C11 2402   3.196   1.922   3.038
   33CHL1  H11A 2403   3.227   1.816   3.050
   33CHL1  H11B 2404   3.092   1.923   3.001
   33CHL1    C9 2405   3.291   1.992   2.937
   33CHL1    H9 2406   3.260   2.100   2.934
   33CHL1   C10 2407   3.276   1.940   2.793
   33CHL1   C19 2408   3.272   1.785   2.800
   33CHL1  H19A 2409   3.349   1.749   2.872
   33CHL1  H19B 2410   3.173   1.752   2.838
   33CHL1  H19C 2411   3.289   1.736   2.703
   33CHL1    C1 2412   3.142   1.996   2.734
   33CHL1   H1A 2413   3.057   1.955   2.793
   33CHL1   H1B 2414   3.140   2.106   2.746
   33CHL1    C2 2415   3.120   1.962   2.586
   33CHL1   H2A 2416   3.024   2.006   2.551
   33CHL1   H2B 2417   3.112   1.851   2.575
   33CHL1   C20 2418   3.330   2.037   3.496
   33CHL1   H20 2419   3.393   1.948   3.520
   33CHL1   C21 2420   3.182   1.993   3.502
   33CHL1  H21A 2421   3.151   1.969   3.606
   33CHL1  H21B 2422   3.167   1.900   3.444
   33CHL1  H21C 2423   3.116   2.073   3.463
   33CHL1   C22 2424   3.360   2.142   3.607
   33CHL1  H22A 2425   3.467   2.172   3.601
   33CHL1  H22B 2426   3.300   2.233   3.587
   33CHL1   C23 2427   3.333   2.094   3.751
   33CHL1  H23A 2428   3.223   2.089   3.767
   33CHL1  H23B 2429   3.374   1.991   3.762
   33CHL1   C24 2430   3.393   2.184   3.859
   33CHL1  H24A 2431   3.503   2.189   3.847
   33CHL1  H24B 2432   3.353   2.287   3.845
   33CHL1   C25 2433   3.360   2.141   4.004
   33CHL1   H25 2434   3.249   2.131   4.013
   33CHL1   C26 2435   3.423   2.005   4.042
   33CHL1  H26A 2436   3.385   1.923   3.977
   33CHL1  H26B 2437   3.534   2.011   4.032
   33CHL1  H26C 2438   3.399   1.980   4.147
   33CHL1   C27 2439   3.406   2.247   4.105
   33CHL1  H27A 2440   3.383   2.214   4.209
   33CHL1  H27B 2441   3.516   2.263   4.098
   33CHL1  H27C 2442   3.354   2.343   4.087
   34CHL1    C3 2443   3.576   5.404   2.515
   34CHL1    H3 2444   3.685   5.414   2.532
   34CHL1    O3 2445   3.552   5.403   2.376
   34CHL1   H3' 2446   3.580   5.317   2.344
   34CHL1    C4 2447   3.526   5.272   2.576
   34CHL1   H4A 2448   3.425   5.247   2.535
   34CHL1   H4B 2449   3.593   5.190   2.540
   34CHL1    C5 2450   3.521   5.279   2.727
   34CHL1    C6 2451   3.590   5.196   2.806
   34CHL1    H6 2452   3.651   5.116   2.762
   34CHL1    C7 2453   3.574   5.196   2.955
   34CHL1   H7A 2454   3.586   5.094   2.996
   34CHL1   H7B 2455   3.654   5.258   3.000
   34CHL1    C8 2456   3.436   5.255   2.996
   34CHL1    H8 2457   3.353   5.194   2.954
   34CHL1   C14 2458   3.428   5.254   3.146
   34CHL1   H14 2459   3.522   5.311   3.172
   34CHL1   C15 2460   3.441   5.118   3.216
   34CHL1  H15A 2461   3.366   5.049   3.173
   34CHL1  H15B 2462   3.542   5.074   3.205
   34CHL1   C16 2463   3.406   5.150   3.362
   34CHL1  H16A 2464   3.319   5.088   3.393
   34CHL1  H16B 2465   3.492   5.128   3.430
   34CHL1   C17 2466   3.371   5.302   3.360
   34CHL1   H17 2467   3.472   5.352   3.357
   34CHL1   C13 2468   3.315   5.329   3.218
   34CHL1   C18 2469   3.173   5.266   3.202
   34CHL1  H18A 2470   3.098   5.334   3.247
   34CHL1  H18B 2471   3.146   5.255   3.095
   34CHL1  H18C 2472   3.163   5.167   3.251
   34CHL1   C12 2473   3.313   5.474   3.171
   34CHL1  H12A 2474   3.219   5.525   3.205
   34CHL1  H12B 2475   3.394   5.523   3.228
   34CHL1   C11 2476   3.321   5.483   3.015
   34CHL1  H11A 2477   3.223   5.446   2.979
   34CHL1  H11B 2478   3.331   5.589   2.985
   34CHL1    C9 2479   3.431   5.397   2.943
   34CHL1    H9 2480   3.528   5.444   2.972
   34CHL1   C10 2481   3.435   5.393   2.785
   34CHL1   C19 2482   3.291   5.376   2.735
   34CHL1  H19A 2483   3.242   5.472   2.753
   34CHL1  H19B 2484   3.281   5.359   2.626
   34CHL1  H19C 2485   3.237   5.295   2.788
   34CHL1    C1 2486   3.499   5.523   2.728
   34CHL1   H1A 2487   3.444   5.611   2.766
   34CHL1   H1B 2488   3.604   5.529   2.766
   34CHL1    C2 2489   3.504   5.527   2.574
   34CHL1   H2A 2490   3.556   5.619   2.539
   34CHL1   H2B 2491   3.400   5.531   2.534
   34CHL1   C20 2492   3.314   5.364   3.486
   34CHL1   H20 2493   3.297   5.473   3.469
   34CHL1   C21 2494   3.432   5.354   3.588
   34CHL1  H21A 2495   3.525   5.398   3.549
   34CHL1  H21B 2496   3.451   5.246   3.610
   34CHL1  H21C 2497   3.409   5.405   3.683
   34CHL1   C22 2498   3.183   5.303   3.541
   34CHL1  H22A 2499   3.097   5.358   3.497
   34CHL1  H22B 2500   3.175   5.198   3.507
   34CHL1   C23 2501   3.174   5.305   3.695
   34CHL1  H23A 2502   3.265   5.263   3.742
   34CHL1  H23B 2503   3.158   5.409   3.731
   34CHL1   C24 2504   3.064   5.215   3.747
   34CHL1  H24A 2505   2.966   5.266   3.732
   34CHL1  H24B 2506   3.061   5.120   3.687
   34CHL1   C25 2507   3.078   5.173   3.895
   34CHL1   H25 2508   3.151   5.089   3.901
   34CHL1   C26 2509   3.126   5.284   3.991
   34CHL1  H26A 2510   3.121   5.250   4.096
   34CHL1  H26B 2511   3.231   5.313   3.969
   34CHL1  H26C 2512   3.063   5.374   3.980
   34CHL1   C27 2513   2.940   5.123   3.932
   34CHL1  H27A 2514   2.902   5.068   3.843
   34CHL1  H27B 2515   2.940   5.057   4.020
   34CHL1  H27C 2516   2.870   5.207   3.949
   35CHL1    C3 2517   5.390   2.826   2.502
   35CHL1    H3 2518   5.283   2.800   2.487
   35CHL1    O3 2519   5.459   2.822   2.377
   35CHL1   H3' 2520   5.398   2.864   2.314
   35CHL1    C4 2521   5.397   2.972   2.554
   35CHL1   H4A 2522   5.493   3.015   2.520
   35CHL1   H4B 2523   5.320   3.029   2.498
   35CHL1    C5 2524   5.385   2.994   2.704
   35CHL1    C6 2525   5.316   3.095   2.758
   35CHL1    H6 2526   5.262   3.165   2.693
   35CHL1    C7 2527   5.319   3.126   2.905
   35CHL1   H7A 2528   5.327   3.235   2.924
   35CHL1   H7B 2529   5.224   3.093   2.949
   35CHL1    C8 2530   5.427   3.052   2.987
   35CHL1    H8 2531   5.525   3.104   2.974
   35CHL1   C14 2532   5.386   3.050   3.133
   35CHL1   H14 2533   5.294   2.987   3.134
   35CHL1   C15 2534   5.343   3.182   3.200
   35CHL1  H15A 2535   5.419   3.262   3.181
   35CHL1  H15B 2536   5.245   3.216   3.164
   35CHL1   C16 2537   5.341   3.146   3.350
   35CHL1  H16A 2538   5.407   3.215   3.405
   35CHL1  H16B 2539   5.240   3.150   3.394
   35CHL1   C17 2540   5.397   3.000   3.359
   35CHL1   H17 2541   5.309   2.932   3.345
   35CHL1   C13 2542   5.481   2.981   3.231
   35CHL1   C18 2543   5.614   3.060   3.240
   35CHL1  H18A 2544   5.668   3.056   3.144
   35CHL1  H18B 2545   5.598   3.166   3.266
   35CHL1  H18C 2546   5.681   3.018   3.317
   35CHL1   C12 2547   5.500   2.836   3.182
   35CHL1  H12A 2548   5.576   2.784   3.243
   35CHL1  H12B 2549   5.405   2.780   3.193
   35CHL1   C11 2550   5.541   2.831   3.033
   35CHL1  H11A 2551   5.641   2.880   3.025
   35CHL1  H11B 2552   5.553   2.726   3.001
   35CHL1    C9 2553   5.440   2.907   2.942
   35CHL1    H9 2554   5.341   2.859   2.962
   35CHL1   C10 2555   5.460   2.892   2.789
   35CHL1   C19 2556   5.607   2.909   2.756
   35CHL1  H19A 2557   5.658   2.971   2.833
   35CHL1  H19B 2558   5.651   2.808   2.754
   35CHL1  H19C 2559   5.632   2.951   2.657
   35CHL1    C1 2560   5.418   2.749   2.744
   35CHL1   H1A 2561   5.474   2.675   2.805
   35CHL1   H1B 2562   5.310   2.734   2.762
   35CHL1    C2 2563   5.451   2.722   2.596
   35CHL1   H2A 2564   5.417   2.620   2.566
   35CHL1   H2B 2565   5.562   2.720   2.584
   35CHL1   C20 2566   5.453   2.971   3.498
   35CHL1   H20 2567   5.515   3.058   3.528
   35CHL1   C21 2568   5.544   2.848   3.502
   35CHL1  H21A 2569   5.494   2.758   3.463
   35CHL1  H21B 2570   5.579   2.830   3.606
   35CHL1  H21C 2571   5.631   2.868   3.438
   35CHL1   C22 2572   5.341   2.955   3.604
   35CHL1  H22A 2573   5.390   2.942   3.703
   35CHL1  H22B 2574   5.282   3.049   3.606
   35CHL1   C23 2575   5.245   2.838   3.579
   35CHL1  H23A 2576   5.164   2.874   3.511
   35CHL1  H23B 2577   5.295   2.753   3.528
   35CHL1   C24 2578   5.181   2.787   3.708
   35CHL1  H24A 2579   5.259   2.755   3.781
   35CHL1  H24B 2580   5.126   2.872   3.753
   35CHL1   C25 2581   5.079   2.673   3.688
   35CHL1   H25 2582   5.017   2.697   3.599
   35CHL1   C26 2583   5.144   2.536   3.665
   35CHL1  H26A 2584   5.067   2.460   3.639
   35CHL1  H26B 2585   5.216   2.540   3.580
   35CHL1  H26C 2586   5.198   2.500   3.755
   35CHL1   C27 2587   4.987   2.674   3.811
   35CHL1  H27A 2588   4.921   2.763   3.806
   35CHL1  H27B 2589   4.926   2.582   3.818
   35CHL1  H27C 2590   5.048   2.685   3.904
   36CHL1    C3 2591   4.372   5.420   2.493
   36CHL1    H3 2592   4.306   5.331   2.498
   36CHL1    O3 2593   4.413   5.443   2.360
   36CHL1   H3' 2594   4.335   5.470   2.307
   36CHL1    C4 2595   4.296   5.544   2.542
   36CHL1   H4A 2596   4.351   5.635   2.512
   36CHL1   H4B 2597   4.199   5.550   2.487
   36CHL1    C5 2598   4.274   5.546   2.692
   36CHL1    C6 2599   4.156   5.575   2.745
   36CHL1    H6 2600   4.073   5.602   2.678
   36CHL1    C7 2601   4.137   5.594   2.892
   36CHL1   H7A 2602   4.099   5.695   2.913
   36CHL1   H7B 2603   4.065   5.520   2.932
   36CHL1    C8 2604   4.267   5.597   2.974
   36CHL1    H8 2605   4.310   5.699   2.962
   36CHL1   C14 2606   4.236   5.572   3.119
   36CHL1   H14 2607   4.202   5.468   3.125
   36CHL1   C15 2608   4.117   5.647   3.175
   36CHL1  H15A 2609   4.121   5.753   3.143
   36CHL1  H15B 2610   4.023   5.601   3.139
   36CHL1   C16 2611   4.139   5.630   3.325
   36CHL1  H16A 2612   4.141   5.729   3.372
   36CHL1  H16B 2613   4.064   5.565   3.373
   36CHL1   C17 2614   4.277   5.569   3.349
   36CHL1   H17 2615   4.258   5.461   3.353
   36CHL1   C13 2616   4.351   5.592   3.217
   36CHL1   C18 2617   4.393   5.740   3.207
   36CHL1  H18A 2618   4.464   5.763   3.287
   36CHL1  H18B 2619   4.441   5.765   3.111
   36CHL1  H18C 2620   4.308   5.810   3.221
   36CHL1   C12 2621   4.462   5.493   3.179
   36CHL1  H12A 2622   4.553   5.518   3.238
   36CHL1  H12B 2623   4.435   5.390   3.208
   36CHL1   C11 2624   4.489   5.499   3.027
   36CHL1  H11A 2625   4.521   5.604   3.017
   36CHL1  H11B 2626   4.570   5.431   2.997
   36CHL1    C9 2627   4.367   5.494   2.930
   36CHL1    H9 2628   4.321   5.394   2.941
   36CHL1   C10 2629   4.397   5.514   2.778
   36CHL1   C19 2630   4.489   5.636   2.758
   36CHL1  H19A 2631   4.458   5.723   2.820
   36CHL1  H19B 2632   4.590   5.602   2.787
   36CHL1  H19C 2633   4.497   5.671   2.654
   36CHL1    C1 2634   4.467   5.386   2.726
   36CHL1   H1A 2635   4.562   5.371   2.782
   36CHL1   H1B 2636   4.402   5.298   2.746
   36CHL1    C2 2637   4.498   5.393   2.576
   36CHL1   H2A 2638   4.545   5.298   2.541
   36CHL1   H2B 2639   4.572   5.475   2.562
   36CHL1   C20 2640   4.324   5.600   3.492
   36CHL1   H20 2641   4.233   5.578   3.554
   36CHL1   C21 2642   4.352   5.750   3.519
   36CHL1  H21A 2643   4.460   5.770   3.523
   36CHL1  H21B 2644   4.306   5.781   3.615
   36CHL1  H21C 2645   4.310   5.816   3.441
   36CHL1   C22 2646   4.429   5.504   3.549
   36CHL1  H22A 2647   4.400   5.398   3.531
   36CHL1  H22B 2648   4.526   5.523   3.499
   36CHL1   C23 2649   4.447   5.523   3.700
   36CHL1  H23A 2650   4.532   5.462   3.737
   36CHL1  H23B 2651   4.478   5.629   3.712
   36CHL1   C24 2652   4.327   5.501   3.794
   36CHL1  H24A 2653   4.238   5.562   3.764
   36CHL1  H24B 2654   4.298   5.394   3.795
   36CHL1   C25 2655   4.370   5.547   3.935
   36CHL1   H25 2656   4.473   5.506   3.950
   36CHL1   C26 2657   4.383   5.701   3.936
   36CHL1  H26A 2658   4.480   5.733   3.894
   36CHL1  H26B 2659   4.305   5.750   3.874
   36CHL1  H26C 2660   4.382   5.738   4.040
   36CHL1   C27 2661   4.288   5.490   4.052
   36CHL1  H27A 2662   4.182   5.522   4.049
   36CHL1  H27B 2663   4.293   5.379   4.048
   36CHL1  H27C 2664   4.333   5.521   4.149
   37CHL1    C3 2665   1.671   3.515   2.511
   37CHL1    H3 2666   1.680   3.412   2.552
   37CHL1    O3 2667   1.656   3.507   2.370
   37CHL1   H3' 2668   1.727   3.451   2.337
   37CHL1    C4 2669   1.548   3.581   2.576
   37CHL1   H4A 2670   1.531   3.681   2.531
   37CHL1   H4B 2671   1.458   3.519   2.551
   37CHL1    C5 2672   1.565   3.592   2.726
   37CHL1    C6 2673   1.476   3.538   2.812
   37CHL1    H6 2674   1.383   3.492   2.773
   37CHL1    C7 2675   1.491   3.542   2.961
   37CHL1   H7A 2676   1.395   3.563   3.011
   37CHL1   H7B 2677   1.525   3.441   2.994
   37CHL1    C8 2678   1.597   3.645   3.009
   37CHL1    H8 2679   1.552   3.747   2.999
   37CHL1   C14 2680   1.635   3.619   3.154
   37CHL1   H14 2681   1.682   3.518   3.156
   37CHL1   C15 2682   1.520   3.611   3.254
   37CHL1  H15A 2683   1.448   3.692   3.232
   37CHL1  H15B 2684   1.469   3.513   3.253
   37CHL1   C16 2685   1.586   3.640   3.389
   37CHL1  H16A 2686   1.538   3.732   3.429
   37CHL1  H16B 2687   1.573   3.557   3.461
   37CHL1   C17 2688   1.736   3.670   3.362
   37CHL1   H17 2689   1.786   3.570   3.365
   37CHL1   C13 2690   1.738   3.715   3.214
   37CHL1   C18 2691   1.689   3.862   3.207
   37CHL1  H18A 2692   1.763   3.930   3.254
   37CHL1  H18B 2693   1.677   3.896   3.102
   37CHL1  H18C 2694   1.591   3.875   3.257
   37CHL1   C12 2695   1.866   3.696   3.132
   37CHL1  H12A 2696   1.947   3.761   3.171
   37CHL1  H12B 2697   1.900   3.591   3.138
   37CHL1   C11 2698   1.842   3.719   2.981
   37CHL1  H11A 2699   1.826   3.828   2.964
   37CHL1  H11B 2700   1.934   3.689   2.928
   37CHL1    C9 2701   1.723   3.636   2.924
   37CHL1    H9 2702   1.755   3.529   2.934
   37CHL1   C10 2703   1.697   3.657   2.773
   37CHL1   C19 2704   1.682   3.807   2.745
   37CHL1  H19A 2705   1.655   3.830   2.640
   37CHL1  H19B 2706   1.602   3.848   2.810
   37CHL1  H19C 2707   1.776   3.862   2.765
   37CHL1    C1 2708   1.819   3.601   2.694
   37CHL1   H1A 2709   1.907   3.665   2.715
   37CHL1   H1B 2710   1.841   3.499   2.731
   37CHL1    C2 2711   1.796   3.597   2.543
   37CHL1   H2A 2712   1.886   3.556   2.493
   37CHL1   H2B 2713   1.783   3.701   2.505
   37CHL1   C20 2714   1.799   3.756   3.473
   37CHL1   H20 2715   1.776   3.863   3.456
   37CHL1   C21 2716   1.952   3.737   3.475
   37CHL1  H21A 2717   1.979   3.632   3.497
   37CHL1  H21B 2718   1.998   3.802   3.553
   37CHL1  H21C 2719   1.997   3.765   3.377
   37CHL1   C22 2720   1.737   3.719   3.611
   37CHL1  H22A 2721   1.629   3.746   3.610
   37CHL1  H22B 2722   1.745   3.609   3.628
   37CHL1   C23 2723   1.790   3.790   3.737
   37CHL1  H23A 2724   1.886   3.745   3.770
   37CHL1  H23B 2725   1.807   3.898   3.715
   37CHL1   C24 2726   1.682   3.777   3.846
   37CHL1  H24A 2727   1.598   3.846   3.822
   37CHL1  H24B 2728   1.641   3.673   3.843
   37CHL1   C25 2729   1.728   3.802   3.990
   37CHL1   H25 2730   1.802   3.722   4.017
   37CHL1   C26 2731   1.797   3.937   4.011
   37CHL1  H26A 2732   1.723   4.016   4.036
   37CHL1  H26B 2733   1.867   3.929   4.097
   37CHL1  H26C 2734   1.854   3.969   3.922
   37CHL1   C27 2735   1.606   3.790   4.083
   37CHL1  H27A 2736   1.583   3.683   4.104
   37CHL1  H27B 2737   1.626   3.842   4.179
   37CHL1  H27C 2738   1.516   3.837   4.038
   38CHL1    C3 2739   2.457   1.888   2.507
   38CHL1    H3 2740   2.383   1.959   2.551
   38CHL1    O3 2741   2.460   1.908   2.366
   38CHL1   H3' 2742   2.392   1.974   2.346
   38CHL1    C4 2743   2.596   1.915   2.566
   38CHL1   H4A 2744   2.669   1.844   2.521
   38CHL1   H4B 2745   2.630   2.017   2.534
   38CHL1    C5 2746   2.591   1.900   2.716
   38CHL1    C6 2747   2.624   2.002   2.796
   38CHL1    H6 2748   2.662   2.096   2.753
   38CHL1    C7 2749   2.622   1.994   2.946
   38CHL1   H7A 2750   2.717   2.035   2.988
   38CHL1   H7B 2751   2.541   2.060   2.983
   38CHL1    C8 2752   2.602   1.851   3.002
   38CHL1    H8 2753   2.701   1.801   3.004
   38CHL1   C14 2754   2.545   1.861   3.142
   38CHL1   H14 2755   2.441   1.900   3.129
   38CHL1   C15 2756   2.610   1.960   3.238
   38CHL1  H15A 2757   2.721   1.948   3.238
   38CHL1  H15B 2758   2.584   2.064   3.209
   38CHL1   C16 2759   2.550   1.924   3.373
   38CHL1  H16A 2760   2.632   1.910   3.447
   38CHL1  H16B 2761   2.481   2.002   3.410
   38CHL1   C17 2762   2.472   1.790   3.352
   38CHL1   H17 2763   2.366   1.817   3.333
   38CHL1   C13 2764   2.526   1.730   3.219
   38CHL1   C18 2765   2.663   1.662   3.244
   38CHL1  H18A 2766   2.712   1.635   3.148
   38CHL1  H18B 2767   2.732   1.728   3.300
   38CHL1  H18C 2768   2.649   1.569   3.302
   38CHL1   C12 2769   2.434   1.639   3.135
   38CHL1  H12A 2770   2.430   1.537   3.178
   38CHL1  H12B 2771   2.331   1.681   3.135
   38CHL1   C11 2772   2.483   1.628   2.988
   38CHL1  H11A 2773   2.580   1.574   2.989
   38CHL1  H11B 2774   2.411   1.568   2.929
   38CHL1    C9 2775   2.505   1.767   2.920
   38CHL1    H9 2776   2.407   1.818   2.926
   38CHL1   C10 2777   2.538   1.765   2.768
   38CHL1   C19 2778   2.653   1.665   2.743
   38CHL1  H19A 2779   2.625   1.565   2.781
   38CHL1  H19B 2780   2.674   1.653   2.635
   38CHL1  H19C 2781   2.745   1.697   2.794
   38CHL1    C1 2782   2.409   1.722   2.690
   38CHL1   H1A 2783   2.388   1.615   2.711
   38CHL1   H1B 2784   2.323   1.780   2.729
   38CHL1    C2 2785   2.416   1.744   2.538
   38CHL1   H2A 2786   2.318   1.721   2.491
   38CHL1   H2B 2787   2.491   1.675   2.494
   38CHL1   C20 2788   2.478   1.707   3.479
   38CHL1   H20 2789   2.583   1.676   3.496
   38CHL1   C21 2790   2.392   1.583   3.464
   38CHL1  H21A 2791   2.429   1.517   3.384
   38CHL1  H21B 2792   2.286   1.609   3.444
   38CHL1  H21C 2793   2.396   1.525   3.560
   38CHL1   C22 2794   2.432   1.781   3.607
   38CHL1  H22A 2795   2.435   1.892   3.598
   38CHL1  H22B 2796   2.326   1.754   3.628
   38CHL1   C23 2797   2.523   1.740   3.723
   38CHL1  H23A 2798   2.543   1.631   3.717
   38CHL1  H23B 2799   2.620   1.792   3.709
   38CHL1   C24 2800   2.470   1.774   3.862
   38CHL1  H24A 2801   2.554   1.751   3.931
   38CHL1  H24B 2802   2.447   1.882   3.869
   38CHL1   C25 2803   2.349   1.691   3.911
   38CHL1   H25 2804   2.267   1.701   3.837
   38CHL1   C26 2805   2.386   1.543   3.927
   38CHL1  H26A 2806   2.470   1.532   3.999
   38CHL1  H26B 2807   2.299   1.485   3.965
   38CHL1  H26C 2808   2.417   1.499   3.830
   38CHL1   C27 2809   2.300   1.745   4.046
   38CHL1  H27A 2810   2.371   1.721   4.127
   38CHL1  H27B 2811   2.289   1.855   4.041
   38CHL1  H27C 2812   2.201   1.702   4.071
   39CHL1    C3 2813   5.020   5.541   2.463
   39CHL1    H3 2814   4.910   5.557   2.453
   39CHL1    O3 2815   5.074   5.514   2.334
   39CHL1   H3' 2816   5.145   5.451   2.351
   39CHL1    C4 2817   5.085   5.671   2.515
   39CHL1   H4A 2818   5.182   5.683   2.464
   39CHL1   H4B 2819   5.022   5.756   2.479
   39CHL1    C5 2820   5.119   5.691   2.661
   39CHL1    C6 2821   5.170   5.808   2.704
   39CHL1    H6 2822   5.186   5.891   2.634
   39CHL1    C7 2823   5.210   5.833   2.846
   39CHL1   H7A 2824   5.322   5.832   2.849
   39CHL1   H7B 2825   5.181   5.935   2.879
   39CHL1    C8 2826   5.163   5.725   2.948
   39CHL1    H8 2827   5.259   5.676   2.973
   39CHL1   C14 2828   5.094   5.772   3.077
   39CHL1   H14 2829   4.985   5.768   3.056
   39CHL1   C15 2830   5.112   5.913   3.137
   39CHL1  H15A 2831   5.218   5.944   3.130
   39CHL1  H15B 2832   5.048   5.986   3.084
   39CHL1   C16 2833   5.069   5.895   3.285
   39CHL1  H16A 2834   5.147   5.935   3.352
   39CHL1  H16B 2835   4.974   5.948   3.305
   39CHL1   C17 2836   5.050   5.742   3.308
   39CHL1   H17 2837   4.944   5.721   3.296
   39CHL1   C13 2838   5.115   5.672   3.189
   39CHL1   C18 2839   5.263   5.666   3.225
   39CHL1  H18A 2840   5.271   5.594   3.308
   39CHL1  H18B 2841   5.328   5.628   3.145
   39CHL1  H18C 2842   5.303   5.764   3.259
   39CHL1   C12 2843   5.054   5.535   3.148
   39CHL1  H12A 2844   5.098   5.454   3.210
   39CHL1  H12B 2845   4.945   5.536   3.167
   39CHL1   C11 2846   5.081   5.494   3.002
   39CHL1  H11A 2847   5.014   5.412   2.975
   39CHL1  H11B 2848   5.182   5.451   3.005
   39CHL1    C9 2849   5.074   5.609   2.898
   39CHL1    H9 2850   4.969   5.641   2.899
   39CHL1   C10 2851   5.101   5.570   2.752
   39CHL1   C19 2852   5.240   5.513   2.750
   39CHL1  H19A 2853   5.244   5.420   2.810
   39CHL1  H19B 2854   5.267   5.486   2.646
   39CHL1  H19C 2855   5.317   5.585   2.786
   39CHL1    C1 2856   5.010   5.456   2.700
   39CHL1   H1A 2857   5.031   5.367   2.762
   39CHL1   H1B 2858   4.903   5.483   2.714
   39CHL1    C2 2859   5.037   5.418   2.553
   39CHL1   H2A 2860   4.967   5.337   2.520
   39CHL1   H2B 2861   5.139   5.375   2.541
   39CHL1   C20 2862   5.080   5.688   3.448
   39CHL1   H20 2863   5.190   5.694   3.464
   39CHL1   C21 2864   5.028   5.543   3.463
   39CHL1  H21A 2865   4.921   5.536   3.435
   39CHL1  H21B 2866   5.038   5.509   3.569
   39CHL1  H21C 2867   5.087   5.472   3.403
   39CHL1   C22 2868   5.023   5.767   3.565
   39CHL1  H22A 2869   5.011   5.875   3.543
   39CHL1  H22B 2870   4.926   5.718   3.591
   39CHL1   C23 2871   5.114   5.754   3.685
   39CHL1  H23A 2872   5.127   5.644   3.695
   39CHL1  H23B 2873   5.210   5.802   3.655
   39CHL1   C24 2874   5.068   5.812   3.818
   39CHL1  H24A 2875   5.093   5.921   3.819
   39CHL1  H24B 2876   4.959   5.804   3.826
   39CHL1   C25 2877   5.129   5.747   3.946
   39CHL1   H25 2878   5.193   5.827   3.988
   39CHL1   C26 2879   5.022   5.715   4.047
   39CHL1  H26A 2880   5.062   5.716   4.151
   39CHL1  H26B 2881   4.940   5.788   4.037
   39CHL1  H26C 2882   4.983   5.613   4.026
   39CHL1   C27 2883   5.210   5.617   3.937
   39CHL1  H27A 2884   5.184   5.552   3.852
   39CHL1  H27B 2885   5.316   5.642   3.931
   39CHL1  H27C 2886   5.198   5.554   4.027
   40CHL1    C3 2887   1.353   4.952   2.503
   40CHL1    H3 2888   1.298   5.049   2.505
   40CHL1    O3 2889   1.350   4.894   2.373
   40CHL1   H3' 2890   1.271   4.839   2.375
   40CHL1    C4 2891   1.500   4.977   2.547
   40CHL1   H4A 2892   1.556   4.883   2.528
   40CHL1   H4B 2893   1.545   5.053   2.479
   40CHL1    C5 2894   1.516   5.016   2.693
   40CHL1    C6 2895   1.582   5.123   2.743
   40CHL1    H6 2896   1.634   5.193   2.676
   40CHL1    C7 2897   1.601   5.148   2.893
   40CHL1   H7A 2898   1.708   5.169   2.917
   40CHL1   H7B 2899   1.543   5.238   2.923
   40CHL1    C8 2900   1.557   5.029   2.985
   40CHL1    H8 2901   1.640   4.955   2.986
   40CHL1   C14 2902   1.525   5.070   3.129
   40CHL1   H14 2903   1.440   5.141   3.123
   40CHL1   C15 2904   1.635   5.145   3.206
   40CHL1  H15A 2905   1.735   5.104   3.182
   40CHL1  H15B 2906   1.630   5.252   3.180
   40CHL1   C16 2907   1.603   5.121   3.354
   40CHL1  H16A 2908   1.689   5.069   3.402
   40CHL1  H16B 2909   1.584   5.215   3.409
   40CHL1   C17 2910   1.477   5.029   3.358
   40CHL1   H17 2911   1.392   5.100   3.356
   40CHL1   C13 2912   1.477   4.957   3.221
   40CHL1   C18 2913   1.584   4.846   3.226
   40CHL1  H18A 2914   1.680   4.891   3.254
   40CHL1  H18B 2915   1.560   4.769   3.301
   40CHL1  H18C 2916   1.595   4.796   3.128
   40CHL1   C12 2917   1.345   4.901   3.168
   40CHL1  H12A 2918   1.316   4.810   3.223
   40CHL1  H12B 2919   1.264   4.974   3.179
   40CHL1   C11 2920   1.358   4.863   3.020
   40CHL1  H11A 2921   1.412   4.768   3.019
   40CHL1  H11B 2922   1.254   4.841   2.985
   40CHL1    C9 2923   1.431   4.966   2.927
   40CHL1    H9 2924   1.364   5.052   2.909
   40CHL1   C10 2925   1.450   4.915   2.785
   40CHL1   C19 2926   1.555   4.803   2.787
   40CHL1  H19A 2927   1.545   4.741   2.877
   40CHL1  H19B 2928   1.542   4.738   2.698
   40CHL1  H19C 2929   1.660   4.840   2.790
   40CHL1    C1 2930   1.308   4.866   2.741
   40CHL1   H1A 2931   1.293   4.766   2.787
   40CHL1   H1B 2932   1.231   4.935   2.782
   40CHL1    C2 2933   1.280   4.851   2.592
   40CHL1   H2A 2934   1.170   4.861   2.576
   40CHL1   H2B 2935   1.307   4.748   2.563
   40CHL1   C20 2936   1.460   4.948   3.487
   40CHL1   H20 2937   1.528   4.860   3.484
   40CHL1   C21 2938   1.314   4.900   3.500
   40CHL1  H21A 2939   1.244   4.986   3.495
   40CHL1  H21B 2940   1.298   4.847   3.596
   40CHL1  H21C 2941   1.288   4.828   3.421
   40CHL1   C22 2942   1.503   5.028   3.613
   40CHL1  H22A 2943   1.609   5.059   3.605
   40CHL1  H22B 2944   1.441   5.120   3.619
   40CHL1   C23 2945   1.490   4.949   3.745
   40CHL1  H23A 2946   1.383   4.955   3.776
   40CHL1  H23B 2947   1.514   4.842   3.727
   40CHL1   C24 2948   1.582   5.001   3.857
   40CHL1  H24A 2949   1.688   4.981   3.828
   40CHL1  H24B 2950   1.573   5.110   3.868
   40CHL1   C25 2951   1.556   4.940   3.996
   40CHL1   H25 2952   1.592   4.834   3.993
   40CHL1   C26 2953   1.638   5.014   4.104
   40CHL1  H26A 2954   1.571   5.066   4.175
   40CHL1  H26B 2955   1.701   4.943   4.161
   40CHL1  H26C 2956   1.704   5.090   4.057
   40CHL1   C27 2957   1.407   4.938   4.032
   40CHL1  H27A 2958   1.391   4.939   4.142
   40CHL1  H27B 2959   1.356   5.027   3.990
   40CHL1  H27C 2960   1.357   4.848   3.989
   41CHL1    C3 2961   4.609   1.465   2.472
   41CHL1    H3 2962   4.625   1.574   2.492
   41CHL1    O3 2963   4.623   1.437   2.334
   41CHL1   H3' 2964   4.717   1.413   2.320
   41CHL1    C4 2965   4.715   1.382   2.544
   41CHL1   H4A 2966   4.703   1.276   2.513
   41CHL1   H4B 2967   4.815   1.414   2.507
   41CHL1    C5 2968   4.705   1.392   2.694
   41CHL1    C6 2969   4.810   1.432   2.768
   41CHL1    H6 2970   4.904   1.458   2.720
   41CHL1    C7 2971   4.811   1.435   2.917
   41CHL1   H7A 2972   4.906   1.395   2.956
   41CHL1   H7B 2973   4.805   1.541   2.948
   41CHL1    C8 2974   4.690   1.366   2.983
   41CHL1    H8 2975   4.707   1.256   2.982
   41CHL1   C14 2976   4.678   1.416   3.126
   41CHL1   H14 2977   4.655   1.526   3.117
   41CHL1   C15 2978   4.803   1.411   3.215
   41CHL1  H15A 2979   4.848   1.310   3.212
   41CHL1  H15B 2980   4.880   1.486   3.186
   41CHL1   C16 2981   4.745   1.437   3.355
   41CHL1  H16A 2982   4.789   1.362   3.423
   41CHL1  H16B 2983   4.772   1.540   3.390
   41CHL1   C17 2984   4.590   1.423   3.347
   41CHL1   H17 2985   4.552   1.528   3.340
   41CHL1   C13 2986   4.564   1.359   3.208
   41CHL1   C18 2987   4.571   1.208   3.224
   41CHL1  H18A 2988   4.588   1.155   3.128
   41CHL1  H18B 2989   4.648   1.178   3.299
   41CHL1  H18C 2990   4.472   1.176   3.261
   41CHL1   C12 2991   4.435   1.395   3.132
   41CHL1  H12A 2992   4.346   1.354   3.184
   41CHL1  H12B 2993   4.433   1.506   3.131
   41CHL1   C11 2994   4.436   1.347   2.984
   41CHL1  H11A 2995   4.433   1.236   2.983
   41CHL1  H11B 2996   4.344   1.384   2.934
   41CHL1    C9 2997   4.561   1.397   2.906
   41CHL1    H9 2998   4.553   1.508   2.907
   41CHL1   C10 2999   4.568   1.358   2.755
   41CHL1   C19 3000   4.551   1.205   2.739
   41CHL1  H19A 3001   4.451   1.172   2.774
   41CHL1  H19B 3002   4.560   1.171   2.634
   41CHL1  H19C 3003   4.626   1.149   2.799
   41CHL1    C1 3004   4.457   1.433   2.675
   41CHL1   H1A 3005   4.358   1.392   2.705
   41CHL1   H1B 3006   4.459   1.540   2.704
   41CHL1    C2 3007   4.469   1.424   2.521
   41CHL1   H2A 3008   4.392   1.489   2.473
   41CHL1   H2B 3009   4.450   1.319   2.490
   41CHL1   C20 3010   4.527   1.362   3.475
   41CHL1   H20 3011   4.545   1.252   3.479
   41CHL1   C21 3012   4.375   1.384   3.466
   41CHL1  H21A 3013   4.327   1.301   3.410
   41CHL1  H21B 3014   4.357   1.477   3.409
   41CHL1  H21C 3015   4.327   1.393   3.565
   41CHL1   C22 3016   4.589   1.422   3.605
   41CHL1  H22A 3017   4.699   1.406   3.602
   41CHL1  H22B 3018   4.570   1.531   3.605
   41CHL1   C23 3019   4.550   1.362   3.742
   41CHL1  H23A 3020   4.444   1.386   3.764
   41CHL1  H23B 3021   4.560   1.251   3.737
   41CHL1   C24 3022   4.640   1.411   3.859
   41CHL1  H24A 3023   4.602   1.371   3.955
   41CHL1  H24B 3024   4.741   1.370   3.846
   41CHL1   C25 3025   4.654   1.565   3.873
   41CHL1   H25 3026   4.685   1.607   3.774
   41CHL1   C26 3027   4.522   1.629   3.916
   41CHL1  H26A 3028   4.441   1.603   3.845
   41CHL1  H26B 3029   4.494   1.594   4.017
   41CHL1  H26C 3030   4.533   1.740   3.918
   41CHL1   C27 3031   4.766   1.602   3.973
   41CHL1  H27A 3032   4.762   1.536   4.063
   41CHL1  H27B 3033   4.865   1.591   3.925
   41CHL1  H27C 3034   4.756   1.707   4.006
   42CHL1    C3 3035   1.350   2.801   2.505
   42CHL1    H3 3036   1.457   2.829   2.511
   42CHL1    O3 3037   1.309   2.797   2.370
   42CHL1   H3' 3038   1.334   2.883   2.334
   42CHL1    C4 3039   1.332   2.661   2.565
   42CHL1   H4A 3040   1.229   2.627   2.543
   42CHL1   H4B 3041   1.401   2.593   2.510
   42CHL1    C5 3042   1.356   2.659   2.714
   42CHL1    C6 3043   1.442   2.572   2.770
   42CHL1    H6 3044   1.496   2.500   2.707
   42CHL1    C7 3045   1.463   2.560   2.919
   42CHL1   H7A 3046   1.459   2.453   2.951
   42CHL1   H7B 3047   1.564   2.598   2.945
   42CHL1    C8 3048   1.358   2.640   3.001
   42CHL1    H8 3049   1.263   2.582   3.000
   42CHL1   C14 3050   1.404   2.657   3.145
   42CHL1   H14 3051   1.497   2.717   3.138
   42CHL1   C15 3052   1.442   2.532   3.225
   42CHL1  H15A 3053   1.366   2.452   3.210
   42CHL1  H15B 3054   1.542   2.493   3.194
   42CHL1   C16 3055   1.441   2.580   3.370
   42CHL1  H16A 3056   1.381   2.510   3.431
   42CHL1  H16B 3057   1.543   2.584   3.412
   42CHL1   C17 3058   1.379   2.723   3.371
   42CHL1   H17 3059   1.464   2.796   3.374
   42CHL1   C13 3060   1.313   2.741   3.233
   42CHL1   C18 3061   1.173   2.679   3.235
   42CHL1  H18A 3062   1.176   2.578   3.279
   42CHL1  H18B 3063   1.104   2.741   3.295
   42CHL1  H18C 3064   1.129   2.673   3.134
   42CHL1   C12 3065   1.313   2.884   3.174
   42CHL1  H12A 3066   1.249   2.953   3.233
   42CHL1  H12B 3067   1.417   2.923   3.177
   42CHL1   C11 3068   1.264   2.882   3.028
   42CHL1  H11A 3069   1.155   2.864   3.028
   42CHL1  H11B 3070   1.281   2.984   2.987
   42CHL1    C9 3071   1.338   2.778   2.938
   42CHL1    H9 3072   1.442   2.819   2.928
   42CHL1   C10 3073   1.282   2.767   2.795
   42CHL1   C19 3074   1.133   2.727   2.801
   42CHL1  H19A 3075   1.116   2.641   2.867
   42CHL1  H19B 3076   1.074   2.812   2.839
   42CHL1  H19C 3077   1.094   2.701   2.700
   42CHL1    C1 3078   1.296   2.906   2.726
   42CHL1   H1A 3079   1.228   2.978   2.776
   42CHL1   H1B 3080   1.400   2.943   2.739
   42CHL1    C2 3081   1.264   2.904   2.577
   42CHL1   H2A 3082   1.278   3.005   2.533
   42CHL1   H2B 3083   1.158   2.875   2.563
   42CHL1   C20 3084   1.297   2.746   3.499
   42CHL1   H20 3085   1.216   2.670   3.504
   42CHL1   C21 3086   1.233   2.885   3.500
   42CHL1  H21A 3087   1.311   2.964   3.496
   42CHL1  H21B 3088   1.173   2.899   3.591
   42CHL1  H21C 3089   1.165   2.900   3.414
   42CHL1   C22 3090   1.385   2.731   3.626
   42CHL1  H22A 3091   1.449   2.640   3.619
   42CHL1  H22B 3092   1.453   2.818   3.632
   42CHL1   C23 3093   1.306   2.718   3.756
   42CHL1  H23A 3094   1.232   2.801   3.767
   42CHL1  H23B 3095   1.249   2.622   3.755
   42CHL1   C24 3096   1.398   2.722   3.879
   42CHL1  H24A 3097   1.482   2.651   3.867
   42CHL1  H24B 3098   1.441   2.825   3.884
   42CHL1   C25 3099   1.323   2.691   4.009
   42CHL1   H25 3100   1.217   2.723   3.995
   42CHL1   C26 3101   1.326   2.541   4.040
   42CHL1  H26A 3102   1.302   2.480   3.951
   42CHL1  H26B 3103   1.427   2.513   4.075
   42CHL1  H26C 3104   1.253   2.517   4.120
   42CHL1   C27 3105   1.380   2.769   4.128
   42CHL1  H27A 3106   1.383   2.878   4.107
   42CHL1  H27B 3107   1.317   2.753   4.218
   42CHL1  H27C 3108   1.482   2.734   4.151
   43CHL1    C3 3109   2.822   1.195   2.492
   43CHL1    H3 3110   2.924   1.230   2.520
   43CHL1    O3 3111   2.814   1.182   2.352
   43CHL1   H3' 3112   2.885   1.116   2.332
   43CHL1    C4 3113   2.797   1.056   2.551
   43CHL1   H4A 3114   2.698   1.020   2.515
   43CHL1   H4B 3115   2.873   0.986   2.509
   43CHL1    C5 3116   2.800   1.058   2.702
   43CHL1    C6 3117   2.885   0.980   2.770
   43CHL1    H6 3118   2.952   0.912   2.715
   43CHL1    C7 3119   2.890   0.975   2.919
   43CHL1   H7A 3120   2.893   0.869   2.955
   43CHL1   H7B 3121   2.984   1.024   2.953
   43CHL1    C8 3122   2.770   1.046   2.988
   43CHL1    H8 3123   2.682   0.978   2.982
   43CHL1   C14 3124   2.805   1.075   3.133
   43CHL1   H14 3125   2.891   1.146   3.128
   43CHL1   C15 3126   2.855   0.957   3.219
   43CHL1  H15A 3127   2.791   0.868   3.202
   43CHL1  H15B 3128   2.960   0.931   3.196
   43CHL1   C16 3129   2.837   1.009   3.363
   43CHL1  H16A 3130   2.772   0.939   3.419
   43CHL1  H16B 3131   2.934   1.018   3.416
   43CHL1   C17 3132   2.768   1.149   3.352
   43CHL1   H17 3133   2.850   1.224   3.343
   43CHL1   C13 3134   2.698   1.147   3.214
   43CHL1   C18 3135   2.570   1.059   3.224
   43CHL1  H18A 3136   2.520   1.048   3.126
   43CHL1  H18B 3137   2.592   0.957   3.262
   43CHL1  H18C 3138   2.498   1.105   3.294
   43CHL1   C12 3139   2.670   1.282   3.144
   43CHL1  H12A 3140   2.587   1.338   3.191
   43CHL1  H12B 3141   2.762   1.344   3.148
   43CHL1   C11 3142   2.632   1.261   2.996
   43CHL1  H11A 3143   2.533   1.212   2.992
   43CHL1  H11B 3144   2.621   1.361   2.948
   43CHL1    C9 3145   2.737   1.178   2.918
   43CHL1    H9 3146   2.832   1.237   2.923
   43CHL1   C10 3147   2.707   1.161   2.767
   43CHL1   C19 3148   2.561   1.113   2.748
   43CHL1  H19A 3149   2.537   1.094   2.641
   43CHL1  H19B 3150   2.543   1.020   2.805
   43CHL1  H19C 3151   2.489   1.191   2.783
   43CHL1    C1 3152   2.727   1.300   2.697
   43CHL1   H1A 3153   2.649   1.369   2.734
   43CHL1   H1B 3154   2.826   1.340   2.727
   43CHL1    C2 3155   2.720   1.296   2.544
   43CHL1   H2A 3156   2.740   1.397   2.502
   43CHL1   H2B 3157   2.618   1.266   2.512
   43CHL1   C20 3158   2.689   1.185   3.479
   43CHL1   H20 3159   2.612   1.106   3.496
   43CHL1   C21 3160   2.617   1.319   3.460
   43CHL1  H21A 3161   2.689   1.399   3.435
   43CHL1  H21B 3162   2.561   1.350   3.551
   43CHL1  H21C 3163   2.540   1.312   3.381
   43CHL1   C22 3164   2.779   1.188   3.606
   43CHL1  H22A 3165   2.827   1.089   3.621
   43CHL1  H22B 3166   2.860   1.264   3.592
   43CHL1   C23 3167   2.700   1.223   3.734
   43CHL1  H23A 3168   2.653   1.323   3.723
   43CHL1  H23B 3169   2.618   1.148   3.745
   43CHL1   C24 3170   2.782   1.229   3.863
   43CHL1  H24A 3171   2.810   1.126   3.895
   43CHL1  H24B 3172   2.876   1.286   3.845
   43CHL1   C25 3173   2.703   1.300   3.976
   43CHL1   H25 3174   2.686   1.406   3.946
   43CHL1   C26 3175   2.566   1.235   3.997
   43CHL1  H26A 3176   2.500   1.254   3.910
   43CHL1  H26B 3177   2.576   1.126   4.009
   43CHL1  H26C 3178   2.515   1.278   4.087
   43CHL1   C27 3179   2.785   1.301   4.105
   43CHL1  H27A 3180   2.812   1.197   4.133
   43CHL1  H27B 3181   2.879   1.358   4.092
   43CHL1  H27C 3182   2.727   1.345   4.189
   44CHL1    C3 3183   5.861   2.202   2.506
   44CHL1    H3 3184   5.940   2.124   2.495
   44CHL1    O3 3185   5.817   2.241   2.377
   44CHL1   H3' 3186   5.728   2.204   2.368
   44CHL1    C4 3187   5.742   2.146   2.585
   44CHL1   H4A 3188   5.663   2.224   2.590
   44CHL1   H4B 3189   5.699   2.060   2.529
   44CHL1    C5 3190   5.786   2.106   2.725
   44CHL1    C6 3191   5.772   1.980   2.768
   44CHL1    H6 3192   5.724   1.904   2.705
   44CHL1    C7 3193   5.807   1.939   2.908
   44CHL1   H7A 3194   5.733   1.867   2.947
   44CHL1   H7B 3195   5.906   1.889   2.908
   44CHL1    C8 3196   5.817   2.061   3.003
   44CHL1    H8 3197   5.715   2.105   3.013
   44CHL1   C14 3198   5.863   2.019   3.140
   44CHL1   H14 3199   5.963   1.971   3.127
   44CHL1   C15 3200   5.776   1.914   3.212
   44CHL1  H15A 3201   5.668   1.938   3.197
   44CHL1  H15B 3202   5.796   1.811   3.175
   44CHL1   C16 3203   5.812   1.932   3.359
   44CHL1  H16A 3204   5.718   1.957   3.415
   44CHL1  H16B 3205   5.857   1.841   3.402
   44CHL1   C17 3206   5.911   2.052   3.366
   44CHL1   H17 3207   6.013   2.008   3.354
   44CHL1   C13 3208   5.884   2.133   3.238
   44CHL1   C18 3209   5.754   2.215   3.260
   44CHL1  H18A 3210   5.774   2.302   3.326
   44CHL1  H18B 3211   5.715   2.255   3.164
   44CHL1  H18C 3212   5.674   2.154   3.306
   44CHL1   C12 3213   5.998   2.220   3.180
   44CHL1  H12A 3214   6.021   2.307   3.245
   44CHL1  H12B 3215   6.090   2.159   3.170
   44CHL1   C11 3216   5.958   2.275   3.042
   44CHL1  H11A 3217   5.879   2.350   3.061
   44CHL1  H11B 3218   6.044   2.331   2.998
   44CHL1    C9 3219   5.911   2.165   2.942
   44CHL1    H9 3220   6.005   2.110   2.916
   44CHL1   C10 3221   5.852   2.218   2.808
   44CHL1   C19 3222   5.743   2.323   2.843
   44CHL1  H19A 3223   5.670   2.283   2.915
   44CHL1  H19B 3224   5.790   2.413   2.888
   44CHL1  H19C 3225   5.689   2.359   2.754
   44CHL1    C1 3226   5.966   2.282   2.722
   44CHL1   H1A 3227   6.006   2.371   2.774
   44CHL1   H1B 3228   6.050   2.209   2.713
   44CHL1    C2 3229   5.921   2.322   2.581
   44CHL1   H2A 3230   6.008   2.359   2.523
   44CHL1   H2B 3231   5.845   2.403   2.587
   44CHL1   C20 3232   5.908   2.123   3.502
   44CHL1   H20 3233   5.819   2.189   3.510
   44CHL1   C21 3234   6.033   2.211   3.517
   44CHL1  H21A 3235   6.127   2.151   3.513
   44CHL1  H21B 3236   6.028   2.265   3.613
   44CHL1  H21C 3237   6.037   2.291   3.440
   44CHL1   C22 3238   5.897   2.018   3.616
   44CHL1  H22A 3239   5.792   1.980   3.617
   44CHL1  H22B 3240   5.965   1.933   3.596
   44CHL1   C23 3241   5.926   2.069   3.757
   44CHL1  H23A 3242   6.035   2.088   3.768
   44CHL1  H23B 3243   5.871   2.164   3.774
   44CHL1   C24 3244   5.884   1.966   3.862
   44CHL1  H24A 3245   5.775   1.946   3.852
   44CHL1  H24B 3246   5.937   1.870   3.842
   44CHL1   C25 3247   5.913   2.010   4.006
   44CHL1   H25 3248   6.023   2.023   4.018
   44CHL1   C26 3249   5.846   2.144   4.041
   44CHL1  H26A 3250   5.747   2.152   3.991
   44CHL1  H26B 3251   5.832   2.154   4.151
   44CHL1  H26C 3252   5.909   2.229   4.007
   44CHL1   C27 3253   5.870   1.902   4.105
   44CHL1  H27A 3254   5.825   1.816   4.052
   44CHL1  H27B 3255   5.960   1.867   4.160
   44CHL1  H27C 3256   5.798   1.940   4.179
   45CHL1    C3 3257   2.082   1.200   2.495
   45CHL1    H3 3258   2.189   1.168   2.502
   45CHL1    O3 3259   2.045   1.205   2.358
   45CHL1   H3' 3260   2.040   1.113   2.330
   45CHL1    C4 3261   1.993   1.098   2.567
   45CHL1   H4A 3262   1.886   1.126   2.554
   45CHL1   H4B 3263   2.007   1.000   2.517
   45CHL1    C5 3264   2.029   1.092   2.714
   45CHL1    C6 3265   2.069   0.976   2.769
   45CHL1    H6 3266   2.071   0.884   2.709
   45CHL1    C7 3267   2.106   0.963   2.913
   45CHL1   H7A 3268   2.056   0.874   2.957
   45CHL1   H7B 3269   2.216   0.947   2.920
   45CHL1    C8 3270   2.066   1.086   2.998
   45CHL1    H8 3271   1.958   1.078   3.021
   45CHL1   C14 3272   2.147   1.085   3.126
   45CHL1   H14 3273   2.251   1.114   3.095
   45CHL1   C15 3274   2.168   0.950   3.193
   45CHL1  H15A 3275   2.082   0.882   3.181
   45CHL1  H15B 3276   2.258   0.904   3.146
   45CHL1   C16 3277   2.192   0.983   3.338
   45CHL1  H16A 3278   2.106   0.947   3.398
   45CHL1  H16B 3279   2.285   0.935   3.376
   45CHL1   C17 3280   2.199   1.138   3.346
   45CHL1   H17 3281   2.303   1.167   3.317
   45CHL1   C13 3282   2.110   1.190   3.230
   45CHL1   C18 3283   1.962   1.183   3.277
   45CHL1  H18A 3284   1.941   1.267   3.346
   45CHL1  H18B 3285   1.892   1.191   3.192
   45CHL1  H18C 3286   1.942   1.089   3.332
   45CHL1   C12 3287   2.138   1.327   3.163
   45CHL1  H12A 3288   2.103   1.410   3.227
   45CHL1  H12B 3289   2.248   1.338   3.149
   45CHL1   C11 3290   2.068   1.339   3.025
   45CHL1  H11A 3291   1.959   1.346   3.045
   45CHL1  H11B 3292   2.100   1.433   2.977
   45CHL1    C9 3293   2.094   1.218   2.929
   45CHL1    H9 3294   2.205   1.219   2.910
   45CHL1   C10 3295   2.028   1.227   2.789
   45CHL1   C19 3296   1.881   1.269   2.807
   45CHL1  H19A 3297   1.878   1.373   2.844
   45CHL1  H19B 3298   1.825   1.266   2.712
   45CHL1  H19C 3299   1.829   1.204   2.881
   45CHL1    C1 3300   2.105   1.334   2.707
   45CHL1   H1A 3301   2.088   1.434   2.753
   45CHL1   H1B 3302   2.214   1.312   2.712
   45CHL1    C2 3303   2.065   1.338   2.558
   45CHL1   H2A 3304   2.130   1.411   2.504
   45CHL1   H2B 3305   1.959   1.370   2.549
   45CHL1   C20 3306   2.178   1.184   3.490
   45CHL1   H20 3307   2.072   1.169   3.521
   45CHL1   C21 3308   2.212   1.332   3.496
   45CHL1  H21A 3309   2.155   1.391   3.422
   45CHL1  H21B 3310   2.321   1.341   3.473
   45CHL1  H21C 3311   2.192   1.376   3.595
   45CHL1   C22 3312   2.269   1.101   3.585
   45CHL1  H22A 3313   2.217   1.004   3.603
   45CHL1  H22B 3314   2.366   1.078   3.535
   45CHL1   C23 3315   2.304   1.164   3.720
   45CHL1  H23A 3316   2.403   1.214   3.714
   45CHL1  H23B 3317   2.231   1.244   3.746
   45CHL1   C24 3318   2.304   1.060   3.833
   45CHL1  H24A 3319   2.241   0.972   3.806
   45CHL1  H24B 3320   2.407   1.023   3.851
   45CHL1   C25 3321   2.242   1.115   3.962
   45CHL1   H25 3322   2.287   1.216   3.983
   45CHL1   C26 3323   2.090   1.133   3.942
   45CHL1  H26A 3324   2.066   1.141   3.834
   45CHL1  H26B 3325   2.034   1.046   3.980
   45CHL1  H26C 3326   2.054   1.225   3.991
   45CHL1   C27 3327   2.280   1.023   4.079
   45CHL1  H27A 3328   2.390   1.010   4.085
   45CHL1  H27B 3329   2.249   1.065   4.177
   45CHL1  H27C 3330   2.234   0.922   4.065
   46CHL1    C3 3331   6.521   4.812   2.483
   46CHL1    H3 3332   6.482   4.708   2.496
   46CHL1    O3 3333   6.491   4.853   2.351
   46CHL1   H3' 3334   6.550   4.802   2.295
   46CHL1    C4 3335   6.449   4.906   2.578
   46CHL1   H4A 3336   6.489   5.009   2.564
   46CHL1   H4B 3337   6.342   4.909   2.550
   46CHL1    C5 3338   6.472   4.858   2.720
   46CHL1    C6 3339   6.367   4.815   2.789
   46CHL1    H6 3340   6.267   4.819   2.744
   46CHL1    C7 3341   6.376   4.769   2.931
   46CHL1   H7A 3342   6.292   4.814   2.989
   46CHL1   H7B 3343   6.366   4.658   2.936
   46CHL1    C8 3344   6.507   4.810   2.999
   46CHL1    H8 3345   6.501   4.920   3.016
   46CHL1   C14 3346   6.518   4.738   3.133
   46CHL1   H14 3347   6.535   4.630   3.109
   46CHL1   C15 3348   6.396   4.740   3.225
   46CHL1  H15A 3349   6.356   4.844   3.231
   46CHL1  H15B 3350   6.315   4.673   3.190
   46CHL1   C16 3351   6.452   4.697   3.360
   46CHL1  H16A 3352   6.413   4.766   3.438
   46CHL1  H16B 3353   6.422   4.593   3.386
   46CHL1   C17 3354   6.607   4.709   3.352
   46CHL1   H17 3355   6.647   4.606   3.338
   46CHL1   C13 3356   6.636   4.784   3.218
   46CHL1   C18 3357   6.626   4.937   3.244
   46CHL1  H18A 3358   6.635   4.995   3.150
   46CHL1  H18B 3359   6.530   4.964   3.291
   46CHL1  H18C 3360   6.707   4.974   3.309
   46CHL1   C12 3361   6.761   4.744   3.136
   46CHL1  H12A 3362   6.854   4.772   3.189
   46CHL1  H12B 3363   6.762   4.633   3.126
   46CHL1   C11 3364   6.760   4.805   2.992
   46CHL1  H11A 3365   6.778   4.914   3.005
   46CHL1  H11B 3366   6.845   4.763   2.935
   46CHL1    C9 3367   6.628   4.783   2.911
   46CHL1    H9 3368   6.624   4.673   2.890
   46CHL1   C10 3369   6.618   4.852   2.770
   46CHL1   C19 3370   6.675   4.996   2.780
   46CHL1  H19A 3371   6.659   5.055   2.687
   46CHL1  H19B 3372   6.630   5.051   2.864
   46CHL1  H19C 3373   6.785   4.993   2.796
   46CHL1    C1 3374   6.698   4.773   2.662
   46CHL1   H1A 3375   6.806   4.782   2.685
   46CHL1   H1B 3376   6.670   4.665   2.672
   46CHL1    C2 3377   6.672   4.814   2.515
   46CHL1   H2A 3378   6.726   4.745   2.447
   46CHL1   H2B 3379   6.711   4.917   2.498
   46CHL1   C20 3380   6.662   4.761   3.487
   46CHL1   H20 3381   6.614   4.858   3.511
   46CHL1   C21 3382   6.812   4.783   3.473
   46CHL1  H21A 3383   6.853   4.832   3.564
   46CHL1  H21B 3384   6.839   4.846   3.387
   46CHL1  H21C 3385   6.860   4.684   3.458
   46CHL1   C22 3386   6.633   4.662   3.606
   46CHL1  H22A 3387   6.524   4.663   3.628
   46CHL1  H22B 3388   6.659   4.559   3.573
   46CHL1   C23 3389   6.710   4.689   3.737
   46CHL1  H23A 3390   6.817   4.665   3.720
   46CHL1  H23B 3391   6.702   4.797   3.764
   46CHL1   C24 3392   6.664   4.604   3.857
   46CHL1  H24A 3393   6.553   4.609   3.865
   46CHL1  H24B 3394   6.693   4.498   3.840
   46CHL1   C25 3395   6.725   4.649   3.992
   46CHL1   H25 3396   6.713   4.760   3.997
   46CHL1   C26 3397   6.654   4.590   4.114
   46CHL1  H26A 3398   6.682   4.484   4.130
   46CHL1  H26B 3399   6.689   4.641   4.204
   46CHL1  H26C 3400   6.544   4.600   4.109
   46CHL1   C27 3401   6.875   4.616   4.001
   46CHL1  H27A 3402   6.931   4.711   4.016
   46CHL1  H27B 3403   6.897   4.549   4.087
   46CHL1  H27C 3404   6.911   4.567   3.908
   47CHL1    C3 3405   0.814   4.946   2.514
   47CHL1    H3 3406   0.903   5.007   2.540
   47CHL1    O3 3407   0.807   4.935   2.373
   47CHL1   H3' 3408   0.717   4.906   2.353
   47CHL1    C4 3409   0.829   4.806   2.578
   47CHL1   H4A 3410   0.751   4.738   2.540
   47CHL1   H4B 3411   0.927   4.765   2.541
   47CHL1    C5 3412   0.826   4.808   2.730
   47CHL1    C6 3413   0.926   4.759   2.804
   47CHL1    H6 3414   1.011   4.708   2.755
   47CHL1    C7 3415   0.928   4.764   2.954
   47CHL1   H7A 3416   0.962   4.667   2.997
   47CHL1   H7B 3417   1.003   4.840   2.984
   47CHL1    C8 3418   0.792   4.803   3.019
   47CHL1    H8 3419   0.728   4.711   3.025
   47CHL1   C14 3420   0.816   4.860   3.156
   47CHL1   H14 3421   0.872   4.955   3.139
   47CHL1   C15 3422   0.905   4.781   3.252
   47CHL1  H15A 3423   0.864   4.678   3.265
   47CHL1  H15B 3424   1.010   4.773   3.217
   47CHL1   C16 3425   0.893   4.863   3.380
   47CHL1  H16A 3426   0.883   4.796   3.467
   47CHL1  H16B 3427   0.982   4.928   3.393
   47CHL1   C17 3428   0.766   4.955   3.363
   47CHL1   H17 3429   0.805   5.057   3.339
   47CHL1   C13 3430   0.694   4.905   3.236
   47CHL1   C18 3431   0.606   4.783   3.268
   47CHL1  H18A 3432   0.576   4.730   3.175
   47CHL1  H18B 3433   0.658   4.711   3.333
   47CHL1  H18C 3434   0.512   4.814   3.319
   47CHL1   C12 3435   0.618   5.011   3.153
   47CHL1  H12A 3436   0.523   5.041   3.201
   47CHL1  H12B 3437   0.681   5.102   3.144
   47CHL1   C11 3438   0.588   4.958   3.012
   47CHL1  H11A 3439   0.517   4.873   3.020
   47CHL1  H11B 3440   0.538   5.038   2.955
   47CHL1    C9 3441   0.718   4.911   2.940
   47CHL1    H9 3442   0.786   4.999   2.945
   47CHL1   C10 3443   0.704   4.881   2.790
   47CHL1   C19 3444   0.580   4.791   2.771
   47CHL1  H19A 3445   0.588   4.702   2.838
   47CHL1  H19B 3446   0.487   4.845   2.796
   47CHL1  H19C 3447   0.571   4.755   2.667
   47CHL1    C1 3448   0.690   5.019   2.718
   47CHL1   H1A 3449   0.599   5.070   2.757
   47CHL1   H1B 3450   0.779   5.079   2.746
   47CHL1    C2 3451   0.687   5.015   2.565
   47CHL1   H2A 3452   0.682   5.119   2.526
   47CHL1   H2B 3453   0.596   4.961   2.534
   47CHL1   C20 3454   0.687   4.967   3.493
   47CHL1   H20 3455   0.653   4.865   3.523
   47CHL1   C21 3456   0.562   5.056   3.473
   47CHL1  H21A 3457   0.591   5.156   3.433
   47CHL1  H21B 3458   0.508   5.069   3.568
   47CHL1  H21C 3459   0.491   5.009   3.403
   47CHL1   C22 3460   0.776   5.023   3.607
   47CHL1  H22A 3461   0.880   4.985   3.601
   47CHL1  H22B 3462   0.781   5.133   3.596
   47CHL1   C23 3463   0.726   4.987   3.748
   47CHL1  H23A 3464   0.776   5.055   3.821
   47CHL1  H23B 3465   0.617   5.005   3.755
   47CHL1   C24 3466   0.751   4.842   3.790
   47CHL1  H24A 3467   0.689   4.775   3.726
   47CHL1  H24B 3468   0.857   4.813   3.775
   47CHL1   C25 3469   0.712   4.819   3.938
   47CHL1   H25 3470   0.622   4.882   3.958
   47CHL1   C26 3471   0.673   4.674   3.961
   47CHL1  H26A 3472   0.752   4.606   3.923
   47CHL1  H26B 3473   0.656   4.652   4.069
   47CHL1  H26C 3474   0.579   4.651   3.906
   47CHL1   C27 3475   0.823   4.864   4.034
   47CHL1  H27A 3476   0.788   4.859   4.139
   47CHL1  H27B 3477   0.913   4.799   4.024
   47CHL1  H27C 3478   0.854   4.968   4.013
   48CHL1    C3 3479   0.860   2.159   2.497
   48CHL1    H3 3480   0.867   2.063   2.555
   48CHL1    O3 3481   0.860   2.129   2.359
   48CHL1   H3' 3482   0.954   2.117   2.339
   48CHL1    C4 3483   0.731   2.233   2.532
   48CHL1   H4A 3484   0.724   2.326   2.472
   48CHL1   H4B 3485   0.646   2.167   2.501
   48CHL1    C5 3486   0.724   2.266   2.679
   48CHL1    C6 3487   0.617   2.231   2.750
   48CHL1    H6 3488   0.531   2.185   2.698
   48CHL1    C7 3489   0.603   2.251   2.897
   48CHL1   H7A 3490   0.505   2.299   2.921
   48CHL1   H7B 3491   0.604   2.152   2.948
   48CHL1    C8 3492   0.714   2.336   2.961
   48CHL1    H8 3493   0.680   2.441   2.949
   48CHL1   C14 3494   0.733   2.297   3.107
   48CHL1   H14 3495   0.793   2.202   3.107
   48CHL1   C15 3496   0.610   2.261   3.190
   48CHL1  H15A 3497   0.526   2.330   3.164
   48CHL1  H15B 3498   0.580   2.156   3.172
   48CHL1   C16 3499   0.655   2.283   3.335
   48CHL1  H16A 3500   0.586   2.355   3.383
   48CHL1  H16B 3501   0.657   2.188   3.393
   48CHL1   C17 3502   0.799   2.342   3.329
   48CHL1   H17 3503   0.870   2.255   3.335
   48CHL1   C13 3504   0.813   2.398   3.186
   48CHL1   C18 3505   0.738   2.534   3.182
   48CHL1  H18A 3506   0.753   2.581   3.084
   48CHL1  H18B 3507   0.629   2.521   3.197
   48CHL1  H18C 3508   0.775   2.605   3.257
   48CHL1   C12 3509   0.954   2.400   3.122
   48CHL1  H12A 3510   1.017   2.479   3.165
   48CHL1  H12B 3511   1.004   2.303   3.141
   48CHL1   C11 3512   0.949   2.421   2.968
   48CHL1  H11A 3513   0.917   2.526   2.951
   48CHL1  H11B 3514   1.052   2.413   2.926
   48CHL1    C9 3515   0.851   2.324   2.896
   48CHL1    H9 3516   0.888   2.221   2.918
   48CHL1   C10 3517   0.850   2.332   2.741
   48CHL1   C19 3518   0.837   2.480   2.701
   48CHL1  H19A 3519   0.746   2.524   2.747
   48CHL1  H19B 3520   0.926   2.539   2.732
   48CHL1  H19C 3521   0.830   2.493   2.591
   48CHL1    C1 3522   0.982   2.272   2.685
   48CHL1   H1A 3523   1.067   2.340   2.711
   48CHL1   H1B 3524   1.001   2.175   2.737
   48CHL1    C2 3525   0.982   2.245   2.534
   48CHL1   H2A 3526   1.077   2.193   2.507
   48CHL1   H2B 3527   0.979   2.342   2.479
   48CHL1   C20 3528   0.826   2.434   3.448
   48CHL1   H20 3529   0.747   2.512   3.452
   48CHL1   C21 3530   0.962   2.504   3.430
   48CHL1  H21A 3531   0.959   2.568   3.341
   48CHL1  H21B 3532   1.044   2.429   3.419
   48CHL1  H21C 3533   0.986   2.572   3.514
   48CHL1   C22 3534   0.821   2.357   3.582
   48CHL1  H22A 3535   0.721   2.310   3.595
   48CHL1  H22B 3536   0.897   2.275   3.579
   48CHL1   C23 3537   0.847   2.444   3.705
   48CHL1  H23A 3538   0.939   2.506   3.693
   48CHL1  H23B 3539   0.762   2.513   3.720
   48CHL1   C24 3540   0.869   2.360   3.831
   48CHL1  H24A 3541   0.787   2.285   3.839
   48CHL1  H24B 3542   0.965   2.305   3.823
   48CHL1   C25 3543   0.870   2.447   3.956
   48CHL1   H25 3544   0.778   2.511   3.955
   48CHL1   C26 3545   0.866   2.362   4.082
   48CHL1  H26A 3546   0.958   2.301   4.093
   48CHL1  H26B 3547   0.861   2.434   4.166
   48CHL1  H26C 3548   0.777   2.297   4.085
   48CHL1   C27 3549   0.992   2.538   3.964
   48CHL1  H27A 3550   1.084   2.477   3.951
   48CHL1  H27B 3551   0.990   2.616   3.884
   48CHL1  H27C 3552   0.996   2.588   4.063
   49CHL1    C3 3553   3.411   6.820   2.455
   49CHL1    H3 3554   3.319   6.871   2.421
   49CHL1    O3 3555   3.489   6.788   2.339
   49CHL1   H3' 3556   3.518   6.697   2.352
   49CHL1    C4 3557   3.493   6.917   2.544
   49CHL1   H4A 3558   3.598   6.881   2.541
   49CHL1   H4B 3559   3.493   7.015   2.492
   49CHL1    C5 3560   3.455   6.933   2.691
   49CHL1    C6 3561   3.462   7.049   2.757
   49CHL1    H6 3562   3.494   7.140   2.705
   49CHL1    C7 3563   3.440   7.062   2.906
   49CHL1   H7A 3564   3.509   7.135   2.953
   49CHL1   H7B 3565   3.338   7.099   2.922
   49CHL1    C8 3566   3.443   6.930   2.986
   49CHL1    H8 3567   3.547   6.893   2.990
   49CHL1   C14 3568   3.400   6.951   3.134
   49CHL1   H14 3569   3.302   6.999   3.124
   49CHL1   C15 3570   3.480   7.043   3.231
   49CHL1  H15A 3571   3.588   7.024   3.230
   49CHL1  H15B 3572   3.465   7.150   3.209
   49CHL1   C16 3573   3.440   6.999   3.373
   49CHL1  H16A 3574   3.529   6.956   3.425
   49CHL1  H16B 3575   3.402   7.083   3.434
   49CHL1   C17 3576   3.337   6.886   3.353
   49CHL1   H17 3577   3.243   6.938   3.330
   49CHL1   C13 3578   3.376   6.824   3.213
   49CHL1   C18 3579   3.515   6.757   3.227
   49CHL1  H18A 3580   3.520   6.658   3.180
   49CHL1  H18B 3581   3.596   6.815   3.179
   49CHL1  H18C 3582   3.545   6.750   3.333
   49CHL1   C12 3583   3.270   6.744   3.132
   49CHL1  H12A 3584   3.235   6.653   3.183
   49CHL1  H12B 3585   3.180   6.807   3.119
   49CHL1   C11 3586   3.320   6.706   2.991
   49CHL1  H11A 3587   3.408   6.641   3.002
   49CHL1  H11B 3588   3.243   6.647   2.937
   49CHL1    C9 3589   3.355   6.831   2.907
   49CHL1    H9 3590   3.257   6.882   2.891
   49CHL1   C10 3591   3.413   6.806   2.763
   49CHL1   C19 3592   3.548   6.738   2.780
   49CHL1  H19A 3593   3.621   6.796   2.839
   49CHL1  H19B 3594   3.529   6.650   2.841
   49CHL1  H19C 3595   3.597   6.709   2.685
   49CHL1    C1 3596   3.318   6.721   2.673
   49CHL1   H1A 3597   3.296   6.624   2.722
   49CHL1   H1B 3598   3.221   6.774   2.665
   49CHL1    C2 3599   3.373   6.691   2.531
   49CHL1   H2A 3600   3.295   6.636   2.473
   49CHL1   H2B 3601   3.462   6.624   2.540
   49CHL1   C20 3602   3.313   6.798   3.480
   49CHL1   H20 3603   3.407   6.744   3.503
   49CHL1   C21 3604   3.203   6.698   3.439
   49CHL1  H21A 3605   3.137   6.671   3.524
   49CHL1  H21B 3606   3.249   6.605   3.400
   49CHL1  H21C 3607   3.139   6.738   3.358
   49CHL1   C22 3608   3.270   6.868   3.617
   49CHL1  H22A 3609   3.278   6.978   3.604
   49CHL1  H22B 3610   3.162   6.846   3.630
   49CHL1   C23 3611   3.335   6.833   3.757
   49CHL1  H23A 3612   3.396   6.742   3.753
   49CHL1  H23B 3613   3.403   6.918   3.775
   49CHL1   C24 3614   3.237   6.825   3.881
   49CHL1  H24A 3615   3.196   6.928   3.886
   49CHL1  H24B 3616   3.155   6.757   3.851
   49CHL1   C25 3617   3.269   6.795   4.034
   49CHL1   H25 3618   3.311   6.889   4.078
   49CHL1   C26 3619   3.138   6.765   4.110
   49CHL1  H26A 3620   3.158   6.762   4.219
   49CHL1  H26B 3621   3.060   6.839   4.091
   49CHL1  H26C 3622   3.101   6.665   4.080
   49CHL1   C27 3623   3.363   6.681   4.083
   49CHL1  H27A 3624   3.320   6.626   4.170
   49CHL1  H27B 3625   3.391   6.608   4.006
   49CHL1  H27C 3626   3.455   6.725   4.125
   50CHL1    C3 3627   6.882   4.211   2.513
   50CHL1    H3 3628   6.844   4.314   2.530
   50CHL1    O3 3629   6.918   4.197   2.376
   50CHL1   H3' 3630   7.004   4.241   2.365
   50CHL1    C4 3631   7.005   4.185   2.602
   50CHL1   H4A 3632   7.042   4.084   2.574
   50CHL1   H4B 3633   7.085   4.258   2.577
   50CHL1    C5 3634   6.974   4.182   2.750
   50CHL1    C6 3635   7.039   4.259   2.838
   50CHL1    H6 3636   7.119   4.326   2.804
   50CHL1    C7 3637   7.014   4.255   2.986
   50CHL1   H7A 3638   7.111   4.249   3.041
   50CHL1   H7B 3639   6.964   4.349   3.016
   50CHL1    C8 3640   6.925   4.140   3.036
   50CHL1    H8 3641   6.990   4.051   3.054
   50CHL1   C14 3642   6.854   4.183   3.163
   50CHL1   H14 3643   6.784   4.265   3.131
   50CHL1   C15 3644   6.931   4.247   3.280
   50CHL1  H15A 3645   7.019   4.185   3.302
   50CHL1  H15B 3646   6.963   4.351   3.259
   50CHL1   C16 3647   6.832   4.237   3.398
   50CHL1  H16A 3648   6.882   4.182   3.480
   50CHL1  H16B 3649   6.802   4.337   3.435
   50CHL1   C17 3650   6.710   4.156   3.345
   50CHL1   H17 3651   6.639   4.231   3.303
   50CHL1   C13 3652   6.766   4.076   3.226
   50CHL1   C18 3653   6.850   3.958   3.281
   50CHL1  H18A 3654   6.911   3.911   3.201
   50CHL1  H18B 3655   6.919   3.990   3.361
   50CHL1  H18C 3656   6.782   3.881   3.322
   50CHL1   C12 3657   6.666   4.031   3.119
   50CHL1  H12A 3658   6.601   3.952   3.157
   50CHL1  H12B 3659   6.603   4.119   3.094
   50CHL1   C11 3660   6.735   3.984   2.991
   50CHL1  H11A 3661   6.803   3.899   3.015
   50CHL1  H11B 3662   6.660   3.947   2.919
   50CHL1    C9 3663   6.817   4.102   2.934
   50CHL1    H9 3664   6.747   4.190   2.931
   50CHL1   C10 3665   6.861   4.086   2.788
   50CHL1   C19 3666   6.916   3.943   2.772
   50CHL1  H19A 3667   6.837   3.866   2.784
   50CHL1  H19B 3668   6.967   3.924   2.676
   50CHL1  H19C 3669   6.989   3.929   2.854
   50CHL1    C1 3670   6.739   4.108   2.695
   50CHL1   H1A 3671   6.663   4.029   2.714
   50CHL1   H1B 3672   6.692   4.206   2.719
   50CHL1    C2 3673   6.773   4.108   2.545
   50CHL1   H2A 3674   6.682   4.130   2.484
   50CHL1   H2B 3675   6.809   4.007   2.516
   50CHL1   C20 3676   6.634   4.079   3.454
   50CHL1   H20 3677   6.700   4.000   3.497
   50CHL1   C21 3678   6.508   4.008   3.399
   50CHL1  H21A 3679   6.442   3.974   3.482
   50CHL1  H21B 3680   6.536   3.917   3.343
   50CHL1  H21C 3681   6.449   4.076   3.333
   50CHL1   C22 3682   6.591   4.170   3.569
   50CHL1  H22A 3683   6.570   4.274   3.535
   50CHL1  H22B 3684   6.495   4.131   3.609
   50CHL1   C23 3685   6.691   4.169   3.684
   50CHL1  H23A 3686   6.732   4.067   3.699
   50CHL1  H23B 3687   6.776   4.239   3.664
   50CHL1   C24 3688   6.620   4.212   3.811
   50CHL1  H24A 3689   6.594   4.320   3.801
   50CHL1  H24B 3690   6.523   4.158   3.820
   50CHL1   C25 3691   6.697   4.190   3.941
   50CHL1   H25 3692   6.706   4.080   3.960
   50CHL1   C26 3693   6.838   4.250   3.940
   50CHL1  H26A 3694   6.907   4.188   3.878
   50CHL1  H26B 3695   6.836   4.352   3.897
   50CHL1  H26C 3696   6.880   4.255   4.043
   50CHL1   C27 3697   6.607   4.251   4.047
   50CHL1  H27A 3698   6.588   4.356   4.020
   50CHL1  H27B 3699   6.508   4.201   4.039
   50CHL1  H27C 3700   6.647   4.242   4.149
   51CHL1    C3 3701   2.435   0.447   2.501
   51CHL1    H3 3702   2.470   0.342   2.503
   51CHL1    O3 3703   2.404   0.480   2.368
   51CHL1   H3' 3704   2.472   0.542   2.336
   51CHL1    C4 3705   2.306   0.458   2.582
   51CHL1   H4A 3706   2.259   0.557   2.565
   51CHL1   H4B 3707   2.235   0.383   2.541
   51CHL1    C5 3708   2.330   0.438   2.729
   51CHL1    C6 3709   2.269   0.339   2.796
   51CHL1    H6 3710   2.199   0.272   2.743
   51CHL1    C7 3711   2.272   0.330   2.945
   51CHL1   H7A 3712   2.171   0.309   2.985
   51CHL1   H7B 3713   2.341   0.249   2.975
   51CHL1    C8 3714   2.321   0.461   3.011
   51CHL1    H8 3715   2.244   0.541   2.997
   51CHL1   C14 3716   2.337   0.435   3.160
   51CHL1   H14 3717   2.399   0.342   3.168
   51CHL1   C15 3718   2.209   0.407   3.241
   51CHL1  H15A 3719   2.134   0.488   3.221
   51CHL1  H15B 3720   2.162   0.310   3.216
   51CHL1   C16 3721   2.259   0.415   3.386
   51CHL1  H16A 3722   2.190   0.480   3.443
   51CHL1  H16B 3723   2.260   0.314   3.432
   51CHL1   C17 3724   2.403   0.475   3.380
   51CHL1   H17 3725   2.474   0.389   3.380
   51CHL1   C13 3726   2.413   0.540   3.240
   51CHL1   C18 3727   2.334   0.672   3.245
   51CHL1  H18A 3728   2.400   0.753   3.284
   51CHL1  H18B 3729   2.300   0.700   3.143
   51CHL1  H18C 3730   2.244   0.666   3.309
   51CHL1   C12 3731   2.550   0.560   3.171
   51CHL1  H12A 3732   2.615   0.631   3.224
   51CHL1  H12B 3733   2.601   0.462   3.167
   51CHL1   C11 3734   2.533   0.607   3.025
   51CHL1  H11A 3735   2.483   0.706   3.026
   51CHL1  H11B 3736   2.633   0.620   2.980
   51CHL1    C9 3737   2.452   0.503   2.943
   51CHL1    H9 3738   2.516   0.412   2.945
   51CHL1   C10 3739   2.429   0.538   2.793
   51CHL1   C19 3740   2.376   0.683   2.784
   51CHL1  H19A 3741   2.356   0.711   2.678
   51CHL1  H19B 3742   2.282   0.695   2.841
   51CHL1  H19C 3743   2.451   0.755   2.822
   51CHL1    C1 3744   2.561   0.522   2.711
   51CHL1   H1A 3745   2.637   0.593   2.749
   51CHL1   H1B 3746   2.599   0.419   2.729
   51CHL1    C2 3747   2.546   0.537   2.558
   51CHL1   H2A 3748   2.643   0.510   2.509
   51CHL1   H2B 3749   2.525   0.643   2.534
   51CHL1   C20 3750   2.435   0.558   3.505
   51CHL1   H20 3751   2.366   0.646   3.510
   51CHL1   C21 3752   2.579   0.613   3.501
   51CHL1  H21A 3753   2.594   0.679   3.414
   51CHL1  H21B 3754   2.652   0.529   3.498
   51CHL1  H21C 3755   2.601   0.675   3.590
   51CHL1   C22 3756   2.412   0.475   3.633
   51CHL1  H22A 3757   2.304   0.449   3.641
   51CHL1  H22B 3758   2.469   0.380   3.628
   51CHL1   C23 3759   2.449   0.550   3.761
   51CHL1  H23A 3760   2.558   0.574   3.766
   51CHL1  H23B 3761   2.391   0.645   3.762
   51CHL1   C24 3762   2.414   0.472   3.887
   51CHL1  H24A 3763   2.318   0.418   3.868
   51CHL1  H24B 3764   2.491   0.395   3.908
   51CHL1   C25 3765   2.397   0.564   4.008
   51CHL1   H25 3766   2.340   0.654   3.974
   51CHL1   C26 3767   2.310   0.494   4.112
   51CHL1  H26A 3768   2.230   0.436   4.063
   51CHL1  H26B 3769   2.372   0.424   4.171
   51CHL1  H26C 3770   2.263   0.567   4.179
   51CHL1   C27 3771   2.532   0.609   4.065
   51CHL1  H27A 3772   2.588   0.670   3.991
   51CHL1  H27B 3773   2.518   0.668   4.158
   51CHL1  H27C 3774   2.594   0.520   4.089
   52CHL1    C3 3775   6.338   6.163   2.488
   52CHL1    H3 3776   6.341   6.273   2.481
   52CHL1    O3 3777   6.324   6.115   2.356
   52CHL1   H3' 3778   6.315   6.020   2.365
   52CHL1    C4 3779   6.467   6.113   2.554
   52CHL1   H4A 3780   6.466   6.002   2.565
   52CHL1   H4B 3781   6.554   6.134   2.488
   52CHL1    C5 3782   6.481   6.178   2.690
   52CHL1    C6 3783   6.593   6.245   2.723
   52CHL1    H6 3784   6.675   6.250   2.649
   52CHL1    C7 3785   6.619   6.304   2.858
   52CHL1   H7A 3786   6.722   6.280   2.889
   52CHL1   H7B 3787   6.611   6.415   2.857
   52CHL1    C8 3788   6.525   6.243   2.964
   52CHL1    H8 3789   6.561   6.138   2.976
   52CHL1   C14 3790   6.544   6.314   3.096
   52CHL1   H14 3791   6.496   6.415   3.089
   52CHL1   C15 3792   6.690   6.339   3.144
   52CHL1  H15A 3793   6.751   6.248   3.121
   52CHL1  H15B 3794   6.737   6.425   3.093
   52CHL1   C16 3795   6.677   6.357   3.296
   52CHL1  H16A 3796   6.745   6.289   3.351
   52CHL1  H16B 3797   6.700   6.462   3.324
   52CHL1   C17 3798   6.527   6.327   3.329
   52CHL1   H17 3799   6.480   6.426   3.316
   52CHL1   C13 3800   6.479   6.241   3.212
   52CHL1   C18 3801   6.551   6.108   3.235
   52CHL1  H18A 3802   6.519   6.075   3.335
   52CHL1  H18B 3803   6.518   6.034   3.159
   52CHL1  H18C 3804   6.662   6.108   3.240
   52CHL1   C12 3805   6.328   6.214   3.185
   52CHL1  H12A 3806   6.296   6.132   3.252
   52CHL1  H12B 3807   6.263   6.298   3.212
   52CHL1   C11 3808   6.294   6.169   3.041
   52CHL1  H11A 3809   6.312   6.060   3.049
   52CHL1  H11B 3810   6.185   6.184   3.023
   52CHL1    C9 3811   6.376   6.231   2.923
   52CHL1    H9 3812   6.333   6.330   2.908
   52CHL1   C10 3813   6.357   6.167   2.782
   52CHL1   C19 3814   6.342   6.021   2.812
   52CHL1  H19A 3815   6.246   5.999   2.862
   52CHL1  H19B 3816   6.343   5.959   2.722
   52CHL1  H19C 3817   6.427   5.994   2.878
   52CHL1    C1 3818   6.228   6.209   2.706
   52CHL1   H1A 3819   6.138   6.189   2.769
   52CHL1   H1B 3820   6.227   6.318   2.684
   52CHL1    C2 3821   6.214   6.134   2.572
   52CHL1   H2A 3822   6.125   6.170   2.516
   52CHL1   H2B 3823   6.202   6.025   2.586
   52CHL1   C20 3824   6.496   6.288   3.474
   52CHL1   H20 3825   6.554   6.199   3.506
   52CHL1   C21 3826   6.346   6.253   3.492
   52CHL1  H21A 3827   6.313   6.256   3.598
   52CHL1  H21B 3828   6.327   6.150   3.456
   52CHL1  H21C 3829   6.281   6.322   3.435
   52CHL1   C22 3830   6.542   6.404   3.564
   52CHL1  H22A 3831   6.652   6.400   3.568
   52CHL1  H22B 3832   6.514   6.500   3.513
   52CHL1   C23 3833   6.488   6.411   3.706
   52CHL1  H23A 3834   6.528   6.503   3.752
   52CHL1  H23B 3835   6.378   6.422   3.702
   52CHL1   C24 3836   6.524   6.299   3.804
   52CHL1  H24A 3837   6.500   6.200   3.759
   52CHL1  H24B 3838   6.632   6.302   3.828
   52CHL1   C25 3839   6.434   6.325   3.927
   52CHL1   H25 3840   6.404   6.433   3.922
   52CHL1   C26 3841   6.307   6.242   3.917
   52CHL1  H26A 3842   6.334   6.134   3.911
   52CHL1  H26B 3843   6.244   6.260   4.006
   52CHL1  H26C 3844   6.251   6.270   3.825
   52CHL1   C27 3845   6.497   6.311   4.065
   52CHL1  H27A 3846   6.422   6.335   4.143
   52CHL1  H27B 3847   6.538   6.209   4.083
   52CHL1  H27C 3848   6.575   6.389   4.074
   53CHL1    C3 3849   0.511   5.530   2.499
   53CHL1    H3 3850   0.608   5.519   2.555
   53CHL1    O3 3851   0.539   5.520   2.361
   53CHL1   H3' 3852   0.576   5.432   2.346
   53CHL1    C4 3853   0.413   5.419   2.540
   53CHL1   H4A 3854   0.317   5.435   2.487
   53CHL1   H4B 3855   0.453   5.321   2.506
   53CHL1    C5 3856   0.393   5.425   2.689
   53CHL1    C6 3857   0.426   5.318   2.762
   53CHL1    H6 3858   0.462   5.227   2.712
   53CHL1    C7 3859   0.416   5.312   2.910
   53CHL1   H7A 3860   0.362   5.221   2.942
   53CHL1   H7B 3861   0.516   5.305   2.954
   53CHL1    C8 3862   0.345   5.435   2.969
   53CHL1    H8 3863   0.238   5.415   2.958
   53CHL1   C14 3864   0.384   5.454   3.113
   53CHL1   H14 3865   0.479   5.514   3.114
   53CHL1   C15 3866   0.426   5.331   3.195
   53CHL1  H15A 3867   0.372   5.239   3.167
   53CHL1  H15B 3868   0.535   5.311   3.184
   53CHL1   C16 3869   0.391   5.370   3.337
   53CHL1  H16A 3870   0.318   5.294   3.373
   53CHL1  H16B 3871   0.481   5.369   3.403
   53CHL1   C17 3872   0.328   5.513   3.333
   53CHL1   H17 3873   0.413   5.584   3.352
   53CHL1   C13 3874   0.284   5.540   3.188
   53CHL1   C18 3875   0.137   5.492   3.171
   53CHL1  H18A 3876   0.101   5.509   3.068
   53CHL1  H18B 3877   0.127   5.384   3.195
   53CHL1  H18C 3878   0.066   5.550   3.233
   53CHL1   C12 3879   0.301   5.683   3.130
   53CHL1  H12A 3880   0.222   5.750   3.171
   53CHL1  H12B 3881   0.399   5.723   3.160
   53CHL1   C11 3882   0.291   5.684   2.975
   53CHL1  H11A 3883   0.183   5.675   2.953
   53CHL1  H11B 3884   0.324   5.783   2.937
   53CHL1    C9 3885   0.369   5.569   2.900
   53CHL1    H9 3886   0.477   5.593   2.915
   53CHL1   C10 3887   0.348   5.561   2.747
   53CHL1   C19 3888   0.196   5.570   2.717
   53CHL1  H19A 3889   0.156   5.670   2.745
   53CHL1  H19B 3890   0.173   5.556   2.609
   53CHL1  H19C 3891   0.140   5.494   2.775
   53CHL1    C1 3892   0.425   5.680   2.682
   53CHL1   H1A 3893   0.371   5.774   2.703
   53CHL1   H1B 3894   0.525   5.687   2.730
   53CHL1    C2 3895   0.449   5.666   2.530
   53CHL1   H2A 3896   0.516   5.748   2.496
   53CHL1   H2B 3897   0.353   5.675   2.475
   53CHL1   C20 3898   0.223   5.533   3.440
   53CHL1   H20 3899   0.126   5.487   3.412
   53CHL1   C21 3900   0.202   5.685   3.462
   53CHL1  H21A 3901   0.131   5.704   3.545
   53CHL1  H21B 3902   0.162   5.734   3.371
   53CHL1  H21C 3903   0.299   5.734   3.488
   53CHL1   C22 3904   0.257   5.462   3.571
   53CHL1  H22A 3905   0.292   5.357   3.563
   53CHL1  H22B 3906   0.342   5.519   3.613
   53CHL1   C23 3907   0.136   5.458   3.664
   53CHL1  H23A 3908   0.054   5.524   3.629
   53CHL1  H23B 3909   0.095   5.354   3.667
   53CHL1   C24 3910   0.191   5.499   3.799
   53CHL1  H24A 3911   0.234   5.405   3.839
   53CHL1  H24B 3912   0.275   5.571   3.788
   53CHL1   C25 3913   0.104   5.559   3.909
   53CHL1   H25 3914  -0.003   5.528   3.902
   53CHL1   C26 3915   0.172   5.497   4.031
   53CHL1  H26A 3916   0.282   5.514   4.024
   53CHL1  H26B 3917   0.143   5.543   4.124
   53CHL1  H26C 3918   0.153   5.387   4.035
   53CHL1   C27 3919   0.116   5.712   3.908
   53CHL1  H27A 3920   0.071   5.755   3.999
   53CHL1  H27B 3921   0.222   5.744   3.907
   53CHL1  H27C 3922   0.064   5.757   3.821
   54CHL1    C3 3923   0.798   6.249   2.506
   54CHL1    H3 3924   0.873   6.168   2.521
   54CHL1    O3 3925   0.790   6.279   2.367
   54CHL1   H3' 3926   0.734   6.357   2.364
   54CHL1    C4 3927   0.660   6.202   2.556
   54CHL1   H4A 3928   0.585   6.280   2.533
   54CHL1   H4B 3929   0.632   6.112   2.498
   54CHL1    C5 3930   0.661   6.174   2.706
   54CHL1    C6 3931   0.626   6.054   2.754
   54CHL1    H6 3932   0.594   5.975   2.684
   54CHL1    C7 3933   0.622   6.021   2.901
   54CHL1   H7A 3934   0.528   5.968   2.927
   54CHL1   H7B 3935   0.706   5.952   2.925
   54CHL1    C8 3936   0.635   6.146   2.992
   54CHL1    H8 3937   0.538   6.199   2.991
   54CHL1   C14 3938   0.667   6.103   3.135
   54CHL1   H14 3939   0.766   6.051   3.131
   54CHL1   C15 3940   0.570   6.003   3.202
   54CHL1  H15A 3941   0.465   6.031   3.178
   54CHL1  H15B 3942   0.589   5.899   3.167
   54CHL1   C16 3943   0.596   6.021   3.352
   54CHL1  H16A 3944   0.501   6.050   3.402
   54CHL1  H16B 3945   0.634   5.929   3.400
   54CHL1   C17 3946   0.700   6.138   3.367
   54CHL1   H17 3947   0.801   6.092   3.364
   54CHL1   C13 3948   0.684   6.218   3.235
   54CHL1   C18 3949   0.555   6.303   3.245
   54CHL1  H18A 3950   0.526   6.344   3.147
   54CHL1  H18B 3951   0.470   6.244   3.284
   54CHL1  H18C 3952   0.571   6.389   3.313
   54CHL1   C12 3953   0.804   6.302   3.185
   54CHL1  H12A 3954   0.822   6.389   3.251
   54CHL1  H12B 3955   0.895   6.238   3.187
   54CHL1   C11 3956   0.781   6.353   3.041
   54CHL1  H11A 3957   0.700   6.428   3.045
   54CHL1  H11B 3958   0.873   6.405   3.008
   54CHL1    C9 3959   0.745   6.240   2.940
   54CHL1    H9 3960   0.837   6.177   2.933
   54CHL1   C10 3961   0.716   6.289   2.794
   54CHL1   C19 3962   0.609   6.401   2.798
   54CHL1  H19A 3963   0.518   6.368   2.853
   54CHL1  H19B 3964   0.648   6.492   2.848
   54CHL1  H19C 3965   0.578   6.432   2.696
   54CHL1    C1 3966   0.848   6.344   2.732
   54CHL1   H1A 3967   0.878   6.436   2.786
   54CHL1   H1B 3968   0.928   6.269   2.748
   54CHL1    C2 3969   0.840   6.375   2.581
   54CHL1   H2A 3970   0.939   6.409   2.544
   54CHL1   H2B 3971   0.767   6.456   2.564
   54CHL1   C20 3972   0.685   6.210   3.502
   54CHL1   H20 3973   0.579   6.246   3.510
   54CHL1   C21 3974   0.778   6.332   3.512
   54CHL1  H21A 3975   0.883   6.303   3.490
   54CHL1  H21B 3976   0.775   6.375   3.614
   54CHL1  H21C 3977   0.746   6.411   3.442
   54CHL1   C22 3978   0.710   6.117   3.625
   54CHL1  H22A 3979   0.676   6.013   3.605
   54CHL1  H22B 3980   0.819   6.113   3.643
   54CHL1   C23 3981   0.637   6.167   3.752
   54CHL1  H23A 3982   0.650   6.277   3.760
   54CHL1  H23B 3983   0.528   6.146   3.740
   54CHL1   C24 3984   0.687   6.100   3.881
   54CHL1  H24A 3985   0.682   5.990   3.869
   54CHL1  H24B 3986   0.794   6.127   3.897
   54CHL1   C25 3987   0.607   6.139   4.007
   54CHL1   H25 3988   0.501   6.107   3.991
   54CHL1   C26 3989   0.660   6.064   4.131
   54CHL1  H26A 3990   0.655   5.955   4.116
   54CHL1  H26B 3991   0.767   6.089   4.149
   54CHL1  H26C 3992   0.602   6.091   4.221
   54CHL1   C27 3993   0.607   6.290   4.033
   54CHL1  H27A 3994   0.552   6.343   3.952
   54CHL1  H27B 3995   0.558   6.314   4.129
   54CHL1  H27C 3996   0.711   6.329   4.035
   55CHL1    C3 3997   6.946   1.481   2.479
   55CHL1    H3 3998   6.847   1.527   2.503
   55CHL1    O3 3999   6.965   1.472   2.339
   55CHL1   H3' 4000   6.912   1.393   2.316
   55CHL1    C4 4001   7.059   1.567   2.533
   55CHL1   H4A 4002   7.154   1.516   2.510
   55CHL1   H4B 4003   7.058   1.664   2.477
   55CHL1    C5 4004   7.045   1.588   2.681
   55CHL1    C6 4005   7.023   1.710   2.732
   55CHL1    H6 4006   7.020   1.797   2.665
   55CHL1    C7 4007   7.011   1.735   2.878
   55CHL1   H7A 4008   7.068   1.825   2.908
   55CHL1   H7B 4009   6.904   1.752   2.902
   55CHL1    C8 4010   7.057   1.615   2.964
   55CHL1    H8 4011   7.169   1.615   2.966
   55CHL1   C14 4012   7.002   1.636   3.103
   55CHL1   H14 4013   6.890   1.639   3.093
   55CHL1   C15 4014   7.040   1.766   3.171
   55CHL1  H15A 4015   7.150   1.781   3.160
   55CHL1  H15B 4016   6.989   1.854   3.128
   55CHL1   C16 4017   7.003   1.738   3.316
   55CHL1  H16A 4018   7.089   1.769   3.378
   55CHL1  H16B 4019   6.913   1.793   3.350
   55CHL1   C17 4020   6.979   1.585   3.331
   55CHL1   H17 4021   6.868   1.570   3.328
   55CHL1   C13 4022   7.033   1.525   3.201
   55CHL1   C18 4023   7.186   1.511   3.215
   55CHL1  H18A 4024   7.236   1.484   3.120
   55CHL1  H18B 4025   7.233   1.604   3.252
   55CHL1  H18C 4026   7.207   1.433   3.288
   55CHL1   C12 4027   6.962   1.400   3.145
   55CHL1  H12A 4028   6.961   1.315   3.214
   55CHL1  H12B 4029   6.855   1.425   3.127
   55CHL1   C11 4030   7.024   1.365   3.008
   55CHL1  H11A 4031   7.131   1.339   3.020
   55CHL1  H11B 4032   6.976   1.275   2.967
   55CHL1    C9 4033   7.005   1.484   2.908
   55CHL1    H9 4034   6.894   1.498   2.904
   55CHL1   C10 4035   7.050   1.459   2.763
   55CHL1   C19 4036   7.196   1.408   2.763
   55CHL1  H19A 4037   7.208   1.315   2.822
   55CHL1  H19B 4038   7.229   1.386   2.660
   55CHL1  H19C 4039   7.263   1.485   2.805
   55CHL1    C1 4040   6.957   1.354   2.698
   55CHL1   H1A 4041   6.988   1.255   2.738
   55CHL1   H1B 4042   6.852   1.376   2.729
   55CHL1    C2 4043   6.955   1.342   2.544
   55CHL1   H2A 4044   6.869   1.279   2.513
   55CHL1   H2B 4045   7.048   1.292   2.512
   55CHL1   C20 4046   7.029   1.535   3.467
   55CHL1   H20 4047   7.140   1.535   3.470
   55CHL1   C21 4048   6.980   1.391   3.492
   55CHL1  H21A 4049   7.028   1.321   3.421
   55CHL1  H21B 4050   6.870   1.384   3.479
   55CHL1  H21C 4051   7.006   1.358   3.595
   55CHL1   C22 4052   6.980   1.632   3.577
   55CHL1  H22A 4053   7.028   1.731   3.564
   55CHL1  H22B 4054   6.870   1.646   3.566
   55CHL1   C23 4055   7.008   1.599   3.724
   55CHL1  H23A 4056   6.944   1.514   3.757
   55CHL1  H23B 4057   7.114   1.569   3.737
   55CHL1   C24 4058   6.976   1.727   3.804
   55CHL1  H24A 4059   7.061   1.797   3.794
   55CHL1  H24B 4060   6.889   1.777   3.757
   55CHL1   C25 4061   6.947   1.709   3.954
   55CHL1   H25 4062   6.875   1.625   3.968
   55CHL1   C26 4063   7.078   1.673   4.022
   55CHL1  H26A 4064   7.067   1.653   4.130
   55CHL1  H26B 4065   7.114   1.582   3.971
   55CHL1  H26C 4066   7.154   1.752   4.006
   55CHL1   C27 4067   6.883   1.835   4.011
   55CHL1  H27A 4068   6.909   1.857   4.117
   55CHL1  H27B 4069   6.914   1.918   3.952
   55CHL1  H27C 4070   6.774   1.843   3.998
   56CHL1    C3 4071   0.272   6.835   2.500
   56CHL1    H3 4072   0.300   6.942   2.511
   56CHL1    O3 4073   0.315   6.788   2.373
   56CHL1   H3' 4074   0.244   6.812   2.311
   56CHL1    C4 4075   0.343   6.751   2.606
   56CHL1   H4A 4076   0.317   6.644   2.590
   56CHL1   H4B 4077   0.453   6.760   2.591
   56CHL1    C5 4078   0.301   6.792   2.745
   56CHL1    C6 4079   0.394   6.827   2.834
   56CHL1    H6 4080   0.501   6.825   2.807
   56CHL1    C7 4081   0.362   6.859   2.975
   56CHL1   H7A 4082   0.428   6.799   3.043
   56CHL1   H7B 4083   0.376   6.967   2.994
   56CHL1    C8 4084   0.218   6.823   3.014
   56CHL1    H8 4085   0.217   6.712   3.026
   56CHL1   C14 4086   0.187   6.890   3.145
   56CHL1   H14 4087   0.181   7.000   3.127
   56CHL1   C15 4088   0.293   6.873   3.256
   56CHL1  H15A 4089   0.330   6.768   3.255
   56CHL1  H15B 4090   0.378   6.942   3.243
   56CHL1   C16 4091   0.215   6.900   3.384
   56CHL1  H16A 4092   0.237   6.816   3.454
   56CHL1  H16B 4093   0.246   6.995   3.431
   56CHL1   C17 4094   0.064   6.907   3.344
   56CHL1   H17 4095   0.040   7.016   3.336
   56CHL1   C13 4096   0.052   6.849   3.202
   56CHL1   C18 4097   0.043   6.696   3.213
   56CHL1  H18A 4098   0.129   6.654   3.269
   56CHL1  H18B 4099  -0.052   6.663   3.261
   56CHL1  H18C 4100   0.042   6.651   3.112
   56CHL1   C12 4101  -0.054   6.906   3.105
   56CHL1  H12A 4102  -0.156   6.874   3.132
   56CHL1  H12B 4103  -0.051   7.017   3.111
   56CHL1   C11 4104  -0.030   6.861   2.958
   56CHL1  H11A 4105  -0.066   6.756   2.954
   56CHL1  H11B 4106  -0.094   6.921   2.891
   56CHL1    C9 4107   0.118   6.867   2.908
   56CHL1    H9 4108   0.143   6.975   2.896
   56CHL1   C10 4109   0.148   6.797   2.772
   56CHL1   C19 4110   0.095   6.652   2.779
   56CHL1  H19A 4111   0.130   6.604   2.871
   56CHL1  H19B 4112  -0.016   6.651   2.779
   56CHL1  H19C 4113   0.128   6.592   2.692
   56CHL1    C1 4114   0.076   6.867   2.654
   56CHL1   H1A 4115  -0.034   6.850   2.664
   56CHL1   H1B 4116   0.095   6.976   2.657
   56CHL1    C2 4117   0.121   6.819   2.514
   56CHL1   H2A 4118   0.068   6.878   2.436
   56CHL1   H2B 4119   0.093   6.712   2.500
   56CHL1   C20 4120  -0.025   6.847   3.453
   56CHL1   H20 4121  -0.013   6.737   3.458
   56CHL1   C21 4122  -0.171   6.881   3.424
   56CHL1  H21A 4123  -0.187   6.989   3.430
   56CHL1  H21B 4124  -0.239   6.830   3.496
   56CHL1  H21C 4125  -0.200   6.847   3.323
   56CHL1   C22 4126   0.016   6.901   3.591
   56CHL1  H22A 4127   0.113   6.855   3.621
   56CHL1  H22B 4128   0.034   7.010   3.585
   56CHL1   C23 4129  -0.084   6.872   3.703
   56CHL1  H23A 4130  -0.167   6.946   3.703
   56CHL1  H23B 4131  -0.128   6.771   3.690
   56CHL1   C24 4132  -0.006   6.876   3.833
   56CHL1  H24A 4133   0.063   6.789   3.832
   56CHL1  H24B 4134   0.059   6.966   3.839
   56CHL1   C25 4135  -0.087   6.875   3.961
   56CHL1   H25 4136  -0.118   6.980   3.984
   56CHL1   C26 4137  -0.219   6.798   3.958
   56CHL1  H26A 4138  -0.289   6.846   3.887
   56CHL1  H26B 4139  -0.205   6.691   3.931
   56CHL1  H26C 4140  -0.266   6.804   4.059
   56CHL1   C27 4141   0.006   6.824   4.070
   56CHL1  H27A 4142   0.089   6.894   4.088
   56CHL1  H27B 4143  -0.050   6.816   4.164
   56CHL1  H27C 4144   0.051   6.726   4.041
   57SLPC     N 4145   4.111   3.341   6.103
   57SLPC   C13 4146   4.233   3.268   6.154
   57SLPC  H13A 4147   4.262   3.192   6.080
   57SLPC  H13B 4148   4.317   3.334   6.168
   57SLPC  H13C 4149   4.212   3.213   6.244
   57SLPC   C14 4150   4.150   3.397   5.971
   57SLPC  H14A 4151   4.243   3.451   5.977
   57SLPC  H14B 4152   4.174   3.314   5.903
   57SLPC  H14C 4153   4.071   3.452   5.922
   57SLPC   C15 4154   4.072   3.445   6.203
   57SLPC  H15A 4155   4.157   3.504   6.233
   57SLPC  H15B 4156   3.996   3.512   6.164
   57SLPC  H15C 4157   4.032   3.396   6.292
   57SLPC   C12 4158   4.001   3.238   6.083
   57SLPC  H12A 4159   3.906   3.286   6.066
   57SLPC  H12B 4160   3.995   3.178   6.172
   57SLPC   C11 4161   4.022   3.140   5.968
   57SLPC  H11A 4162   3.993   3.196   5.875
   57SLPC  H11B 4163   3.955   3.052   5.977
   57SLPC     P 4164   4.215   3.060   5.823
   57SLPC   O13 4165   4.256   3.192   5.769
   57SLPC   O14 4166   4.316   2.953   5.836
   57SLPC   O12 4167   4.154   3.087   5.966
   57SLPC   O11 4168   4.084   3.010   5.752
   57SLPC    C1 4169   4.023   3.078   5.641
   57SLPC    HA 4170   3.932   3.132   5.674
   57SLPC    HB 4171   4.092   3.152   5.593
   57SLPC    C2 4172   3.983   2.973   5.537
   57SLPC    HS 4173   3.885   2.931   5.568
   57SLPC   O21 4174   4.087   2.877   5.535
   57SLPC   C21 4175   4.055   2.755   5.562
   57SLPC   O22 4176   3.944   2.708   5.574
   57SLPC   C22 4177   4.184   2.676   5.562
   57SLPC   H2R 4178   4.243   2.716   5.647
   57SLPC   H2S 4179   4.162   2.569   5.581
   57SLPC    C3 4180   3.971   3.027   5.394
   57SLPC    HX 4181   3.884   3.095   5.394
   57SLPC    HY 4182   3.950   2.941   5.327
   57SLPC   O31 4183   4.092   3.096   5.356
   57SLPC   C31 4184   4.073   3.171   5.251
   57SLPC   O32 4185   3.971   3.177   5.185
   57SLPC   C32 4186   4.200   3.250   5.222
   57SLPC   H2X 4187   4.224   3.311   5.311
   57SLPC   H2Y 4188   4.176   3.317   5.137
   57SLPC   C23 4189   4.257   2.698   5.429
   57SLPC   H3R 4190   4.361   2.661   5.438
   57SLPC   H3S 4191   4.268   2.807   5.409
   57SLPC   C24 4192   4.195   2.630   5.305
   57SLPC   H4R 4193   4.232   2.526   5.296
   57SLPC   H4S 4194   4.237   2.691   5.223
   57SLPC   C25 4195   4.043   2.627   5.280
   57SLPC   H5R 4196   4.001   2.728   5.294
   57SLPC   H5S 4197   3.993   2.559   5.352
   57SLPC   C26 4198   4.014   2.579   5.137
   57SLPC   H6R 4199   4.058   2.478   5.123
   57SLPC   H6S 4200   4.066   2.647   5.067
   57SLPC   C27 4201   3.866   2.575   5.094
   57SLPC   H7R 4202   3.815   2.492   5.148
   57SLPC   H7S 4203   3.864   2.550   4.985
   57SLPC   C28 4204   3.788   2.706   5.116
   57SLPC   H8R 4205   3.773   2.718   5.226
   57SLPC   H8S 4206   3.686   2.694   5.073
   57SLPC   C29 4207   3.854   2.830   5.061
   57SLPC   H9R 4208   3.899   2.895   5.138
   57SLPC  C210 4209   3.864   2.871   4.933
   57SLPC  H10R 4210   3.916   2.965   4.913
   57SLPC  C211 4211   3.809   2.801   4.811
   57SLPC  H11R 4212   3.729   2.728   4.839
   57SLPC  H11S 4213   3.889   2.741   4.763
   57SLPC  C212 4214   3.753   2.903   4.715
   57SLPC  H12R 4215   3.648   2.930   4.734
   57SLPC  C213 4216   3.815   2.968   4.615
   57SLPC  H13R 4217   3.755   3.034   4.551
   57SLPC  C214 4218   3.959   2.957   4.571
   57SLPC  H14R 4219   4.009   2.868   4.615
   57SLPC  H14S 4220   4.015   3.047   4.605
   57SLPC  C215 4221   3.963   2.950   4.418
   57SLPC  H15R 4222   4.069   2.950   4.384
   57SLPC  H15S 4223   3.920   3.044   4.377
   57SLPC  C216 4224   3.891   2.827   4.359
   57SLPC  H16R 4225   3.873   2.842   4.250
   57SLPC  H16S 4226   3.793   2.809   4.407
   57SLPC  C217 4227   3.982   2.705   4.374
   57SLPC  H17R 4228   4.008   2.696   4.482
   57SLPC  H17S 4229   4.072   2.733   4.315
   57SLPC  C218 4230   3.935   2.569   4.325
   57SLPC  H18R 4231   3.834   2.546   4.363
   57SLPC  H18S 4232   4.006   2.490   4.360
   57SLPC  H18T 4233   3.938   2.567   4.215
   57SLPC   C33 4234   4.315   3.151   5.189
   57SLPC   H3X 4235   4.274   3.061   5.138
   57SLPC   H3Y 4236   4.360   3.117   5.285
   57SLPC   C34 4237   4.425   3.206   5.098
   57SLPC   H4X 4238   4.499   3.124   5.079
   57SLPC   H4Y 4239   4.480   3.287   5.153
   57SLPC   C35 4240   4.379   3.265   4.963
   57SLPC   H5X 4241   4.466   3.281   4.897
   57SLPC   H5Y 4242   4.338   3.363   4.988
   57SLPC   C36 4243   4.263   3.198   4.886
   57SLPC   H6X 4244   4.244   3.259   4.795
   57SLPC   H6Y 4245   4.170   3.200   4.946
   57SLPC   C37 4246   4.290   3.054   4.843
   57SLPC   H7X 4247   4.213   3.023   4.769
   57SLPC   H7Y 4248   4.277   2.988   4.931
   57SLPC   C38 4249   4.430   3.034   4.783
   57SLPC   H8X 4250   4.447   2.924   4.773
   57SLPC   H8Y 4251   4.510   3.069   4.851
   57SLPC   C39 4252   4.446   3.101   4.646
   57SLPC   H9X 4253   4.522   3.182   4.647
   57SLPC   H9Y 4254   4.349   3.150   4.621
   57SLPC  C310 4255   4.478   2.998   4.538
   57SLPC  H10X 4256   4.451   2.898   4.575
   57SLPC  H10Y 4257   4.586   2.993   4.517
   57SLPC  C311 4258   4.402   3.030   4.410
   57SLPC  H11X 4259   4.296   3.057   4.433
   57SLPC  H11Y 4260   4.398   2.942   4.344
   57SLPC  C312 4261   4.476   3.143   4.342
   57SLPC  H12X 4262   4.585   3.133   4.360
   57SLPC  H12Y 4263   4.447   3.238   4.391
   57SLPC  C313 4264   4.460   3.151   4.191
   57SLPC  H13X 4265   4.554   3.121   4.140
   57SLPC  H13Y 4266   4.448   3.260   4.176
   57SLPC  C314 4267   4.340   3.085   4.123
   57SLPC  H14X 4268   4.256   3.073   4.194
   57SLPC  H14Y 4269   4.359   2.983   4.084
   57SLPC  C315 4270   4.296   3.182   4.013
   57SLPC  H15X 4271   4.372   3.189   3.933
   57SLPC  H15Y 4272   4.288   3.284   4.059
   57SLPC  C316 4273   4.159   3.151   3.957
   57SLPC  H16X 4274   4.093   3.120   4.042
   57SLPC  H16Y 4275   4.165   3.066   3.885
   57SLPC  C317 4276   4.101   3.277   3.892
   57SLPC  H17X 4277   4.155   3.298   3.796
   57SLPC  H17Y 4278   4.117   3.364   3.959
   57SLPC  C318 4279   3.952   3.264   3.866
   57SLPC  H18X 4280   3.911   3.359   3.828
   57SLPC  H18Y 4281   3.898   3.238   3.960
   57SLPC  H18Z 4282   3.934   3.185   3.791
   58SLPC     N 4283   4.269   3.806   5.986
   58SLPC   C13 4284   4.389   3.771   5.904
   58SLPC  H13A 4285   4.431   3.675   5.930
   58SLPC  H13B 4286   4.364   3.769   5.799
   58SLPC  H13C 4287   4.467   3.847   5.912
   58SLPC   C14 4288   4.308   3.779   6.128
   58SLPC  H14A 4289   4.387   3.851   6.154
   58SLPC  H14B 4290   4.225   3.797   6.194
   58SLPC  H14C 4291   4.348   3.680   6.141
   58SLPC   C15 4292   4.158   3.719   5.942
   58SLPC  H15A 4293   4.069   3.734   6.003
   58SLPC  H15B 4294   4.131   3.735   5.837
   58SLPC  H15C 4295   4.188   3.616   5.949
   58SLPC   C12 4296   4.234   3.954   5.972
   58SLPC  H12A 4297   4.128   3.966   5.987
   58SLPC  H12B 4298   4.259   3.986   5.872
   58SLPC   C11 4299   4.304   4.057   6.066
   58SLPC  H11A 4300   4.262   4.044   6.168
   58SLPC  H11B 4301   4.277   4.160   6.034
   58SLPC     P 4302   4.543   4.094   5.958
   58SLPC   O13 4303   4.523   4.239   5.948
   58SLPC   O14 4304   4.677   4.036   5.982
   58SLPC   O12 4305   4.446   4.042   6.072
   58SLPC   O11 4306   4.477   4.023   5.833
   58SLPC    C1 4307   4.406   4.095   5.733
   58SLPC    HA 4308   4.333   4.165   5.780
   58SLPC    HB 4309   4.479   4.155   5.674
   58SLPC    C2 4310   4.328   3.999   5.637
   58SLPC    HS 4311   4.283   3.920   5.701
   58SLPC   O21 4312   4.421   3.948   5.540
   58SLPC   C21 4313   4.446   3.819   5.547
   58SLPC   O22 4314   4.393   3.740   5.623
   58SLPC   C22 4315   4.531   3.776   5.431
   58SLPC   H2R 4316   4.620   3.843   5.424
   58SLPC   H2S 4317   4.564   3.672   5.446
   58SLPC    C3 4318   4.205   4.064   5.565
   58SLPC    HX 4319   4.157   4.141   5.629
   58SLPC    HY 4320   4.132   3.982   5.552
   58SLPC   O31 4321   4.228   4.112   5.432
   58SLPC   C31 4322   4.310   4.214   5.422
   58SLPC   O32 4323   4.348   4.285   5.514
   58SLPC   C32 4324   4.364   4.220   5.282
   58SLPC   H2X 4325   4.356   4.322   5.241
   58SLPC   H2Y 4326   4.308   4.149   5.218
   58SLPC   C23 4327   4.445   3.790   5.305
   58SLPC   H3R 4328   4.506   3.767   5.215
   58SLPC   H3S 4329   4.413   3.896   5.302
   58SLPC   C24 4330   4.316   3.708   5.302
   58SLPC   H4R 4331   4.242   3.756   5.371
   58SLPC   H4S 4332   4.333   3.604   5.338
   58SLPC   C25 4333   4.260   3.706   5.159
   58SLPC   H5R 4334   4.275   3.805   5.111
   58SLPC   H5S 4335   4.150   3.686   5.161
   58SLPC   C26 4336   4.327   3.595   5.078
   58SLPC   H6R 4337   4.267   3.504   5.101
   58SLPC   H6S 4338   4.428   3.578   5.121
   58SLPC   C27 4339   4.348   3.616   4.926
   58SLPC   H7R 4340   4.376   3.520   4.877
   58SLPC   H7S 4341   4.437   3.681   4.914
   58SLPC   C28 4342   4.227   3.667   4.846
   58SLPC   H8R 4343   4.158   3.715   4.918
   58SLPC   H8S 4344   4.169   3.581   4.805
   58SLPC   C29 4345   4.266   3.761   4.735
   58SLPC   H9R 4346   4.320   3.718   4.649
   58SLPC  C210 4347   4.250   3.894   4.741
   58SLPC  H10R 4348   4.288   3.955   4.659
   58SLPC  C211 4349   4.193   3.971   4.858
   58SLPC  H11R 4350   4.278   4.006   4.920
   58SLPC  H11S 4351   4.134   3.908   4.928
   58SLPC  C212 4352   4.108   4.089   4.821
   58SLPC  H12R 4353   4.003   4.083   4.848
   58SLPC  C213 4354   4.146   4.196   4.753
   58SLPC  H13R 4355   4.071   4.270   4.721
   58SLPC  C214 4356   4.285   4.215   4.703
   58SLPC  H14R 4357   4.361   4.152   4.754
   58SLPC  H14S 4358   4.316   4.320   4.710
   58SLPC  C215 4359   4.282   4.187   4.555
   58SLPC  H15R 4360   4.246   4.282   4.511
   58SLPC  H15S 4361   4.212   4.105   4.527
   58SLPC  C216 4362   4.418   4.151   4.497
   58SLPC  H16R 4363   4.442   4.046   4.525
   58SLPC  H16S 4364   4.497   4.217   4.538
   58SLPC  C217 4365   4.411   4.165   4.346
   58SLPC  H17R 4366   4.325   4.105   4.307
   58SLPC  H17S 4367   4.503   4.122   4.305
   58SLPC  C218 4368   4.397   4.310   4.299
   58SLPC  H18R 4369   4.312   4.364   4.343
   58SLPC  H18S 4370   4.382   4.308   4.190
   58SLPC  H18T 4371   4.489   4.368   4.321
   58SLPC   C33 4372   4.510   4.182   5.299
   58SLPC   H3X 4373   4.521   4.089   5.360
   58SLPC   H3Y 4374   4.565   4.264   5.352
   58SLPC   C34 4375   4.579   4.154   5.167
   58SLPC   H4X 4376   4.679   4.116   5.195
   58SLPC   H4Y 4377   4.592   4.248   5.111
   58SLPC   C35 4378   4.511   4.047   5.081
   58SLPC   H5X 4379   4.439   4.096   5.013
   58SLPC   H5Y 4380   4.449   3.978   5.139
   58SLPC   C36 4381   4.615   3.964   5.006
   58SLPC   H6X 4382   4.630   3.866   5.057
   58SLPC   H6Y 4383   4.714   4.015   5.004
   58SLPC   C37 4384   4.569   3.943   4.863
   58SLPC   H7X 4385   4.556   4.036   4.804
   58SLPC   H7Y 4386   4.469   3.896   4.873
   58SLPC   C38 4387   4.657   3.847   4.786
   58SLPC   H8X 4388   4.587   3.802   4.712
   58SLPC   H8Y 4389   4.694   3.768   4.854
   58SLPC   C39 4390   4.774   3.908   4.706
   58SLPC   H9X 4391   4.845   3.825   4.685
   58SLPC   H9Y 4392   4.829   3.984   4.765
   58SLPC  C310 4393   4.727   3.965   4.571
   58SLPC  H10X 4394   4.689   4.068   4.584
   58SLPC  H10Y 4395   4.643   3.902   4.533
   58SLPC  C311 4396   4.838   3.961   4.466
   58SLPC  H11X 4397   4.890   3.863   4.470
   58SLPC  H11Y 4398   4.912   4.040   4.492
   58SLPC  C312 4399   4.791   3.987   4.322
   58SLPC  H12X 4400   4.882   4.012   4.263
   58SLPC  H12Y 4401   4.722   4.073   4.319
   58SLPC  C313 4402   4.729   3.866   4.251
   58SLPC  H13X 4403   4.755   3.771   4.301
   58SLPC  H13Y 4404   4.770   3.863   4.147
   58SLPC  C314 4405   4.579   3.880   4.231
   58SLPC  H14X 4406   4.560   3.977   4.182
   58SLPC  H14Y 4407   4.528   3.879   4.329
   58SLPC  C315 4408   4.528   3.773   4.137
   58SLPC  H15X 4409   4.561   3.673   4.174
   58SLPC  H15Y 4410   4.575   3.789   4.037
   58SLPC  C316 4411   4.376   3.773   4.123
   58SLPC  H16X 4412   4.350   3.757   4.016
   58SLPC  H16Y 4413   4.335   3.873   4.153
   58SLPC  C317 4414   4.312   3.666   4.210
   58SLPC  H17X 4415   4.374   3.573   4.203
   58SLPC  H17Y 4416   4.213   3.639   4.169
   58SLPC  C318 4417   4.298   3.710   4.356
   58SLPC  H18X 4418   4.340   3.811   4.371
   58SLPC  H18Y 4419   4.352   3.639   4.422
   58SLPC  H18Z 4420   4.192   3.712   4.388
   59SLPC     N 4421   2.474   4.279   6.070
   59SLPC   C13 4422   2.456   4.152   5.992
   59SLPC  H13A 4423   2.434   4.068   6.057
   59SLPC  H13B 4424   2.371   4.165   5.924
   59SLPC  H13C 4425   2.544   4.124   5.937
   59SLPC   C14 4426   2.526   4.385   5.977
   59SLPC  H14A 4427   2.458   4.392   5.892
   59SLPC  H14B 4428   2.526   4.480   6.028
   59SLPC  H14C 4429   2.625   4.363   5.941
   59SLPC   C15 4430   2.568   4.251   6.183
   59SLPC  H15A 4431   2.528   4.173   6.248
   59SLPC  H15B 4432   2.662   4.210   6.148
   59SLPC  H15C 4433   2.584   4.339   6.243
   59SLPC   C12 4434   2.340   4.323   6.126
   59SLPC  H12A 4435   2.357   4.404   6.196
   59SLPC  H12B 4436   2.298   4.239   6.181
   59SLPC   C11 4437   2.233   4.366   6.025
   59SLPC  H11A 4438   2.275   4.440   5.952
   59SLPC  H11B 4439   2.149   4.417   6.077
   59SLPC     P 4440   2.095   4.261   5.832
   59SLPC   O13 4441   2.169   4.202   5.719
   59SLPC   O14 4442   1.964   4.204   5.868
   59SLPC   O12 4443   2.184   4.249   5.961
   59SLPC   O11 4444   2.083   4.418   5.817
   59SLPC    C1 4445   1.965   4.497   5.816
   59SLPC    HA 4446   1.873   4.436   5.834
   59SLPC    HB 4447   1.971   4.573   5.896
   59SLPC    C2 4448   1.947   4.576   5.682
   59SLPC    HS 4449   1.854   4.638   5.690
   59SLPC   O21 4450   1.938   4.486   5.570
   59SLPC   C21 4451   1.823   4.422   5.570
   59SLPC   O22 4452   1.722   4.459   5.628
   59SLPC   C22 4453   1.829   4.295   5.485
   59SLPC   H2R 4454   1.897   4.223   5.535
   59SLPC   H2S 4455   1.727   4.253   5.488
   59SLPC    C3 4456   2.060   4.679   5.654
   59SLPC    HX 4457   2.053   4.762   5.727
   59SLPC    HY 4458   2.037   4.720   5.552
   59SLPC   O31 4459   2.189   4.617   5.664
   59SLPC   C31 4460   2.271   4.645   5.566
   59SLPC   O32 4461   2.262   4.740   5.490
   59SLPC   C32 4462   2.377   4.538   5.555
   59SLPC   H2X 4463   2.329   4.438   5.565
   59SLPC   H2Y 4464   2.449   4.552   5.639
   59SLPC   C23 4465   1.867   4.316   5.338
   59SLPC   H3R 4466   1.813   4.403   5.294
   59SLPC   H3S 4467   1.835   4.225   5.281
   59SLPC   C24 4468   2.018   4.329   5.319
   59SLPC   H4R 4469   2.068   4.254   5.384
   59SLPC   H4S 4470   2.052   4.429   5.353
   59SLPC   C25 4471   2.061   4.304   5.175
   59SLPC   H5R 4472   2.038   4.198   5.150
   59SLPC   H5S 4473   2.171   4.315   5.169
   59SLPC   C26 4474   1.992   4.394   5.070
   59SLPC   H6R 4475   1.884   4.368   5.065
   59SLPC   H6S 4476   2.037   4.368   4.971
   59SLPC   C27 4477   2.006   4.546   5.092
   59SLPC   H7R 4478   2.113   4.574   5.089
   59SLPC   H7S 4479   1.969   4.573   5.194
   59SLPC   C28 4480   1.929   4.632   4.989
   59SLPC   H8R 4481   1.971   4.735   4.992
   59SLPC   H8S 4482   1.825   4.638   5.026
   59SLPC   C29 4483   1.923   4.575   4.850
   59SLPC   H9R 4484   1.888   4.471   4.846
   59SLPC  C210 4485   1.945   4.637   4.733
   59SLPC  H10R 4486   1.936   4.577   4.641
   59SLPC  C211 4487   1.982   4.781   4.709
   59SLPC  H11R 4488   1.978   4.842   4.802
   59SLPC  H11S 4489   1.908   4.827   4.640
   59SLPC  C212 4490   2.118   4.788   4.648
   59SLPC  H12R 4491   2.200   4.784   4.721
   59SLPC  C213 4492   2.148   4.793   4.518
   59SLPC  H13R 4493   2.254   4.799   4.489
   59SLPC  C214 4494   2.051   4.791   4.403
   59SLPC  H14R 4495   2.042   4.893   4.359
   59SLPC  H14S 4496   1.949   4.761   4.436
   59SLPC  C215 4497   2.097   4.693   4.292
   59SLPC  H15R 4498   2.020   4.693   4.212
   59SLPC  H15S 4499   2.100   4.590   4.335
   59SLPC  C216 4500   2.233   4.729   4.231
   59SLPC  H16R 4501   2.312   4.726   4.309
   59SLPC  H16S 4502   2.229   4.834   4.193
   59SLPC  C217 4503   2.279   4.636   4.118
   59SLPC  H17R 4504   2.368   4.682   4.070
   59SLPC  H17S 4505   2.200   4.626   4.041
   59SLPC  C218 4506   2.319   4.499   4.170
   59SLPC  H18R 4507   2.363   4.435   4.091
   59SLPC  H18S 4508   2.233   4.445   4.217
   59SLPC  H18T 4509   2.397   4.514   4.248
   59SLPC   C33 4510   2.449   4.554   5.420
   59SLPC   H3X 4511   2.525   4.473   5.413
   59SLPC   H3Y 4512   2.503   4.651   5.415
   59SLPC   C34 4513   2.355   4.545   5.297
   59SLPC   H4X 4514   2.289   4.634   5.286
   59SLPC   H4Y 4515   2.290   4.455   5.308
   59SLPC   C35 4516   2.439   4.534   5.172
   59SLPC   H5X 4517   2.498   4.443   5.194
   59SLPC   H5Y 4518   2.509   4.620   5.162
   59SLPC   C36 4519   2.369   4.505   5.040
   59SLPC   H6X 4520   2.338   4.599   4.989
   59SLPC   H6Y 4521   2.278   4.445   5.059
   59SLPC   C37 4522   2.463   4.422   4.952
   59SLPC   H7X 4523   2.530   4.361   5.016
   59SLPC   H7Y 4524   2.528   4.492   4.895
   59SLPC   C38 4525   2.396   4.323   4.858
   59SLPC   H8X 4526   2.481   4.275   4.802
   59SLPC   H8Y 4527   2.332   4.377   4.786
   59SLPC   C39 4528   2.316   4.208   4.923
   59SLPC   H9X 4529   2.219   4.247   4.959
   59SLPC   H9Y 4530   2.371   4.166   5.010
   59SLPC  C310 4531   2.291   4.098   4.818
   59SLPC  H10X 4532   2.390   4.058   4.786
   59SLPC  H10Y 4533   2.246   4.148   4.729
   59SLPC  C311 4534   2.201   3.979   4.858
   59SLPC  H11X 4535   2.250   3.920   4.938
   59SLPC  H11Y 4536   2.194   3.915   4.767
   59SLPC  C312 4537   2.055   4.010   4.892
   59SLPC  H12X 4538   2.050   4.078   4.979
   59SLPC  H12Y 4539   2.006   3.914   4.921
   59SLPC  C313 4540   1.982   4.069   4.770
   59SLPC  H13X 4541   1.985   3.994   4.688
   59SLPC  H13Y 4542   2.036   4.160   4.736
   59SLPC  C314 4543   1.836   4.106   4.793
   59SLPC  H14X 4544   1.827   4.180   4.877
   59SLPC  H14Y 4545   1.788   4.011   4.822
   59SLPC  C315 4546   1.761   4.158   4.669
   59SLPC  H15X 4547   1.658   4.188   4.699
   59SLPC  H15Y 4548   1.750   4.074   4.597
   59SLPC  C316 4549   1.831   4.275   4.599
   59SLPC  H16X 4550   1.929   4.240   4.558
   59SLPC  H16Y 4551   1.852   4.355   4.673
   59SLPC  C317 4552   1.748   4.332   4.485
   59SLPC  H17X 4553   1.656   4.378   4.528
   59SLPC  H17Y 4554   1.716   4.245   4.423
   59SLPC  C318 4555   1.817   4.435   4.394
   59SLPC  H18X 4556   1.901   4.389   4.338
   59SLPC  H18Y 4557   1.856   4.521   4.453
   59SLPC  H18Z 4558   1.745   4.477   4.320
   60SLPC     N 4559   6.183   4.228   6.057
   60SLPC   C13 4560   6.312   4.244   6.127
   60SLPC  H13A 4561   6.314   4.324   6.200
   60SLPC  H13B 4562   6.343   4.154   6.179
   60SLPC  H13C 4563   6.395   4.263   6.059
   60SLPC   C14 4564   6.079   4.200   6.158
   60SLPC  H14A 4565   5.996   4.143   6.114
   60SLPC  H14B 4566   6.116   4.147   6.244
   60SLPC  H14C 4567   6.033   4.293   6.191
   60SLPC   C15 4568   6.192   4.113   5.963
   60SLPC  H15A 4569   6.096   4.107   5.910
   60SLPC  H15B 4570   6.270   4.123   5.890
   60SLPC  H15C 4571   6.204   4.019   6.016
   60SLPC   C12 4572   6.147   4.355   5.981
   60SLPC  H12A 4573   6.229   4.381   5.915
   60SLPC  H12B 4574   6.138   4.436   6.052
   60SLPC   C11 4575   6.016   4.357   5.897
   60SLPC  H11A 4576   6.021   4.286   5.813
   60SLPC  H11B 4577   6.012   4.458   5.850
   60SLPC     P 4578   5.800   4.215   5.968
   60SLPC   O13 4579   5.753   4.191   6.107
   60SLPC   O14 4580   5.706   4.241   5.858
   60SLPC   O12 4581   5.899   4.340   5.978
   60SLPC   O11 4582   5.903   4.100   5.923
   60SLPC    C1 4583   5.873   4.010   5.813
   60SLPC    HA 4584   5.839   3.913   5.856
   60SLPC    HB 4585   5.790   4.048   5.748
   60SLPC    C2 4586   5.994   3.983   5.716
   60SLPC    HS 4587   6.070   3.927   5.775
   60SLPC   O21 4588   6.049   4.108   5.669
   60SLPC   C21 4589   6.156   4.095   5.592
   60SLPC   O22 4590   6.244   4.011   5.607
   60SLPC   C22 4591   6.146   4.194   5.476
   60SLPC   H2R 4592   6.038   4.202   5.450
   60SLPC   H2S 4593   6.180   4.293   5.513
   60SLPC    C3 4594   5.954   3.897   5.592
   60SLPC    HX 4595   5.915   3.800   5.628
   60SLPC    HY 4596   6.045   3.871   5.534
   60SLPC   O31 4597   5.862   3.968   5.505
   60SLPC   C31 4598   5.752   3.903   5.468
   60SLPC   O32 4599   5.721   3.792   5.503
   60SLPC   C32 4600   5.665   3.983   5.375
   60SLPC   H2X 4601   5.580   4.019   5.436
   60SLPC   H2Y 4602   5.623   3.914   5.300
   60SLPC   C23 4603   6.226   4.152   5.351
   60SLPC   H3R 4604   6.191   4.052   5.315
   60SLPC   H3S 4605   6.334   4.142   5.376
   60SLPC   C24 4606   6.210   4.254   5.236
   60SLPC   H4R 4607   6.219   4.357   5.278
   60SLPC   H4S 4608   6.110   4.244   5.195
   60SLPC   C25 4609   6.302   4.240   5.115
   60SLPC   H5R 4610   6.284   4.143   5.064
   60SLPC   H5S 4611   6.408   4.240   5.150
   60SLPC   C26 4612   6.286   4.355   5.012
   60SLPC   H6R 4613   6.368   4.345   4.939
   60SLPC   H6S 4614   6.299   4.452   5.065
   60SLPC   C27 4615   6.156   4.361   4.930
   60SLPC   H7R 4616   6.163   4.444   4.855
   60SLPC   H7S 4617   6.072   4.386   4.998
   60SLPC   C28 4618   6.117   4.232   4.856
   60SLPC   H8R 4619   6.022   4.253   4.800
   60SLPC   H8S 4620   6.089   4.162   4.937
   60SLPC   C29 4621   6.212   4.164   4.761
   60SLPC   H9R 4622   6.249   4.225   4.677
   60SLPC  C210 4623   6.252   4.035   4.770
   60SLPC  H10R 4624   6.317   3.993   4.691
   60SLPC  C211 4625   6.209   3.934   4.875
   60SLPC  H11R 4626   6.168   3.982   4.966
   60SLPC  H11S 4627   6.300   3.882   4.910
   60SLPC  C212 4628   6.112   3.830   4.828
   60SLPC  H12R 4629   6.151   3.727   4.837
   60SLPC  C213 4630   5.986   3.843   4.781
   60SLPC  H13R 4631   5.937   3.753   4.745
   60SLPC  C214 4632   5.898   3.961   4.756
   60SLPC  H14R 4633   5.936   4.048   4.813
   60SLPC  H14S 4634   5.797   3.940   4.797
   60SLPC  C215 4635   5.884   4.002   4.608
   60SLPC  H15R 4636   5.976   4.059   4.581
   60SLPC  H15S 4637   5.798   4.071   4.602
   60SLPC  C216 4638   5.857   3.894   4.500
   60SLPC  H16R 4639   5.749   3.891   4.476
   60SLPC  H16S 4640   5.891   3.797   4.540
   60SLPC  C217 4641   5.942   3.912   4.373
   60SLPC  H17R 4642   6.044   3.884   4.402
   60SLPC  H17S 4643   5.947   4.018   4.349
   60SLPC  C218 4644   5.904   3.841   4.243
   60SLPC  H18R 4645   5.938   3.902   4.156
   60SLPC  H18S 4646   5.795   3.825   4.233
   60SLPC  H18T 4647   5.957   3.744   4.235
   60SLPC   C33 4648   5.731   4.103   5.309
   60SLPC   H3X 4649   5.797   4.162   5.377
   60SLPC   H3Y 4650   5.648   4.172   5.281
   60SLPC   C34 4651   5.802   4.062   5.181
   60SLPC   H4X 4652   5.732   4.010   5.112
   60SLPC   H4Y 4653   5.883   3.989   5.204
   60SLPC   C35 4654   5.858   4.187   5.113
   60SLPC   H5X 4655   5.911   4.159   5.020
   60SLPC   H5Y 4656   5.927   4.231   5.188
   60SLPC   C36 4657   5.755   4.298   5.085
   60SLPC   H6X 4658   5.804   4.386   5.039
   60SLPC   H6Y 4659   5.715   4.334   5.183
   60SLPC   C37 4660   5.637   4.251   5.001
   60SLPC   H7X 4661   5.555   4.326   5.003
   60SLPC   H7Y 4662   5.599   4.159   5.051
   60SLPC   C38 4663   5.667   4.211   4.856
   60SLPC   H8X 4664   5.586   4.145   4.821
   60SLPC   H8Y 4665   5.763   4.156   4.853
   60SLPC   C39 4666   5.673   4.328   4.758
   60SLPC   H9X 4667   5.767   4.383   4.782
   60SLPC   H9Y 4668   5.584   4.393   4.773
   60SLPC  C310 4669   5.683   4.291   4.608
   60SLPC  H10X 4670   5.620   4.204   4.581
   60SLPC  H10Y 4671   5.790   4.265   4.594
   60SLPC  C311 4672   5.650   4.414   4.522
   60SLPC  H11X 4673   5.703   4.493   4.578
   60SLPC  H11Y 4674   5.542   4.436   4.522
   60SLPC  C312 4675   5.711   4.431   4.382
   60SLPC  H12X 4676   5.709   4.540   4.360
   60SLPC  H12Y 4677   5.652   4.385   4.300
   60SLPC  C313 4678   5.856   4.386   4.373
   60SLPC  H13X 4679   5.903   4.387   4.473
   60SLPC  H13Y 4680   5.912   4.459   4.313
   60SLPC  C314 4681   5.874   4.251   4.305
   60SLPC  H14X 4682   5.807   4.243   4.216
   60SLPC  H14Y 4683   5.841   4.174   4.377
   60SLPC  C315 4684   6.019   4.233   4.258
   60SLPC  H15X 4685   6.047   4.323   4.199
   60SLPC  H15Y 4686   6.027   4.145   4.190
   60SLPC  C316 4687   6.116   4.218   4.376
   60SLPC  H16X 4688   6.102   4.121   4.427
   60SLPC  H16Y 4689   6.096   4.297   4.452
   60SLPC  C317 4690   6.263   4.230   4.340
   60SLPC  H17X 4691   6.315   4.207   4.434
   60SLPC  H17Y 4692   6.286   4.335   4.308
   60SLPC  C318 4693   6.319   4.134   4.237
   60SLPC  H18X 4694   6.337   4.035   4.282
   60SLPC  H18Y 4695   6.419   4.168   4.206
   60SLPC  H18Z 4696   6.253   4.122   4.149
   61SLPC     N 4697   6.453   2.969   5.976
   61SLPC   C13 4698   6.467   2.820   5.983
   61SLPC  H13A 4699   6.498   2.785   6.080
   61SLPC  H13B 4700   6.367   2.777   5.962
   61SLPC  H13C 4701   6.530   2.780   5.905
   61SLPC   C14 4702   6.405   3.001   5.837
   61SLPC  H14A 4703   6.467   2.954   5.761
   61SLPC  H14B 4704   6.304   2.959   5.826
   61SLPC  H14C 4705   6.399   3.107   5.819
   61SLPC   C15 4706   6.583   3.035   6.002
   61SLPC  H15A 4707   6.622   3.007   6.099
   61SLPC  H15B 4708   6.654   3.004   5.926
   61SLPC  H15C 4709   6.574   3.143   5.998
   61SLPC   C12 4710   6.345   3.014   6.075
   61SLPC  H12A 4711   6.311   3.113   6.046
   61SLPC  H12B 4712   6.386   3.021   6.175
   61SLPC   C11 4713   6.220   2.924   6.083
   61SLPC  H11A 4714   6.143   2.974   6.146
   61SLPC  H11B 4715   6.250   2.831   6.137
   61SLPC     P 4716   6.104   2.760   5.924
   61SLPC   O13 4717   6.212   2.671   5.877
   61SLPC   O14 4718   6.027   2.720   6.045
   61SLPC   O12 4719   6.166   2.902   5.953
   61SLPC   O11 4720   6.005   2.793   5.808
   61SLPC    C1 4721   6.023   2.903   5.718
   61SLPC    HA 4722   6.011   3.000   5.771
   61SLPC    HB 4723   6.123   2.900   5.669
   61SLPC    C2 4724   5.914   2.888   5.611
   61SLPC    HS 4725   5.821   2.870   5.670
   61SLPC   O21 4726   5.954   2.775   5.533
   61SLPC   C21 4727   5.853   2.706   5.491
   61SLPC   O22 4728   5.735   2.724   5.516
   61SLPC   C22 4729   5.905   2.594   5.405
   61SLPC   H2R 4730   6.015   2.588   5.416
   61SLPC   H2S 4731   5.854   2.503   5.444
   61SLPC    C3 4732   5.884   3.006   5.514
   61SLPC    HX 4733   5.878   3.100   5.572
   61SLPC    HY 4734   5.781   2.989   5.474
   61SLPC   O31 4735   5.970   3.014   5.398
   61SLPC   C31 4736   6.090   3.066   5.413
   61SLPC   O32 4737   6.138   3.105   5.518
   61SLPC   C32 4738   6.158   3.078   5.277
   61SLPC   H2X 4739   6.201   3.181   5.273
   61SLPC   H2Y 4740   6.084   3.069   5.196
   61SLPC   C23 4741   5.870   2.606   5.257
   61SLPC   H3R 4742   5.945   2.550   5.197
   61SLPC   H3S 4743   5.876   2.712   5.227
   61SLPC   C24 4744   5.736   2.539   5.228
   61SLPC   H4R 4745   5.657   2.586   5.291
   61SLPC   H4S 4746   5.743   2.433   5.259
   61SLPC   C25 4747   5.696   2.546   5.081
   61SLPC   H5R 4748   5.588   2.523   5.069
   61SLPC   H5S 4749   5.754   2.472   5.021
   61SLPC   C26 4750   5.725   2.687   5.037
   61SLPC   H6R 4751   5.834   2.704   5.022
   61SLPC   H6S 4752   5.695   2.752   5.123
   61SLPC   C27 4753   5.652   2.737   4.915
   61SLPC   H7R 4754   5.545   2.714   4.929
   61SLPC   H7S 4755   5.685   2.689   4.821
   61SLPC   C28 4756   5.678   2.888   4.912
   61SLPC   H8R 4757   5.784   2.901   4.878
   61SLPC   H8S 4758   5.675   2.931   5.014
   61SLPC   C29 4759   5.578   2.957   4.826
   61SLPC   H9R 4760   5.471   2.938   4.844
   61SLPC  C210 4761   5.613   3.049   4.737
   61SLPC  H10R 4762   5.534   3.093   4.674
   61SLPC  C211 4763   5.756   3.091   4.715
   61SLPC  H11R 4764   5.815   3.020   4.653
   61SLPC  H11S 4765   5.812   3.104   4.811
   61SLPC  C212 4766   5.738   3.223   4.649
   61SLPC  H12R 4767   5.747   3.306   4.717
   61SLPC  C213 4768   5.725   3.251   4.520
   61SLPC  H13R 4769   5.708   3.354   4.488
   61SLPC  C214 4770   5.731   3.160   4.405
   61SLPC  H14R 4771   5.679   3.212   4.324
   61SLPC  H14S 4772   5.675   3.067   4.420
   61SLPC  C215 4773   5.880   3.134   4.377
   61SLPC  H15R 4774   5.915   3.044   4.431
   61SLPC  H15S 4775   5.946   3.218   4.413
   61SLPC  C216 4776   5.905   3.125   4.228
   61SLPC  H16R 4777   5.851   3.036   4.190
   61SLPC  H16S 4778   6.013   3.106   4.212
   61SLPC  C217 4779   5.847   3.250   4.158
   61SLPC  H17R 4780   5.840   3.331   4.233
   61SLPC  H17S 4781   5.743   3.225   4.129
   61SLPC  C218 4782   5.911   3.315   4.038
   61SLPC  H18R 4783   5.984   3.394   4.067
   61SLPC  H18S 4784   5.831   3.363   3.979
   61SLPC  H18T 4785   5.958   3.243   3.969
   61SLPC   C33 4786   6.274   2.978   5.259
   61SLPC   H3X 4787   6.349   2.991   5.340
   61SLPC   H3Y 4788   6.327   3.002   5.163
   61SLPC   C34 4789   6.228   2.832   5.253
   61SLPC   H4X 4790   6.180   2.807   5.351
   61SLPC   H4Y 4791   6.317   2.766   5.243
   61SLPC   C35 4792   6.129   2.798   5.141
   61SLPC   H5X 4793   6.035   2.857   5.153
   61SLPC   H5Y 4794   6.104   2.692   5.161
   61SLPC   C36 4795   6.180   2.813   4.996
   61SLPC   H6X 4796   6.280   2.765   4.989
   61SLPC   H6Y 4797   6.193   2.921   4.974
   61SLPC   C37 4798   6.087   2.751   4.889
   61SLPC   H7X 4799   6.128   2.772   4.787
   61SLPC   H7Y 4800   5.987   2.799   4.896
   61SLPC   C38 4801   6.071   2.599   4.904
   61SLPC   H8X 4802   6.055   2.577   5.012
   61SLPC   H8Y 4803   6.167   2.550   4.876
   61SLPC   C39 4804   5.952   2.532   4.835
   61SLPC   H9X 4805   5.859   2.586   4.856
   61SLPC   H9Y 4806   5.936   2.430   4.878
   61SLPC  C310 4807   5.961   2.513   4.685
   61SLPC  H10X 4808   6.058   2.465   4.662
   61SLPC  H10Y 4809   5.959   2.612   4.634
   61SLPC  C311 4810   5.846   2.424   4.634
   61SLPC  H11X 4811   5.758   2.485   4.605
   61SLPC  H11Y 4812   5.812   2.356   4.716
   61SLPC  C312 4813   5.892   2.337   4.516
   61SLPC  H12X 4814   5.821   2.253   4.499
   61SLPC  H12Y 4815   5.989   2.295   4.547
   61SLPC  C313 4816   5.912   2.421   4.390
   61SLPC  H13X 4817   5.933   2.521   4.434
   61SLPC  H13Y 4818   5.817   2.429   4.332
   61SLPC  C314 4819   6.033   2.400   4.297
   61SLPC  H14X 4820   6.006   2.347   4.204
   61SLPC  H14Y 4821   6.115   2.344   4.344
   61SLPC  C315 4822   6.093   2.539   4.269
   61SLPC  H15X 4823   6.156   2.567   4.356
   61SLPC  H15Y 4824   6.008   2.610   4.264
   61SLPC  C316 4825   6.168   2.556   4.139
   61SLPC  H16X 4826   6.104   2.522   4.055
   61SLPC  H16Y 4827   6.263   2.498   4.134
   61SLPC  C317 4828   6.195   2.704   4.110
   61SLPC  H17X 4829   6.131   2.734   4.024
   61SLPC  H17Y 4830   6.302   2.707   4.079
   61SLPC  C318 4831   6.173   2.807   4.221
   61SLPC  H18X 4832   6.196   2.907   4.180
   61SLPC  H18Y 4833   6.237   2.787   4.309
   61SLPC  H18Z 4834   6.067   2.812   4.253
   62SLPC     N 4835   1.471   1.953   6.127
   62SLPC   C13 4836   1.588   2.037   6.085
   62SLPC  H13A 4837   1.588   2.054   5.978
   62SLPC  H13B 4838   1.590   2.132   6.138
   62SLPC  H13C 4839   1.682   1.984   6.107
   62SLPC   C14 4840   1.339   2.017   6.095
   62SLPC  H14A 4841   1.255   1.959   6.133
   62SLPC  H14B 4842   1.331   2.117   6.135
   62SLPC  H14C 4843   1.329   2.027   5.987
   62SLPC   C15 4844   1.484   1.938   6.273
   62SLPC  H15A 4845   1.415   1.867   6.318
   62SLPC  H15B 4846   1.585   1.905   6.299
   62SLPC  H15C 4847   1.464   2.032   6.323
   62SLPC   C12 4848   1.482   1.820   6.054
   62SLPC  H12A 4849   1.428   1.745   6.111
   62SLPC  H12B 4850   1.587   1.789   6.052
   62SLPC   C11 4851   1.438   1.819   5.905
   62SLPC  H11A 4852   1.333   1.854   5.894
   62SLPC  H11B 4853   1.435   1.712   5.871
   62SLPC     P 4854   1.665   1.836   5.778
   62SLPC   O13 4855   1.757   1.943   5.736
   62SLPC   O14 4856   1.703   1.748   5.891
   62SLPC   O12 4857   1.524   1.900   5.823
   62SLPC   O11 4858   1.618   1.752   5.651
   62SLPC    C1 4859   1.493   1.778   5.586
   62SLPC    HA 4860   1.416   1.711   5.631
   62SLPC    HB 4861   1.457   1.882   5.599
   62SLPC    C2 4862   1.501   1.753   5.432
   62SLPC    HS 4863   1.399   1.752   5.389
   62SLPC   O21 4864   1.566   1.626   5.412
   62SLPC   C21 4865   1.519   1.518   5.472
   62SLPC   O22 4866   1.403   1.503   5.508
   62SLPC   C22 4867   1.631   1.412   5.498
   62SLPC   H2R 4868   1.711   1.466   5.552
   62SLPC   H2S 4869   1.586   1.345   5.573
   62SLPC    C3 4870   1.584   1.875   5.367
   62SLPC    HX 4871   1.684   1.856   5.414
   62SLPC    HY 4872   1.545   1.970   5.411
   62SLPC   O31 4873   1.595   1.890   5.219
   62SLPC   C31 4874   1.712   1.957   5.191
   62SLPC   O32 4875   1.767   2.026   5.275
   62SLPC   C32 4876   1.776   1.942   5.046
   62SLPC   H2X 4877   1.781   2.050   5.015
   62SLPC   H2Y 4878   1.713   1.899   4.970
   62SLPC   C23 4879   1.700   1.319   5.390
   62SLPC   H3R 4880   1.745   1.235   5.447
   62SLPC   H3S 4881   1.791   1.366   5.348
   62SLPC   C24 4882   1.619   1.251   5.278
   62SLPC   H4R 4883   1.601   1.145   5.308
   62SLPC   H4S 4884   1.685   1.245   5.188
   62SLPC   C25 4885   1.484   1.313   5.236
   62SLPC   H5R 4886   1.488   1.423   5.240
   62SLPC   H5S 4887   1.405   1.278   5.307
   62SLPC   C26 4888   1.445   1.275   5.092
   62SLPC   H6R 4889   1.437   1.164   5.090
   62SLPC   H6S 4890   1.528   1.305   5.026
   62SLPC   C27 4891   1.310   1.332   5.040
   62SLPC   H7R 4892   1.241   1.344   5.126
   62SLPC   H7S 4893   1.266   1.256   4.972
   62SLPC   C28 4894   1.317   1.465   4.960
   62SLPC   H8R 4895   1.369   1.540   5.025
   62SLPC   H8S 4896   1.214   1.504   4.944
   62SLPC   C29 4897   1.390   1.451   4.829
   62SLPC   H9R 4898   1.487   1.399   4.840
   62SLPC  C210 4899   1.361   1.493   4.704
   62SLPC  H10R 4900   1.439   1.474   4.628
   62SLPC  C211 4901   1.246   1.570   4.644
   62SLPC  H11R 4902   1.159   1.502   4.641
   62SLPC  H11S 4903   1.272   1.584   4.536
   62SLPC  C212 4904   1.198   1.705   4.692
   62SLPC  H12R 4905   1.099   1.700   4.738
   62SLPC  C213 4906   1.256   1.827   4.685
   62SLPC  H13R 4907   1.198   1.913   4.723
   62SLPC  C214 4908   1.389   1.866   4.626
   62SLPC  H14R 4909   1.377   1.903   4.522
   62SLPC  H14S 4910   1.456   1.779   4.622
   62SLPC  C215 4911   1.449   1.981   4.712
   62SLPC  H15R 4912   1.456   1.944   4.817
   62SLPC  H15S 4913   1.378   2.065   4.712
   62SLPC  C216 4914   1.590   2.033   4.675
   62SLPC  H16R 4915   1.649   1.941   4.669
   62SLPC  H16S 4916   1.630   2.096   4.757
   62SLPC  C217 4917   1.620   2.102   4.540
   62SLPC  H17R 4918   1.575   2.202   4.539
   62SLPC  H17S 4919   1.573   2.042   4.458
   62SLPC  C218 4920   1.771   2.114   4.511
   62SLPC  H18R 4921   1.792   2.170   4.418
   62SLPC  H18S 4922   1.809   2.015   4.490
   62SLPC  H18T 4923   1.829   2.157   4.595
   62SLPC   C33 4924   1.929   1.895   5.048
   62SLPC   H3X 4925   1.956   1.875   5.154
   62SLPC   H3Y 4926   1.978   1.992   5.020
   62SLPC   C34 4927   2.017   1.794   4.959
   62SLPC   H4X 4928   2.108   1.794   5.023
   62SLPC   H4Y 4929   2.043   1.844   4.864
   62SLPC   C35 4930   1.998   1.638   4.936
   62SLPC   H5X 4931   1.897   1.631   4.897
   62SLPC   H5Y 4932   2.001   1.585   5.031
   62SLPC   C36 4933   2.042   1.548   4.817
   62SLPC   H6X 4934   2.148   1.528   4.804
   62SLPC   H6Y 4935   2.018   1.595   4.722
   62SLPC   C37 4936   1.964   1.412   4.818
   62SLPC   H7X 4937   1.951   1.381   4.924
   62SLPC   H7Y 4938   2.025   1.337   4.766
   62SLPC   C38 4939   1.830   1.413   4.743
   62SLPC   H8X 4940   1.841   1.496   4.673
   62SLPC   H8Y 4941   1.749   1.439   4.814
   62SLPC   C39 4942   1.787   1.292   4.656
   62SLPC   H9X 4943   1.772   1.204   4.722
   62SLPC   H9Y 4944   1.871   1.269   4.587
   62SLPC  C310 4945   1.662   1.316   4.566
   62SLPC  H10X 4946   1.570   1.301   4.626
   62SLPC  H10Y 4947   1.662   1.239   4.485
   62SLPC  C311 4948   1.664   1.456   4.501
   62SLPC  H11X 4949   1.769   1.468   4.466
   62SLPC  H11Y 4950   1.640   1.533   4.575
   62SLPC  C312 4951   1.581   1.493   4.378
   62SLPC  H12X 4952   1.471   1.489   4.395
   62SLPC  H12Y 4953   1.608   1.414   4.305
   62SLPC  C313 4954   1.623   1.633   4.325
   62SLPC  H13X 4955   1.670   1.633   4.225
   62SLPC  H13Y 4956   1.710   1.657   4.388
   62SLPC  C314 4957   1.520   1.748   4.343
   62SLPC  H14X 4958   1.558   1.813   4.425
   62SLPC  H14Y 4959   1.425   1.704   4.379
   62SLPC  C315 4960   1.483   1.844   4.226
   62SLPC  H15X 4961   1.435   1.934   4.273
   62SLPC  H15Y 4962   1.406   1.797   4.162
   62SLPC  C316 4963   1.597   1.898   4.137
   62SLPC  H16X 4964   1.555   1.970   4.064
   62SLPC  H16Y 4965   1.639   1.813   4.079
   62SLPC  C317 4966   1.708   1.968   4.216
   62SLPC  H17X 4967   1.709   1.928   4.319
   62SLPC  H17Y 4968   1.684   2.076   4.224
   62SLPC  C318 4969   1.848   1.950   4.158
   62SLPC  H18X 4970   1.925   1.988   4.229
   62SLPC  H18Y 4971   1.858   2.004   4.062
   62SLPC  H18Z 4972   1.868   1.842   4.139
   63SLPC     N 4973   1.964   0.610   6.073
   63SLPC   C13 4974   2.032   0.476   6.079
   63SLPC  H13A 4975   2.120   0.474   6.017
   63SLPC  H13B 4976   2.065   0.455   6.181
   63SLPC  H13C 4977   1.963   0.398   6.049
   63SLPC   C14 4978   2.069   0.715   6.089
   63SLPC  H14A 4979   2.135   0.693   6.173
   63SLPC  H14B 4980   2.141   0.718   6.007
   63SLPC  H14C 4981   2.029   0.814   6.103
   63SLPC   C15 4982   1.866   0.612   6.186
   63SLPC  H15A 4983   1.915   0.593   6.281
   63SLPC  H15B 4984   1.809   0.703   6.190
   63SLPC  H15C 4985   1.792   0.532   6.169
   63SLPC   C12 4986   1.891   0.627   5.940
   63SLPC  H12A 4987   1.928   0.550   5.872
   63SLPC  H12B 4988   1.915   0.723   5.895
   63SLPC   C11 4989   1.737   0.609   5.938
   63SLPC  H11A 4990   1.698   0.627   5.835
   63SLPC  H11B 4991   1.688   0.685   6.002
   63SLPC     P 4992   1.711   0.353   5.887
   63SLPC   O13 4993   1.724   0.232   5.971
   63SLPC   O14 4994   1.602   0.360   5.789
   63SLPC   O12 4995   1.703   0.478   5.985
   63SLPC   O11 4996   1.844   0.389   5.814
   63SLPC    C1 4997   1.914   0.299   5.732
   63SLPC    HA 4998   1.931   0.203   5.788
   63SLPC    HB 4999   1.859   0.272   5.640
   63SLPC    C2 5000   2.049   0.368   5.702
   63SLPC    HS 5001   2.060   0.450   5.776
   63SLPC   O21 5002   2.060   0.414   5.563
   63SLPC   C21 5003   2.094   0.543   5.546
   63SLPC   O22 5004   2.113   0.622   5.637
   63SLPC   C22 5005   2.100   0.581   5.393
   63SLPC   H2R 5006   2.063   0.497   5.334
   63SLPC   H2S 5007   2.016   0.653   5.387
   63SLPC    C3 5008   2.157   0.265   5.738
   63SLPC    HX 5009   2.140   0.229   5.842
   63SLPC    HY 5010   2.254   0.319   5.737
   63SLPC   O31 5011   2.146   0.158   5.643
   63SLPC   C31 5012   2.247   0.075   5.635
   63SLPC   O32 5013   2.344   0.073   5.709
   63SLPC   C32 5014   2.231  -0.010   5.509
   63SLPC   H2X 5015   2.328  -0.057   5.486
   63SLPC   H2Y 5016   2.208   0.058   5.424
   63SLPC   C23 5017   2.218   0.665   5.322
   63SLPC   H3R 5018   2.240   0.750   5.389
   63SLPC   H3S 5019   2.166   0.705   5.232
   63SLPC   C24 5020   2.356   0.619   5.255
   63SLPC   H4R 5021   2.434   0.590   5.322
   63SLPC   H4S 5022   2.397   0.716   5.219
   63SLPC   C25 5023   2.352   0.529   5.126
   63SLPC   H5R 5024   2.368   0.608   5.048
   63SLPC   H5S 5025   2.245   0.510   5.112
   63SLPC   C26 5026   2.458   0.410   5.083
   63SLPC   H6R 5027   2.554   0.453   5.111
   63SLPC   H6S 5028   2.449   0.417   4.972
   63SLPC   C27 5029   2.487   0.248   5.097
   63SLPC   H7R 5030   2.566   0.239   5.177
   63SLPC   H7S 5031   2.552   0.225   5.011
   63SLPC   C28 5032   2.398   0.109   5.122
   63SLPC   H8R 5033   2.383   0.094   5.230
   63SLPC   H8S 5034   2.493   0.054   5.108
   63SLPC   C29 5035   2.313  -0.003   5.053
   63SLPC   H9R 5036   2.384  -0.083   5.032
   63SLPC  C210 5037   2.187  -0.043   5.006
   63SLPC  H10R 5038   2.194  -0.141   4.960
   63SLPC  C211 5039   2.039   0.001   4.989
   63SLPC  H11R 5040   2.007   0.035   5.089
   63SLPC  H11S 5041   1.976  -0.092   4.978
   63SLPC  C212 5042   1.979   0.111   4.901
   63SLPC  H12R 5043   1.936   0.188   4.967
   63SLPC  C213 5044   1.967   0.139   4.768
   63SLPC  H13R 5045   1.908   0.229   4.743
   63SLPC  C214 5046   2.013   0.068   4.643
   63SLPC  H14R 5047   1.960   0.113   4.556
   63SLPC  H14S 5048   1.978  -0.037   4.645
   63SLPC  C215 5049   2.158   0.058   4.598
   63SLPC  H15R 5050   2.154  -0.023   4.522
   63SLPC  H15S 5051   2.229   0.020   4.673
   63SLPC  C216 5052   2.208   0.184   4.524
   63SLPC  H16R 5053   2.263   0.251   4.591
   63SLPC  H16S 5054   2.122   0.240   4.482
   63SLPC  C217 5055   2.300   0.137   4.414
   63SLPC  H17R 5056   2.243   0.133   4.318
   63SLPC  H17S 5057   2.326   0.035   4.450
   63SLPC  C218 5058   2.438   0.194   4.389
   63SLPC  H18R 5059   2.492   0.125   4.320
   63SLPC  H18S 5060   2.498   0.203   4.482
   63SLPC  H18T 5061   2.430   0.290   4.338
   63SLPC   C33 5062   2.125  -0.120   5.525
   63SLPC   H3X 5063   2.140  -0.172   5.622
   63SLPC   H3Y 5064   2.140  -0.195   5.444
   63SLPC   C34 5065   1.978  -0.074   5.516
   63SLPC   H4X 5066   1.950  -0.021   5.609
   63SLPC   H4Y 5067   1.915  -0.165   5.509
   63SLPC   C35 5068   1.951   0.019   5.398
   63SLPC   H5X 5069   1.985  -0.027   5.303
   63SLPC   H5Y 5070   2.010   0.112   5.414
   63SLPC   C36 5071   1.803   0.059   5.384
   63SLPC   H6X 5072   1.765   0.085   5.485
   63SLPC   H6Y 5073   1.745  -0.028   5.347
   63SLPC   C37 5074   1.782   0.181   5.294
   63SLPC   H7X 5075   1.673   0.189   5.271
   63SLPC   H7Y 5076   1.838   0.168   5.200
   63SLPC   C38 5077   1.822   0.308   5.370
   63SLPC   H8X 5078   1.931   0.306   5.388
   63SLPC   H8Y 5079   1.770   0.307   5.468
   63SLPC   C39 5080   1.781   0.438   5.302
   63SLPC   H9X 5081   1.818   0.522   5.366
   63SLPC   H9Y 5082   1.670   0.445   5.296
   63SLPC  C310 5083   1.840   0.453   5.163
   63SLPC  H10X 5084   1.794   0.381   5.092
   63SLPC  H10Y 5085   1.948   0.433   5.171
   63SLPC  C311 5086   1.833   0.597   5.114
   63SLPC  H11X 5087   1.909   0.654   5.172
   63SLPC  H11Y 5088   1.732   0.637   5.137
   63SLPC  C312 5089   1.863   0.610   4.966
   63SLPC  H12X 5090   1.840   0.714   4.933
   63SLPC  H12Y 5091   1.797   0.540   4.910
   63SLPC  C313 5092   2.008   0.577   4.932
   63SLPC  H13X 5093   2.028   0.474   4.968
   63SLPC  H13Y 5094   2.079   0.645   4.984
   63SLPC  C314 5095   2.032   0.580   4.781
   63SLPC  H14X 5096   1.993   0.675   4.739
   63SLPC  H14Y 5097   1.975   0.497   4.734
   63SLPC  C315 5098   2.180   0.568   4.747
   63SLPC  H15X 5099   2.233   0.495   4.808
   63SLPC  H15Y 5100   2.231   0.665   4.766
   63SLPC  C316 5101   2.200   0.523   4.603
   63SLPC  H16X 5102   2.133   0.579   4.536
   63SLPC  H16Y 5103   2.167   0.418   4.594
   63SLPC  C317 5104   2.347   0.539   4.564
   63SLPC  H17X 5105   2.410   0.473   4.628
   63SLPC  H17Y 5106   2.378   0.645   4.585
   63SLPC  C318 5107   2.373   0.511   4.419
   63SLPC  H18X 5108   2.476   0.475   4.400
   63SLPC  H18Y 5109   2.363   0.602   4.357
   63SLPC  H18Z 5110   2.301   0.435   4.381
   64SLPC     N 5111   6.715   6.538   5.813
   64SLPC   C13 5112   6.724   6.687   5.789
   64SLPC  H13A 5113   6.691   6.718   5.692
   64SLPC  H13B 5114   6.661   6.738   5.863
   64SLPC  H13C 5115   6.824   6.724   5.807
   64SLPC   C14 5116   6.781   6.518   5.946
   64SLPC  H14A 5117   6.877   6.569   5.951
   64SLPC  H14B 5118   6.722   6.570   6.023
   64SLPC  H14C 5119   6.789   6.415   5.976
   64SLPC   C15 5120   6.792   6.463   5.709
   64SLPC  H15A 5121   6.797   6.357   5.734
   64SLPC  H15B 5122   6.748   6.474   5.611
   64SLPC  H15C 5123   6.894   6.501   5.703
   64SLPC   C12 5124   6.568   6.494   5.815
   64SLPC  H12A 5125   6.562   6.386   5.810
   64SLPC  H12B 5126   6.519   6.533   5.727
   64SLPC   C11 5127   6.477   6.538   5.934
   64SLPC  H11A 5128   6.500   6.474   6.023
   64SLPC  H11B 5129   6.372   6.515   5.907
   64SLPC     P 5130   6.529   6.731   6.103
   64SLPC   O13 5131   6.458   6.651   6.204
   64SLPC   O14 5132   6.677   6.731   6.105
   64SLPC   O12 5133   6.488   6.678   5.958
   64SLPC   O11 5134   6.482   6.882   6.096
   64SLPC    C1 5135   6.570   6.983   6.043
   64SLPC    HA 5136   6.580   7.065   6.117
   64SLPC    HB 5137   6.673   6.946   6.018
   64SLPC    C2 5138   6.514   7.047   5.914
   64SLPC    HS 5139   6.416   7.093   5.942
   64SLPC   O21 5140   6.504   6.944   5.813
   64SLPC   C21 5141   6.381   6.911   5.779
   64SLPC   O22 5142   6.279   6.969   5.811
   64SLPC   C22 5143   6.388   6.793   5.684
   64SLPC   H2R 5144   6.493   6.779   5.650
   64SLPC   H2S 5145   6.355   6.704   5.740
   64SLPC    C3 5146   6.608   7.162   5.865
   64SLPC    HX 5147   6.636   7.223   5.952
   64SLPC    HY 5148   6.551   7.230   5.799
   64SLPC   O31 5149   6.729   7.114   5.802
   64SLPC   C31 5150   6.716   7.103   5.670
   64SLPC   O32 5151   6.617   7.129   5.605
   64SLPC   C32 5152   6.843   7.052   5.606
   64SLPC   H2X 5153   6.883   6.970   5.670
   64SLPC   H2Y 5154   6.918   7.134   5.604
   64SLPC   C23 5155   6.297   6.820   5.565
   64SLPC   H3R 5156   6.344   6.899   5.502
   64SLPC   H3S 5157   6.197   6.856   5.600
   64SLPC   C24 5158   6.271   6.700   5.475
   64SLPC   H4R 5159   6.193   6.730   5.401
   64SLPC   H4S 5160   6.229   6.617   5.536
   64SLPC   C25 5161   6.395   6.652   5.401
   64SLPC   H5R 5162   6.475   6.625   5.474
   64SLPC   H5S 5163   6.436   6.732   5.336
   64SLPC   C26 5164   6.359   6.530   5.318
   64SLPC   H6R 5165   6.312   6.453   5.383
   64SLPC   H6S 5166   6.447   6.483   5.270
   64SLPC   C27 5167   6.264   6.565   5.205
   64SLPC   H7R 5168   6.299   6.656   5.151
   64SLPC   H7S 5169   6.163   6.589   5.247
   64SLPC   C28 5170   6.258   6.448   5.108
   64SLPC   H8R 5171   6.279   6.353   5.162
   64SLPC   H8S 5172   6.341   6.460   5.035
   64SLPC   C29 5173   6.124   6.442   5.043
   64SLPC   H9R 5174   6.051   6.377   5.094
   64SLPC  C210 5175   6.088   6.519   4.940
   64SLPC  H10R 5176   5.987   6.510   4.897
   64SLPC  C211 5177   6.181   6.621   4.879
   64SLPC  H11R 5178   6.285   6.581   4.874
   64SLPC  H11S 5179   6.187   6.707   4.949
   64SLPC  C212 5180   6.143   6.665   4.741
   64SLPC  H12R 5181   6.150   6.589   4.662
   64SLPC  C213 5182   6.106   6.790   4.709
   64SLPC  H13R 5183   6.088   6.814   4.603
   64SLPC  C214 5184   6.095   6.905   4.805
   64SLPC  H14R 5185   6.055   6.870   4.903
   64SLPC  H14S 5186   6.023   6.980   4.768
   64SLPC  C215 5187   6.230   6.975   4.827
   64SLPC  H15R 5188   6.306   6.899   4.859
   64SLPC  H15S 5189   6.222   7.049   4.910
   64SLPC  C216 5190   6.277   7.048   4.701
   64SLPC  H16R 5191   6.218   7.141   4.687
   64SLPC  H16S 5192   6.257   6.983   4.613
   64SLPC  C217 5193   6.426   7.079   4.701
   64SLPC  H17R 5194   6.480   7.008   4.767
   64SLPC  H17S 5195   6.442   7.181   4.741
   64SLPC  C218 5196   6.485   7.066   4.560
   64SLPC  H18R 5197   6.432   7.132   4.489
   64SLPC  H18S 5198   6.473   6.962   4.524
   64SLPC  H18T 5199   6.593   7.090   4.561
   64SLPC   C33 5200   6.811   7.006   5.462
   64SLPC   H3X 5201   6.780   7.094   5.401
   64SLPC   H3Y 5202   6.726   6.935   5.463
   64SLPC   C34 5203   6.931   6.939   5.395
   64SLPC   H4X 5204   7.014   7.013   5.399
   64SLPC   H4Y 5205   6.909   6.920   5.287
   64SLPC   C35 5206   6.972   6.809   5.465
   64SLPC   H5X 5207   6.930   6.803   5.567
   64SLPC   H5Y 5208   7.083   6.810   5.478
   64SLPC   C36 5209   6.930   6.684   5.387
   64SLPC   H6X 5210   6.971   6.591   5.432
   64SLPC   H6Y 5211   6.973   6.693   5.285
   64SLPC   C37 5212   6.778   6.666   5.381
   64SLPC   H7X 5213   6.730   6.759   5.344
   64SLPC   H7Y 5214   6.739   6.648   5.484
   64SLPC   C38 5215   6.734   6.551   5.290
   64SLPC   H8X 5216   6.626   6.538   5.306
   64SLPC   H8Y 5217   6.784   6.456   5.316
   64SLPC   C39 5218   6.756   6.587   5.142
   64SLPC   H9X 5219   6.861   6.618   5.126
   64SLPC   H9Y 5220   6.692   6.674   5.118
   64SLPC  C310 5221   6.727   6.474   5.042
   64SLPC  H10X 5222   6.623   6.436   5.050
   64SLPC  H10Y 5223   6.797   6.390   5.061
   64SLPC  C311 5224   6.751   6.528   4.900
   64SLPC  H11X 5225   6.768   6.445   4.829
   64SLPC  H11Y 5226   6.843   6.591   4.904
   64SLPC  C312 5227   6.638   6.618   4.848
   64SLPC  H12X 5228   6.616   6.700   4.920
   64SLPC  H12Y 5229   6.546   6.557   4.839
   64SLPC  C313 5230   6.673   6.681   4.712
   64SLPC  H13X 5231   6.779   6.663   4.687
   64SLPC  H13Y 5232   6.656   6.791   4.716
   64SLPC  C314 5233   6.583   6.621   4.605
   64SLPC  H14X 5234   6.478   6.632   4.639
   64SLPC  H14Y 5235   6.608   6.513   4.593
   64SLPC  C315 5236   6.588   6.689   4.470
   64SLPC  H15X 5237   6.536   6.786   4.474
   64SLPC  H15Y 5238   6.528   6.622   4.404
   64SLPC  C316 5239   6.726   6.702   4.408
   64SLPC  H16X 5240   6.711   6.702   4.298
   64SLPC  H16Y 5241   6.786   6.612   4.435
   64SLPC  C317 5242   6.810   6.827   4.438
   64SLPC  H17X 5243   6.842   6.828   4.544
   64SLPC  H17Y 5244   6.750   6.919   4.421
   64SLPC  C318 5245   6.931   6.824   4.344
   64SLPC  H18X 5246   6.966   6.719   4.332
   64SLPC  H18Y 5247   7.015   6.885   4.382
   64SLPC  H18Z 5248   6.902   6.860   4.244
   65SLPC     N 5249   4.617   4.085   2.522
   65SLPC   C13 5250   4.690   4.060   2.651
   65SLPC  H13A 5251   4.619   4.043   2.732
   65SLPC  H13B 5252   4.756   3.975   2.645
   65SLPC  H13C 5253   4.749   4.148   2.677
   65SLPC   C14 5254   4.715   4.144   2.424
   65SLPC  H14A 5255   4.666   4.181   2.335
   65SLPC  H14B 5256   4.765   4.230   2.471
   65SLPC  H14C 5257   4.792   4.074   2.396
   65SLPC   C15 5258   4.513   4.190   2.548
   65SLPC  H15A 5259   4.447   4.154   2.625
   65SLPC  H15B 5260   4.561   4.281   2.582
   65SLPC  H15C 5261   4.450   4.207   2.461
   65SLPC   C12 5262   4.549   3.960   2.467
   65SLPC  H12A 5263   4.627   3.892   2.436
   65SLPC  H12B 5264   4.493   3.989   2.379
   65SLPC   C11 5265   4.451   3.880   2.558
   65SLPC  H11A 5266   4.501   3.859   2.655
   65SLPC  H11B 5267   4.428   3.780   2.513
   65SLPC     P 5268   4.208   3.979   2.495
   65SLPC   O13 5269   4.235   4.106   2.422
   65SLPC   O14 5270   4.180   3.860   2.412
   65SLPC   O12 5271   4.333   3.950   2.585
   65SLPC   O11 5272   4.098   4.008   2.606
   65SLPC    C1 5273   4.113   4.130   2.681
   65SLPC    HA 5274   4.130   4.217   2.615
   65SLPC    HB 5275   4.018   4.149   2.735
   65SLPC    C2 5276   4.227   4.126   2.788
   65SLPC    HS 5277   4.324   4.122   2.734
   65SLPC   O21 5278   4.213   4.012   2.873
   65SLPC   C21 5279   4.324   3.980   2.939
   65SLPC   O22 5280   4.438   4.004   2.907
   65SLPC   C22 5281   4.283   3.929   3.077
   65SLPC   H2R 5282   4.359   3.855   3.110
   65SLPC   H2S 5283   4.286   4.016   3.145
   65SLPC    C3 5284   4.227   4.256   2.872
   65SLPC    HX 5285   4.120   4.279   2.894
   65SLPC    HY 5286   4.268   4.338   2.808
   65SLPC   O31 5287   4.293   4.243   2.999
   65SLPC   C31 5288   4.401   4.315   3.021
   65SLPC   O32 5289   4.456   4.389   2.941
   65SLPC   C32 5290   4.439   4.298   3.168
   65SLPC   H2X 5291   4.524   4.365   3.191
   65SLPC   H2Y 5292   4.473   4.193   3.181
   65SLPC   C23 5293   4.141   3.869   3.078
   65SLPC   H3R 5294   4.135   3.783   3.008
   65SLPC   H3S 5295   4.067   3.945   3.043
   65SLPC   C24 5296   4.098   3.825   3.217
   65SLPC   H4R 5297   3.988   3.809   3.211
   65SLPC   H4S 5298   4.115   3.907   3.290
   65SLPC   C25 5299   4.160   3.694   3.265
   65SLPC   H5R 5300   4.219   3.647   3.183
   65SLPC   H5S 5301   4.078   3.626   3.295
   65SLPC   C26 5302   4.246   3.706   3.390
   65SLPC   H6R 5303   4.321   3.783   3.363
   65SLPC   H6S 5304   4.301   3.611   3.409
   65SLPC   C27 5305   4.165   3.740   3.517
   65SLPC   H7R 5306   4.099   3.655   3.543
   65SLPC   H7S 5307   4.098   3.827   3.498
   65SLPC   C28 5308   4.255   3.771   3.637
   65SLPC   H8R 5309   4.314   3.682   3.666
   65SLPC   H8S 5310   4.194   3.799   3.726
   65SLPC   C29 5311   4.342   3.883   3.586
   65SLPC   H9R 5312   4.427   3.853   3.523
   65SLPC  C210 5313   4.330   4.011   3.620
   65SLPC  H10R 5314   4.402   4.083   3.579
   65SLPC  C211 5315   4.229   4.067   3.715
   65SLPC  H11R 5316   4.129   4.021   3.696
   65SLPC  H11S 5317   4.216   4.176   3.699
   65SLPC  C212 5318   4.270   4.039   3.859
   65SLPC  H12R 5319   4.184   4.035   3.927
   65SLPC  C213 5320   4.393   4.023   3.914
   65SLPC  H13R 5321   4.398   4.014   4.023
   65SLPC  C214 5322   4.531   4.029   3.851
   65SLPC  H14R 5323   4.531   4.066   3.746
   65SLPC  H14S 5324   4.579   3.928   3.849
   65SLPC  C215 5325   4.619   4.129   3.927
   65SLPC  H15R 5326   4.707   4.153   3.863
   65SLPC  H15S 5327   4.656   4.081   4.020
   65SLPC  C216 5328   4.544   4.260   3.957
   65SLPC  H16R 5329   4.459   4.236   4.024
   65SLPC  H16S 5330   4.503   4.300   3.864
   65SLPC  C217 5331   4.624   4.368   4.029
   65SLPC  H17R 5332   4.553   4.448   4.061
   65SLPC  H17S 5333   4.698   4.413   3.960
   65SLPC  C218 5334   4.693   4.309   4.151
   65SLPC  H18R 5335   4.627   4.239   4.204
   65SLPC  H18S 5336   4.725   4.389   4.221
   65SLPC  H18T 5337   4.779   4.248   4.118
   65SLPC   C33 5338   4.319   4.325   3.262
   65SLPC   H3X 5339   4.227   4.276   3.223
   65SLPC   H3Y 5340   4.299   4.434   3.268
   65SLPC   C34 5341   4.342   4.269   3.402
   65SLPC   H4X 5342   4.362   4.160   3.393
   65SLPC   H4Y 5343   4.248   4.280   3.461
   65SLPC   C35 5344   4.457   4.338   3.475
   65SLPC   H5X 5345   4.473   4.437   3.427
   65SLPC   H5Y 5346   4.550   4.278   3.461
   65SLPC   C36 5347   4.436   4.362   3.626
   65SLPC   H6X 5348   4.527   4.415   3.664
   65SLPC   H6Y 5349   4.430   4.265   3.678
   65SLPC   C37 5350   4.313   4.446   3.664
   65SLPC   H7X 5351   4.219   4.392   3.639
   65SLPC   H7Y 5352   4.314   4.539   3.603
   65SLPC   C38 5353   4.310   4.484   3.813
   65SLPC   H8X 5354   4.262   4.583   3.823
   65SLPC   H8Y 5355   4.413   4.493   3.854
   65SLPC   C39 5356   4.223   4.393   3.900
   65SLPC   H9X 5357   4.272   4.295   3.914
   65SLPC   H9Y 5358   4.127   4.376   3.846
   65SLPC  C310 5359   4.190   4.458   4.035
   65SLPC  H10X 5360   4.179   4.568   4.023
   65SLPC  H10Y 5361   4.275   4.443   4.103
   65SLPC  C311 5362   4.062   4.402   4.098
   65SLPC  H11X 5363   4.074   4.292   4.103
   65SLPC  H11Y 5364   3.975   4.423   4.031
   65SLPC  C312 5365   4.036   4.459   4.238
   65SLPC  H12X 5366   3.983   4.556   4.227
   65SLPC  H12Y 5367   4.132   4.481   4.288
   65SLPC  C313 5368   3.955   4.367   4.330
   65SLPC  H13X 5369   3.866   4.329   4.276
   65SLPC  H13Y 5370   3.919   4.429   4.416
   65SLPC  C314 5371   4.031   4.249   4.388
   65SLPC  H14X 5372   4.035   4.263   4.498
   65SLPC  H14Y 5373   4.133   4.250   4.346
   65SLPC  C315 5374   3.973   4.109   4.363
   65SLPC  H15X 5375   3.881   4.098   4.425
   65SLPC  H15Y 5376   4.045   4.032   4.400
   65SLPC  C316 5377   3.937   4.081   4.217
   65SLPC  H16X 5378   3.909   4.174   4.163
   65SLPC  H16Y 5379   3.846   4.018   4.221
   65SLPC  C317 5380   4.039   4.006   4.134
   65SLPC  H17X 5381   4.140   4.052   4.144
   65SLPC  H17Y 5382   4.007   4.015   4.028
   65SLPC  C318 5383   4.042   3.858   4.169
   65SLPC  H18X 5384   3.940   3.816   4.176
   65SLPC  H18Y 5385   4.091   3.845   4.267
   65SLPC  H18Z 5386   4.098   3.801   4.091
   66SLPC     N 5387   3.955   6.342   2.418
   66SLPC   C13 5388   4.089   6.278   2.393
   66SLPC  H13A 5389   4.169   6.330   2.446
   66SLPC  H13B 5390   4.088   6.177   2.435
   66SLPC  H13C 5391   4.117   6.274   2.289
   66SLPC   C14 5392   3.850   6.264   2.343
   66SLPC  H14A 5393   3.878   6.252   2.239
   66SLPC  H14B 5394   3.841   6.163   2.386
   66SLPC  H14C 5395   3.753   6.311   2.347
   66SLPC   C15 5396   3.961   6.480   2.360
   66SLPC  H15A 5397   4.027   6.546   2.415
   66SLPC  H15B 5398   4.001   6.474   2.259
   66SLPC  H15C 5399   3.861   6.522   2.355
   66SLPC   C12 5400   3.927   6.344   2.568
   66SLPC  H12A 5401   3.832   6.393   2.585
   66SLPC  H12B 5402   4.005   6.402   2.617
   66SLPC   C11 5403   3.923   6.208   2.642
   66SLPC  H11A 5404   3.841   6.147   2.598
   66SLPC  H11B 5405   3.897   6.225   2.749
   66SLPC     P 5406   4.066   5.989   2.616
   66SLPC   O13 5407   3.958   5.945   2.525
   66SLPC   O14 5408   4.203   5.958   2.572
   66SLPC   O12 5409   4.051   6.146   2.636
   66SLPC   O11 5410   4.043   5.933   2.761
   66SLPC    C1 5411   3.939   5.838   2.779
   66SLPC    HA 5412   3.942   5.756   2.704
   66SLPC    HB 5413   3.947   5.796   2.881
   66SLPC    C2 5414   3.799   5.897   2.784
   66SLPC    HS 5415   3.778   5.955   2.691
   66SLPC   O21 5416   3.794   5.978   2.902
   66SLPC   C21 5417   3.677   6.031   2.917
   66SLPC   O22 5418   3.590   6.039   2.832
   66SLPC   C22 5419   3.664   6.090   3.054
   66SLPC   H2R 5420   3.717   6.187   3.049
   66SLPC   H2S 5421   3.554   6.101   3.069
   66SLPC    C3 5422   3.703   5.775   2.792
   66SLPC    HX 5423   3.729   5.709   2.706
   66SLPC    HY 5424   3.597   5.806   2.774
   66SLPC   O31 5425   3.723   5.701   2.916
   66SLPC   C31 5426   3.630   5.723   3.008
   66SLPC   O32 5427   3.534   5.796   2.998
   66SLPC   C32 5428   3.642   5.623   3.124
   66SLPC   H2X 5429   3.698   5.533   3.095
   66SLPC   H2Y 5430   3.536   5.595   3.126
   66SLPC   C23 5431   3.710   6.017   3.180
   66SLPC   H3R 5432   3.806   5.966   3.162
   66SLPC   H3S 5433   3.631   5.942   3.204
   66SLPC   C24 5434   3.708   6.128   3.287
   66SLPC   H4R 5435   3.601   6.156   3.274
   66SLPC   H4S 5436   3.773   6.213   3.257
   66SLPC   C25 5437   3.718   6.108   3.439
   66SLPC   H5R 5438   3.671   6.195   3.490
   66SLPC   H5S 5439   3.822   6.106   3.473
   66SLPC   C26 5440   3.648   5.982   3.485
   66SLPC   H6R 5441   3.676   5.954   3.589
   66SLPC   H6S 5442   3.678   5.902   3.417
   66SLPC   C27 5443   3.499   5.991   3.469
   66SLPC   H7R 5444   3.461   5.893   3.431
   66SLPC   H7S 5445   3.469   6.068   3.395
   66SLPC   C28 5446   3.429   6.019   3.601
   66SLPC   H8R 5447   3.426   5.925   3.661
   66SLPC   H8S 5448   3.330   6.040   3.560
   66SLPC   C29 5449   3.461   6.136   3.686
   66SLPC   H9R 5450   3.453   6.234   3.635
   66SLPC  C210 5451   3.490   6.130   3.817
   66SLPC  H10R 5452   3.491   6.225   3.872
   66SLPC  C211 5453   3.497   6.005   3.902
   66SLPC  H11R 5454   3.411   5.938   3.882
   66SLPC  H11S 5455   3.489   6.033   4.009
   66SLPC  C212 5456   3.628   5.933   3.879
   66SLPC  H12R 5457   3.715   6.001   3.867
   66SLPC  C213 5458   3.651   5.801   3.869
   66SLPC  H13R 5459   3.755   5.767   3.858
   66SLPC  C214 5460   3.550   5.689   3.880
   66SLPC  H14R 5461   3.581   5.602   3.819
   66SLPC  H14S 5462   3.450   5.721   3.842
   66SLPC  C215 5463   3.532   5.643   4.026
   66SLPC  H15R 5464   3.452   5.566   4.031
   66SLPC  H15S 5465   3.497   5.731   4.086
   66SLPC  C216 5466   3.659   5.586   4.093
   66SLPC  H16R 5467   3.743   5.659   4.081
   66SLPC  H16S 5468   3.690   5.492   4.043
   66SLPC  C217 5469   3.636   5.564   4.243
   66SLPC  H17R 5470   3.574   5.472   4.257
   66SLPC  H17S 5471   3.576   5.649   4.282
   66SLPC  C218 5472   3.764   5.555   4.326
   66SLPC  H18R 5473   3.739   5.551   4.434
   66SLPC  H18S 5474   3.827   5.645   4.308
   66SLPC  H18T 5475   3.823   5.465   4.298
   66SLPC   C33 5476   3.674   5.676   3.268
   66SLPC   H3X 5477   3.634   5.603   3.341
   66SLPC   H3Y 5478   3.617   5.768   3.285
   66SLPC   C34 5479   3.826   5.690   3.292
   66SLPC   H4X 5480   3.869   5.737   3.201
   66SLPC   H4Y 5481   3.864   5.586   3.297
   66SLPC   C35 5482   3.884   5.768   3.414
   66SLPC   H5X 5483   3.953   5.704   3.471
   66SLPC   H5Y 5484   3.809   5.787   3.492
   66SLPC   C36 5485   3.964   5.895   3.371
   66SLPC   H6X 5486   3.895   5.969   3.332
   66SLPC   H6Y 5487   4.034   5.875   3.288
   66SLPC   C37 5488   4.042   5.968   3.481
   66SLPC   H7X 5489   4.128   5.908   3.518
   66SLPC   H7Y 5490   3.968   5.975   3.564
   66SLPC   C38 5491   4.091   6.109   3.439
   66SLPC   H8X 5492   4.007   6.166   3.394
   66SLPC   H8Y 5493   4.170   6.103   3.361
   66SLPC   C39 5494   4.143   6.192   3.559
   66SLPC   H9X 5495   4.151   6.300   3.530
   66SLPC   H9Y 5496   4.243   6.157   3.589
   66SLPC  C310 5497   4.047   6.179   3.677
   66SLPC  H10X 5498   4.048   6.074   3.715
   66SLPC  H10Y 5499   3.944   6.203   3.641
   66SLPC  C311 5500   4.077   6.266   3.797
   66SLPC  H11X 5501   4.082   6.371   3.762
   66SLPC  H11Y 5502   4.175   6.239   3.841
   66SLPC  C312 5503   3.965   6.245   3.898
   66SLPC  H12X 5504   4.003   6.263   4.001
   66SLPC  H12Y 5505   3.929   6.140   3.894
   66SLPC  C313 5506   3.846   6.338   3.870
   66SLPC  H13X 5507   3.778   6.294   3.794
   66SLPC  H13Y 5508   3.888   6.432   3.827
   66SLPC  C314 5509   3.774   6.378   3.998
   66SLPC  H14X 5510   3.711   6.468   3.979
   66SLPC  H14Y 5511   3.853   6.404   4.071
   66SLPC  C315 5512   3.696   6.272   4.073
   66SLPC  H15X 5513   3.754   6.178   4.082
   66SLPC  H15Y 5514   3.604   6.249   4.018
   66SLPC  C316 5515   3.664   6.328   4.212
   66SLPC  H16X 5516   3.659   6.439   4.206
   66SLPC  H16Y 5517   3.748   6.301   4.279
   66SLPC  C317 5518   3.534   6.277   4.272
   66SLPC  H17X 5519   3.522   6.317   4.376
   66SLPC  H17Y 5520   3.542   6.167   4.281
   66SLPC  C318 5521   3.410   6.311   4.192
   66SLPC  H18X 5522   3.337   6.227   4.195
   66SLPC  H18Y 5523   3.433   6.332   4.085
   66SLPC  H18Z 5524   3.363   6.402   4.234
   67SLPC     N 5525   5.621   1.533   2.410
   67SLPC   C13 5526   5.767   1.509   2.417
   67SLPC  H13A 5527   5.821   1.583   2.360
   67SLPC  H13B 5528   5.802   1.513   2.520
   67SLPC  H13C 5529   5.795   1.411   2.378
   67SLPC   C14 5530   5.579   1.559   2.270
   67SLPC  H14A 5531   5.628   1.645   2.226
   67SLPC  H14B 5532   5.592   1.472   2.207
   67SLPC  H14C 5533   5.473   1.583   2.271
   67SLPC   C15 5534   5.586   1.657   2.486
   67SLPC  H15A 5535   5.616   1.747   2.435
   67SLPC  H15B 5536   5.476   1.662   2.494
   67SLPC  H15C 5537   5.622   1.656   2.587
   67SLPC   C12 5538   5.543   1.415   2.463
   67SLPC  H12A 5539   5.557   1.405   2.571
   67SLPC  H12B 5540   5.580   1.323   2.418
   67SLPC   C11 5541   5.391   1.421   2.441
   67SLPC  H11A 5542   5.352   1.317   2.454
   67SLPC  H11B 5543   5.361   1.448   2.337
   67SLPC     P 5544   5.311   1.465   2.683
   67SLPC   O13 5545   5.445   1.442   2.741
   67SLPC   O14 5546   5.217   1.556   2.750
   67SLPC   O12 5547   5.332   1.515   2.532
   67SLPC   O11 5548   5.235   1.332   2.658
   67SLPC    C1 5549   5.115   1.337   2.577
   67SLPC    HA 5550   5.054   1.428   2.596
   67SLPC    HB 5551   5.140   1.336   2.468
   67SLPC    C2 5552   5.029   1.212   2.605
   67SLPC    HS 5553   4.930   1.224   2.557
   67SLPC   O21 5554   5.014   1.201   2.747
   67SLPC   C21 5555   4.933   1.107   2.791
   67SLPC   O22 5556   4.857   1.042   2.722
   67SLPC   C22 5557   4.950   1.093   2.941
   67SLPC   H2R 5558   5.050   1.049   2.959
   67SLPC   H2S 5559   4.947   1.194   2.987
   67SLPC    C3 5560   5.098   1.088   2.540
   67SLPC    HX 5561   5.078   1.101   2.432
   67SLPC    HY 5562   5.050   0.993   2.571
   67SLPC   O31 5563   5.242   1.084   2.554
   67SLPC   C31 5564   5.280   1.041   2.673
   67SLPC   O32 5565   5.205   1.004   2.762
   67SLPC   C32 5566   5.432   1.050   2.686
   67SLPC   H2X 5567   5.456   1.157   2.702
   67SLPC   H2Y 5568   5.480   1.015   2.592
   67SLPC   C23 5569   4.839   1.005   2.999
   67SLPC   H3R 5570   4.849   0.903   2.959
   67SLPC   H3S 5571   4.740   1.040   2.961
   67SLPC   C24 5572   4.830   1.008   3.153
   67SLPC   H4R 5573   4.754   0.935   3.189
   67SLPC   H4S 5574   4.793   1.110   3.173
   67SLPC   C25 5575   4.956   0.998   3.237
   67SLPC   H5R 5576   5.040   1.052   3.188
   67SLPC   H5S 5577   4.986   0.891   3.248
   67SLPC   C26 5578   4.935   1.058   3.378
   67SLPC   H6R 5579   4.855   1.003   3.432
   67SLPC   H6S 5580   4.903   1.164   3.370
   67SLPC   C27 5581   5.066   1.055   3.457
   67SLPC   H7R 5582   5.108   0.955   3.448
   67SLPC   H7S 5583   5.045   1.068   3.564
   67SLPC   C28 5584   5.160   1.163   3.399
   67SLPC   H8R 5585   5.090   1.234   3.348
   67SLPC   H8S 5586   5.220   1.125   3.315
   67SLPC   C29 5587   5.250   1.250   3.480
   67SLPC   H9R 5588   5.266   1.346   3.430
   67SLPC  C210 5589   5.315   1.233   3.594
   67SLPC  H10R 5590   5.373   1.321   3.629
   67SLPC  C211 5591   5.317   1.112   3.683
   67SLPC  H11R 5592   5.373   1.031   3.633
   67SLPC  H11S 5593   5.215   1.074   3.707
   67SLPC  C212 5594   5.393   1.149   3.805
   67SLPC  H12R 5595   5.468   1.227   3.788
   67SLPC  C213 5596   5.391   1.093   3.926
   67SLPC  H13R 5597   5.458   1.141   3.997
   67SLPC  C214 5598   5.314   0.975   3.979
   67SLPC  H14R 5599   5.375   0.920   4.054
   67SLPC  H14S 5600   5.295   0.904   3.895
   67SLPC  C215 5601   5.179   1.016   4.042
   67SLPC  H15R 5602   5.096   0.977   3.978
   67SLPC  H15S 5603   5.170   1.126   4.043
   67SLPC  C216 5604   5.152   0.971   4.186
   67SLPC  H16R 5605   5.229   1.010   4.254
   67SLPC  H16S 5606   5.157   0.860   4.193
   67SLPC  C217 5607   5.013   1.019   4.231
   67SLPC  H17R 5608   4.976   0.955   4.314
   67SLPC  H17S 5609   4.945   1.003   4.144
   67SLPC  C218 5610   5.002   1.166   4.277
   67SLPC  H18R 5611   4.915   1.217   4.232
   67SLPC  H18S 5612   5.092   1.222   4.246
   67SLPC  H18T 5613   4.991   1.173   4.387
   67SLPC   C33 5614   5.484   0.967   2.805
   67SLPC   H3X 5615   5.472   0.861   2.776
   67SLPC   H3Y 5616   5.418   0.982   2.892
   67SLPC   C34 5617   5.631   0.992   2.841
   67SLPC   H4X 5618   5.691   0.992   2.746
   67SLPC   H4Y 5619   5.669   0.907   2.902
   67SLPC   C35 5620   5.658   1.121   2.918
   67SLPC   H5X 5621   5.639   1.206   2.849
   67SLPC   H5Y 5622   5.765   1.126   2.947
   67SLPC   C36 5623   5.571   1.140   3.045
   67SLPC   H6X 5624   5.635   1.131   3.135
   67SLPC   H6Y 5625   5.492   1.062   3.055
   67SLPC   C37 5626   5.503   1.277   3.040
   67SLPC   H7X 5627   5.440   1.284   2.949
   67SLPC   H7Y 5628   5.584   1.353   3.029
   67SLPC   C38 5629   5.417   1.313   3.162
   67SLPC   H8X 5630   5.475   1.289   3.254
   67SLPC   H8Y 5631   5.325   1.251   3.162
   67SLPC   C39 5632   5.383   1.462   3.155
   67SLPC   H9X 5633   5.308   1.480   3.074
   67SLPC   H9Y 5634   5.477   1.513   3.123
   67SLPC  C310 5635   5.340   1.532   3.286
   67SLPC  H10X 5636   5.377   1.637   3.278
   67SLPC  H10Y 5637   5.392   1.487   3.373
   67SLPC  C311 5638   5.187   1.542   3.309
   67SLPC  H11X 5639   5.139   1.443   3.318
   67SLPC  H11Y 5640   5.145   1.588   3.216
   67SLPC  C312 5641   5.156   1.636   3.427
   67SLPC  H12X 5642   5.129   1.726   3.371
   67SLPC  H12Y 5643   5.247   1.657   3.487
   67SLPC  C313 5644   5.030   1.628   3.516
   67SLPC  H13X 5645   4.945   1.668   3.456
   67SLPC  H13Y 5646   5.042   1.697   3.603
   67SLPC  C314 5647   4.986   1.491   3.566
   67SLPC  H14X 5648   4.999   1.415   3.486
   67SLPC  H14Y 5649   4.876   1.501   3.586
   67SLPC  C315 5650   5.044   1.442   3.698
   67SLPC  H15X 5651   5.017   1.511   3.781
   67SLPC  H15Y 5652   5.154   1.437   3.693
   67SLPC  C316 5653   4.986   1.302   3.723
   67SLPC  H16X 5654   5.021   1.242   3.637
   67SLPC  H16Y 5655   4.876   1.302   3.716
   67SLPC  C317 5656   5.032   1.237   3.852
   67SLPC  H17X 5657   5.143   1.242   3.854
   67SLPC  H17Y 5658   5.004   1.129   3.851
   67SLPC  C318 5659   4.978   1.303   3.978
   67SLPC  H18X 5660   4.964   1.412   3.963
   67SLPC  H18Y 5661   5.052   1.293   4.059
   67SLPC  H18Z 5662   4.881   1.258   4.009
   68SLPC     N 5663   0.694   3.624   2.442
   68SLPC   C13 5664   0.565   3.549   2.454
   68SLPC  H13A 5665   0.485   3.620   2.474
   68SLPC  H13B 5666   0.540   3.496   2.362
   68SLPC  H13C 5667   0.569   3.478   2.534
   68SLPC   C14 5668   0.725   3.689   2.574
   68SLPC  H14A 5669   0.814   3.750   2.566
   68SLPC  H14B 5670   0.643   3.751   2.608
   68SLPC  H14C 5671   0.751   3.612   2.646
   68SLPC   C15 5672   0.673   3.733   2.342
   68SLPC  H15A 5673   0.759   3.797   2.331
   68SLPC  H15B 5674   0.646   3.694   2.244
   68SLPC  H15C 5675   0.588   3.795   2.372
   68SLPC   C12 5676   0.811   3.537   2.401
   68SLPC  H12A 5677   0.901   3.597   2.390
   68SLPC  H12B 5678   0.792   3.496   2.303
   68SLPC   C11 5679   0.851   3.423   2.496
   68SLPC  H11A 5680   0.916   3.350   2.441
   68SLPC  H11B 5681   0.761   3.369   2.526
   68SLPC     P 5682   1.073   3.498   2.607
   68SLPC   O13 5683   1.117   3.492   2.465
   68SLPC   O14 5684   1.105   3.621   2.683
   68SLPC   O12 5685   0.915   3.472   2.614
   68SLPC   O11 5686   1.135   3.374   2.684
   68SLPC    C1 5687   1.063   3.256   2.716
   68SLPC    HA 5688   0.975   3.241   2.650
   68SLPC    HB 5689   1.130   3.169   2.699
   68SLPC    C2 5690   1.014   3.247   2.865
   68SLPC    HS 5691   0.960   3.150   2.873
   68SLPC   O21 5692   0.926   3.358   2.896
   68SLPC   C21 5693   0.843   3.337   2.998
   68SLPC   O22 5694   0.835   3.234   3.061
   68SLPC   C22 5695   0.752   3.460   3.018
   68SLPC   H2R 5696   0.810   3.552   2.996
   68SLPC   H2S 5697   0.672   3.452   2.941
   68SLPC    C3 5698   1.136   3.244   2.963
   68SLPC    HX 5699   1.218   3.188   2.913
   68SLPC    HY 5700   1.107   3.183   3.053
   68SLPC   O31 5701   1.183   3.376   2.995
   68SLPC   C31 5702   1.141   3.423   3.112
   68SLPC   O32 5703   1.112   3.355   3.209
   68SLPC   C32 5704   1.116   3.574   3.102
   68SLPC   H2X 5705   1.007   3.586   3.116
   68SLPC   H2Y 5706   1.142   3.608   3.000
   68SLPC   C23 5707   0.685   3.472   3.157
   68SLPC   H3R 5708   0.639   3.375   3.188
   68SLPC   H3S 5709   0.602   3.546   3.149
   68SLPC   C24 5710   0.779   3.523   3.267
   68SLPC   H4R 5711   0.829   3.615   3.231
   68SLPC   H4S 5712   0.858   3.446   3.287
   68SLPC   C25 5713   0.709   3.558   3.399
   68SLPC   H5R 5714   0.650   3.471   3.436
   68SLPC   H5S 5715   0.637   3.642   3.380
   68SLPC   C26 5716   0.808   3.602   3.508
   68SLPC   H6R 5717   0.870   3.687   3.470
   68SLPC   H6S 5718   0.876   3.518   3.532
   68SLPC   C27 5719   0.740   3.651   3.637
   68SLPC   H7R 5720   0.667   3.574   3.670
   68SLPC   H7S 5721   0.683   3.744   3.614
   68SLPC   C28 5722   0.836   3.679   3.754
   68SLPC   H8R 5723   0.878   3.582   3.788
   68SLPC   H8S 5724   0.772   3.716   3.837
   68SLPC   C29 5725   0.949   3.777   3.734
   68SLPC   H9R 5726   1.042   3.730   3.699
   68SLPC  C210 5727   0.947   3.909   3.758
   68SLPC  H10R 5728   1.039   3.967   3.740
   68SLPC  C211 5729   0.831   3.991   3.810
   68SLPC  H11R 5730   0.737   3.932   3.806
   68SLPC  H11S 5731   0.814   4.073   3.738
   68SLPC  C212 5732   0.844   4.055   3.946
   68SLPC  H12R 5733   0.844   4.165   3.943
   68SLPC  C213 5734   0.853   3.997   4.067
   68SLPC  H13R 5735   0.858   4.061   4.156
   68SLPC  C214 5736   0.853   3.849   4.096
   68SLPC  H14R 5737   0.931   3.828   4.173
   68SLPC  H14S 5738   0.881   3.789   4.008
   68SLPC  C215 5739   0.718   3.798   4.151
   68SLPC  H15R 5740   0.688   3.857   4.239
   68SLPC  H15S 5741   0.733   3.694   4.185
   68SLPC  C216 5742   0.601   3.789   4.052
   68SLPC  H16R 5743   0.621   3.852   3.963
   68SLPC  H16S 5744   0.510   3.830   4.101
   68SLPC  C217 5745   0.571   3.645   4.008
   68SLPC  H17R 5746   0.541   3.586   4.097
   68SLPC  H17S 5747   0.663   3.597   3.969
   68SLPC  C218 5748   0.461   3.639   3.902
   68SLPC  H18R 5749   0.486   3.709   3.818
   68SLPC  H18S 5750   0.364   3.669   3.946
   68SLPC  H18T 5751   0.451   3.537   3.860
   68SLPC   C33 5752   1.189   3.654   3.211
   68SLPC   H3X 5753   1.245   3.739   3.165
   68SLPC   H3Y 5754   1.263   3.588   3.262
   68SLPC   C34 5755   1.095   3.710   3.318
   68SLPC   H4X 5756   1.028   3.627   3.350
   68SLPC   H4Y 5757   1.030   3.789   3.275
   68SLPC   C35 5758   1.167   3.764   3.442
   68SLPC   H5X 5759   1.091   3.813   3.507
   68SLPC   H5Y 5760   1.237   3.845   3.410
   68SLPC   C36 5761   1.247   3.659   3.524
   68SLPC   H6X 5762   1.262   3.695   3.628
   68SLPC   H6Y 5763   1.347   3.651   3.477
   68SLPC   C37 5764   1.189   3.516   3.526
   68SLPC   H7X 5765   1.160   3.487   3.423
   68SLPC   H7Y 5766   1.097   3.514   3.588
   68SLPC   C38 5767   1.290   3.408   3.570
   68SLPC   H8X 5768   1.282   3.391   3.679
   68SLPC   H8Y 5769   1.393   3.446   3.550
   68SLPC   C39 5770   1.276   3.275   3.492
   68SLPC   H9X 5771   1.341   3.198   3.539
   68SLPC   H9Y 5772   1.316   3.294   3.390
   68SLPC  C310 5773   1.134   3.216   3.472
   68SLPC  H10X 5774   1.144   3.136   3.396
   68SLPC  H10Y 5775   1.065   3.292   3.429
   68SLPC  C311 5776   1.066   3.157   3.596
   68SLPC  H11X 5777   1.140   3.098   3.654
   68SLPC  H11Y 5778   0.985   3.089   3.563
   68SLPC  C312 5779   1.000   3.263   3.683
   68SLPC  H12X 5780   0.913   3.308   3.630
   68SLPC  H12Y 5781   1.077   3.341   3.696
   68SLPC  C313 5782   0.963   3.217   3.823
   68SLPC  H13X 5783   1.036   3.139   3.854
   68SLPC  H13Y 5784   0.861   3.171   3.825
   68SLPC  C314 5785   0.972   3.334   3.921
   68SLPC  H14X 5786   0.873   3.384   3.923
   68SLPC  H14Y 5787   1.045   3.409   3.885
   68SLPC  C315 5788   1.019   3.290   4.060
   68SLPC  H15X 5789   1.130   3.285   4.061
   68SLPC  H15Y 5790   0.981   3.189   4.083
   68SLPC  C316 5791   0.974   3.384   4.171
   68SLPC  H16X 5792   1.015   3.487   4.156
   68SLPC  H16Y 5793   1.013   3.347   4.268
   68SLPC  C317 5794   0.822   3.394   4.184
   68SLPC  H17X 5795   0.777   3.293   4.195
   68SLPC  H17Y 5796   0.776   3.441   4.094
   68SLPC  C318 5797   0.789   3.478   4.304
   68SLPC  H18X 5798   0.679   3.491   4.309
   68SLPC  H18Y 5799   0.836   3.578   4.301
   68SLPC  H18Z 5800   0.827   3.430   4.396
   69SLPC     N 5801   2.598   6.361   2.722
   69SLPC   C13 5802   2.607   6.228   2.652
   69SLPC  H13A 5803   2.613   6.145   2.721
   69SLPC  H13B 5804   2.518   6.215   2.589
   69SLPC  H13C 5805   2.691   6.225   2.583
   69SLPC   C14 5806   2.726   6.383   2.795
   69SLPC  H14A 5807   2.733   6.482   2.838
   69SLPC  H14B 5808   2.738   6.311   2.875
   69SLPC  H14C 5809   2.811   6.370   2.727
   69SLPC   C15 5810   2.482   6.354   2.817
   69SLPC  H15A 5811   2.473   6.442   2.878
   69SLPC  H15B 5812   2.389   6.341   2.760
   69SLPC  H15C 5813   2.493   6.269   2.883
   69SLPC   C12 5814   2.582   6.469   2.614
   69SLPC  H12A 5815   2.666   6.459   2.545
   69SLPC  H12B 5816   2.595   6.567   2.658
   69SLPC   C11 5817   2.455   6.466   2.526
   69SLPC  H11A 5818   2.463   6.553   2.455
   69SLPC  H11B 5819   2.363   6.482   2.587
   69SLPC     P 5820   2.368   6.323   2.323
   69SLPC   O13 5821   2.372   6.446   2.240
   69SLPC   O14 5822   2.413   6.195   2.263
   69SLPC   O12 5823   2.449   6.342   2.457
   69SLPC   O11 5824   2.220   6.301   2.384
   69SLPC    C1 5825   2.192   6.207   2.490
   69SLPC    HA 5826   2.147   6.116   2.444
   69SLPC    HB 5827   2.283   6.174   2.544
   69SLPC    C2 5828   2.089   6.257   2.599
   69SLPC    HS 5829   2.007   6.310   2.546
   69SLPC   O21 5830   2.153   6.345   2.695
   69SLPC   C21 5831   2.072   6.409   2.780
   69SLPC   O22 5832   1.950   6.404   2.780
   69SLPC   C22 5833   2.155   6.496   2.874
   69SLPC   H2R 5834   2.234   6.433   2.920
   69SLPC   H2S 5835   2.202   6.574   2.811
   69SLPC    C3 5836   2.024   6.134   2.672
   69SLPC    HX 5837   1.967   6.074   2.597
   69SLPC    HY 5838   1.949   6.173   2.744
   69SLPC   O31 5839   2.122   6.050   2.738
   69SLPC   C31 5840   2.068   5.969   2.829
   69SLPC   O32 5841   1.952   5.966   2.862
   69SLPC   C32 5842   2.175   5.877   2.886
   69SLPC   H2X 5843   2.228   5.826   2.804
   69SLPC   H2Y 5844   2.119   5.803   2.948
   69SLPC   C23 5845   2.071   6.564   2.985
   69SLPC   H3R 5846   1.968   6.588   2.949
   69SLPC   H3S 5847   2.118   6.660   3.013
   69SLPC   C24 5848   2.065   6.486   3.116
   69SLPC   H4R 5849   1.996   6.540   3.185
   69SLPC   H4S 5850   2.166   6.485   3.164
   69SLPC   C25 5851   2.016   6.342   3.104
   69SLPC   H5R 5852   2.080   6.281   3.037
   69SLPC   H5S 5853   1.914   6.342   3.060
   69SLPC   C26 5854   2.009   6.277   3.242
   69SLPC   H6R 5855   1.914   6.222   3.249
   69SLPC   H6S 5856   2.011   6.355   3.322
   69SLPC   C27 5857   2.125   6.183   3.270
   69SLPC   H7R 5858   2.214   6.248   3.279
   69SLPC   H7S 5859   2.137   6.115   3.184
   69SLPC   C28 5860   2.117   6.107   3.402
   69SLPC   H8R 5861   2.064   6.169   3.477
   69SLPC   H8S 5862   2.222   6.095   3.439
   69SLPC   C29 5863   2.050   5.975   3.381
   69SLPC   H9R 5864   1.971   5.975   3.303
   69SLPC  C210 5865   2.091   5.858   3.431
   69SLPC  H10R 5866   2.037   5.770   3.400
   69SLPC  C211 5867   2.210   5.830   3.519
   69SLPC  H11R 5868   2.273   5.920   3.526
   69SLPC  H11S 5869   2.271   5.755   3.463
   69SLPC  C212 5870   2.186   5.773   3.657
   69SLPC  H12R 5871   2.103   5.700   3.666
   69SLPC  C213 5872   2.259   5.801   3.767
   69SLPC  H13R 5873   2.233   5.752   3.862
   69SLPC  C214 5874   2.378   5.893   3.775
   69SLPC  H14R 5875   2.425   5.906   3.675
   69SLPC  H14S 5876   2.457   5.851   3.842
   69SLPC  C215 5877   2.339   6.033   3.827
   69SLPC  H15R 5878   2.248   6.069   3.775
   69SLPC  H15S 5879   2.421   6.104   3.802
   69SLPC  C216 5880   2.319   6.037   3.979
   69SLPC  H16R 5881   2.415   6.008   4.028
   69SLPC  H16S 5882   2.241   5.964   4.011
   69SLPC  C217 5883   2.280   6.176   4.029
   69SLPC  H17R 5884   2.171   6.191   4.014
   69SLPC  H17S 5885   2.332   6.252   3.965
   69SLPC  C218 5886   2.319   6.203   4.175
   69SLPC  H18R 5887   2.429   6.196   4.186
   69SLPC  H18S 5888   2.272   6.128   4.242
   69SLPC  H18T 5889   2.287   6.304   4.207
   69SLPC   C33 5890   2.276   5.950   2.976
   69SLPC   H3X 5891   2.221   6.017   3.044
   69SLPC   H3Y 5892   2.345   6.012   2.915
   69SLPC   C34 5893   2.355   5.849   3.061
   69SLPC   H4X 5894   2.394   5.770   2.996
   69SLPC   H4Y 5895   2.286   5.801   3.134
   69SLPC   C35 5896   2.471   5.916   3.136
   69SLPC   H5X 5897   2.525   5.985   3.068
   69SLPC   H5Y 5898   2.543   5.838   3.169
   69SLPC   C36 5899   2.419   5.990   3.259
   69SLPC   H6X 5900   2.438   5.926   3.348
   69SLPC   H6Y 5901   2.309   6.000   3.252
   69SLPC   C37 5902   2.481   6.129   3.283
   69SLPC   H7X 5903   2.590   6.119   3.284
   69SLPC   H7Y 5904   2.448   6.158   3.386
   69SLPC   C38 5905   2.452   6.241   3.183
   69SLPC   H8X 5906   2.349   6.238   3.143
   69SLPC   H8Y 5907   2.517   6.225   3.094
   69SLPC   C39 5908   2.485   6.380   3.243
   69SLPC   H9X 5909   2.457   6.461   3.173
   69SLPC   H9Y 5910   2.595   6.380   3.256
   69SLPC  C310 5911   2.433   6.412   3.385
   69SLPC  H10X 5912   2.490   6.350   3.459
   69SLPC  H10Y 5913   2.326   6.384   3.394
   69SLPC  C311 5914   2.453   6.559   3.428
   69SLPC  H11X 5915   2.383   6.624   3.372
   69SLPC  H11Y 5916   2.557   6.590   3.402
   69SLPC  C312 5917   2.436   6.578   3.579
   69SLPC  H12X 5918   2.455   6.684   3.607
   69SLPC  H12Y 5919   2.513   6.516   3.630
   69SLPC  C313 5920   2.298   6.538   3.633
   69SLPC  H13X 5921   2.256   6.450   3.581
   69SLPC  H13Y 5922   2.228   6.623   3.617
   69SLPC  C314 5923   2.308   6.505   3.783
   69SLPC  H14X 5924   2.382   6.574   3.828
   69SLPC  H14Y 5925   2.348   6.402   3.796
   69SLPC  C315 5926   2.175   6.524   3.855
   69SLPC  H15X 5927   2.104   6.444   3.828
   69SLPC  H15Y 5928   2.131   6.621   3.824
   69SLPC  C316 5929   2.186   6.522   4.008
   69SLPC  H16X 5930   2.268   6.588   4.039
   69SLPC  H16Y 5931   2.209   6.419   4.040
   69SLPC  C317 5932   2.059   6.574   4.076
   69SLPC  H17X 5933   1.983   6.595   3.999
   69SLPC  H17Y 5934   2.087   6.671   4.123
   69SLPC  C318 5935   1.999   6.481   4.183
   69SLPC  H18X 5936   1.999   6.531   4.282
   69SLPC  H18Y 5937   2.054   6.385   4.192
   69SLPC  H18Z 5938   1.894   6.457   4.155
   70SLPC     N 5939   1.265   5.721   2.326
   70SLPC   C13 5940   1.359   5.763   2.435
   70SLPC  H13A 5941   1.310   5.755   2.532
   70SLPC  H13B 5942   1.442   5.694   2.443
   70SLPC  H13C 5943   1.399   5.863   2.423
   70SLPC   C14 5944   1.344   5.717   2.199
   70SLPC  H14A 5945   1.412   5.802   2.195
   70SLPC  H14B 5946   1.406   5.629   2.195
   70SLPC  H14C 5947   1.279   5.720   2.113
   70SLPC   C15 5948   1.158   5.825   2.324
   70SLPC  H15A 5949   1.076   5.799   2.259
   70SLPC  H15B 5950   1.117   5.832   2.426
   70SLPC  H15C 5951   1.199   5.923   2.302
   70SLPC   C12 5952   1.204   5.585   2.358
   70SLPC  H12A 5953   1.283   5.512   2.373
   70SLPC  H12B 5954   1.145   5.552   2.275
   70SLPC   C11 5955   1.111   5.577   2.479
   70SLPC  H11A 5956   1.075   5.471   2.487
   70SLPC  H11B 5957   1.022   5.642   2.464
   70SLPC     P 5958   1.106   5.596   2.736
   70SLPC   O13 5959   1.162   5.476   2.802
   70SLPC   O14 5960   1.108   5.725   2.808
   70SLPC   O12 5961   1.181   5.614   2.597
   70SLPC   O11 5962   0.957   5.568   2.685
   70SLPC    C1 5963   0.891   5.445   2.712
   70SLPC    HA 5964   0.821   5.421   2.629
   70SLPC    HB 5965   0.962   5.359   2.720
   70SLPC    C2 5966   0.807   5.455   2.842
   70SLPC    HS 5967   0.719   5.520   2.819
   70SLPC   O21 5968   0.888   5.512   2.945
   70SLPC   C21 5969   0.821   5.569   3.042
   70SLPC   O22 5970   0.703   5.596   3.040
   70SLPC   C22 5971   0.912   5.584   3.164
   70SLPC   H2R 5972   0.988   5.504   3.159
   70SLPC   H2S 5973   0.965   5.681   3.158
   70SLPC    C3 5974   0.759   5.317   2.889
   70SLPC    HX 5975   0.686   5.279   2.815
   70SLPC    HY 5976   0.706   5.329   2.986
   70SLPC   O31 5977   0.867   5.223   2.897
   70SLPC   C31 5978   0.923   5.214   3.017
   70SLPC   O32 5979   0.882   5.266   3.119
   70SLPC   C32 5980   1.043   5.123   3.006
   70SLPC   H2X 5981   1.039   5.065   2.911
   70SLPC   H2Y 5982   1.042   5.050   3.089
   70SLPC   C23 5983   0.832   5.568   3.295
   70SLPC   H3R 5984   0.901   5.524   3.370
   70SLPC   H3S 5985   0.749   5.494   3.285
   70SLPC   C24 5986   0.779   5.702   3.347
   70SLPC   H4R 5987   0.691   5.734   3.288
   70SLPC   H4S 5988   0.860   5.778   3.334
   70SLPC   C25 5989   0.745   5.697   3.497
   70SLPC   H5R 5990   0.767   5.797   3.541
   70SLPC   H5S 5991   0.812   5.621   3.545
   70SLPC   C26 5992   0.601   5.662   3.532
   70SLPC   H6R 5993   0.576   5.562   3.489
   70SLPC   H6S 5994   0.533   5.736   3.484
   70SLPC   C27 5995   0.576   5.663   3.683
   70SLPC   H7R 5996   0.467   5.671   3.705
   70SLPC   H7S 5997   0.623   5.754   3.727
   70SLPC   C28 5998   0.631   5.542   3.760
   70SLPC   H8R 5999   0.574   5.540   3.856
   70SLPC   H8S 6000   0.736   5.562   3.788
   70SLPC   C29 6001   0.631   5.409   3.692
   70SLPC   H9R 6002   0.690   5.401   3.599
   70SLPC  C210 6003   0.563   5.302   3.734
   70SLPC  H10R 6004   0.580   5.206   3.684
   70SLPC  C211 6005   0.475   5.294   3.855
   70SLPC  H11R 6006   0.373   5.276   3.819
   70SLPC  H11S 6007   0.471   5.387   3.916
   70SLPC  C212 6008   0.509   5.177   3.941
   70SLPC  H12R 6009   0.467   5.083   3.904
   70SLPC  C213 6010   0.591   5.174   4.047
   70SLPC  H13R 6011   0.609   5.077   4.096
   70SLPC  C214 6012   0.669   5.289   4.104
   70SLPC  H14R 6013   0.636   5.316   4.206
   70SLPC  H14S 6014   0.661   5.382   4.043
   70SLPC  C215 6015   0.814   5.243   4.110
   70SLPC  H15R 6016   0.851   5.220   4.007
   70SLPC  H15S 6017   0.824   5.151   4.172
   70SLPC  C216 6018   0.902   5.351   4.171
   70SLPC  H16R 6019   0.862   5.378   4.271
   70SLPC  H16S 6020   0.897   5.442   4.107
   70SLPC  C217 6021   1.046   5.305   4.185
   70SLPC  H17R 6022   1.083   5.274   4.085
   70SLPC  H17S 6023   1.049   5.215   4.250
   70SLPC  C218 6024   1.132   5.416   4.243
   70SLPC  H18R 6025   1.234   5.382   4.266
   70SLPC  H18S 6026   1.086   5.455   4.337
   70SLPC  H18T 6027   1.139   5.500   4.170
   70SLPC   C33 6028   1.173   5.202   3.014
   70SLPC   H3X 6029   1.195   5.259   2.921
   70SLPC   H3Y 6030   1.248   5.124   3.030
   70SLPC   C34 6031   1.196   5.287   3.139
   70SLPC   H4X 6032   1.149   5.387   3.126
   70SLPC   H4Y 6033   1.306   5.304   3.142
   70SLPC   C35 6034   1.151   5.220   3.270
   70SLPC   H5X 6035   1.207   5.127   3.288
   70SLPC   H5Y 6036   1.044   5.190   3.265
   70SLPC   C36 6037   1.165   5.313   3.389
   70SLPC   H6X 6038   1.145   5.259   3.484
   70SLPC   H6Y 6039   1.082   5.384   3.372
   70SLPC   C37 6040   1.299   5.387   3.399
   70SLPC   H7X 6041   1.334   5.424   3.300
   70SLPC   H7Y 6042   1.378   5.318   3.438
   70SLPC   C38 6043   1.289   5.511   3.486
   70SLPC   H8X 6044   1.385   5.565   3.479
   70SLPC   H8Y 6045   1.276   5.481   3.592
   70SLPC   C39 6046   1.174   5.605   3.446
   70SLPC   H9X 6047   1.076   5.556   3.465
   70SLPC   H9Y 6048   1.181   5.630   3.338
   70SLPC  C310 6049   1.170   5.732   3.528
   70SLPC  H10X 6050   1.098   5.806   3.486
   70SLPC  H10Y 6051   1.271   5.776   3.525
   70SLPC  C311 6052   1.144   5.708   3.676
   70SLPC  H11X 6053   1.168   5.806   3.720
   70SLPC  H11Y 6054   1.213   5.634   3.721
   70SLPC  C312 6055   1.000   5.679   3.717
   70SLPC  H12X 6056   0.973   5.572   3.704
   70SLPC  H12Y 6057   0.934   5.744   3.656
   70SLPC  C313 6058   0.994   5.728   3.860
   70SLPC  H13X 6059   1.024   5.835   3.850
   70SLPC  H13Y 6060   1.072   5.672   3.918
   70SLPC  C314 6061   0.867   5.734   3.941
   70SLPC  H14X 6062   0.822   5.633   3.953
   70SLPC  H14Y 6063   0.792   5.802   3.897
   70SLPC  C315 6064   0.912   5.779   4.081
   70SLPC  H15X 6065   0.962   5.688   4.120
   70SLPC  H15Y 6066   0.825   5.801   4.146
   70SLPC  C316 6067   1.012   5.895   4.092
   70SLPC  H16X 6068   0.964   5.991   4.061
   70SLPC  H16Y 6069   1.102   5.881   4.028
   70SLPC  C317 6070   1.067   5.904   4.235
   70SLPC  H17X 6071   0.979   5.913   4.303
   70SLPC  H17Y 6072   1.128   5.997   4.246
   70SLPC  C318 6073   1.151   5.782   4.272
   70SLPC  H18X 6074   1.197   5.793   4.372
   70SLPC  H18Y 6075   1.231   5.764   4.197
   70SLPC  H18Z 6076   1.088   5.691   4.276
   71SLPC     N 6077   7.029   5.510   2.381
   71SLPC   C13 6078   6.994   5.365   2.366
   71SLPC  H13A 6079   6.933   5.333   2.450
   71SLPC  H13B 6080   6.938   5.346   2.276
   71SLPC  H13C 6081   7.083   5.303   2.365
   71SLPC   C14 6082   7.129   5.551   2.278
   71SLPC  H14A 6083   7.143   5.659   2.277
   71SLPC  H14B 6084   7.223   5.501   2.296
   71SLPC  H14C 6085   7.095   5.527   2.178
   71SLPC   C15 6086   7.094   5.525   2.515
   71SLPC  H15A 6087   7.018   5.509   2.592
   71SLPC  H15B 6088   7.172   5.452   2.530
   71SLPC  H15C 6089   7.135   5.623   2.530
   71SLPC   C12 6090   6.901   5.590   2.370
   71SLPC  H12A 6091   6.866   5.588   2.267
   71SLPC  H12B 6092   6.921   5.693   2.395
   71SLPC   C11 6093   6.785   5.544   2.460
   71SLPC  H11A 6094   6.743   5.448   2.422
   71SLPC  H11B 6095   6.704   5.620   2.456
   71SLPC     P 6096   6.744   5.462   2.702
   71SLPC   O13 6097   6.676   5.341   2.649
   71SLPC   O14 6098   6.829   5.449   2.822
   71SLPC   O12 6099   6.832   5.529   2.593
   71SLPC   O11 6100   6.639   5.574   2.718
   71SLPC    C1 6101   6.668   5.714   2.717
   71SLPC    HA 6102   6.776   5.736   2.707
   71SLPC    HB 6103   6.621   5.759   2.627
   71SLPC    C2 6104   6.605   5.777   2.843
   71SLPC    HS 6105   6.618   5.888   2.836
   71SLPC   O21 6106   6.659   5.731   2.969
   71SLPC   C21 6107   6.792   5.728   2.982
   71SLPC   O22 6108   6.873   5.777   2.905
   71SLPC   C22 6109   6.832   5.663   3.116
   71SLPC   H2R 6110   6.749   5.599   3.149
   71SLPC   H2S 6111   6.917   5.595   3.094
   71SLPC    C3 6112   6.453   5.746   2.837
   71SLPC    HX 6113   6.418   5.778   2.736
   71SLPC    HY 6114   6.398   5.803   2.916
   71SLPC   O31 6115   6.427   5.607   2.844
   71SLPC   C31 6116   6.372   5.567   2.955
   71SLPC   O32 6117   6.293   5.632   3.020
   71SLPC   C32 6118   6.423   5.429   2.986
   71SLPC   H2X 6119   6.421   5.371   2.892
   71SLPC   H2Y 6120   6.356   5.383   3.059
   71SLPC   C23 6121   6.871   5.763   3.229
   71SLPC   H3R 6122   6.874   5.866   3.189
   71SLPC   H3S 6123   6.973   5.737   3.265
   71SLPC   C24 6124   6.776   5.764   3.349
   71SLPC   H4R 6125   6.806   5.842   3.422
   71SLPC   H4S 6126   6.779   5.666   3.402
   71SLPC   C25 6127   6.632   5.788   3.304
   71SLPC   H5R 6128   6.599   5.687   3.269
   71SLPC   H5S 6129   6.628   5.855   3.215
   71SLPC   C26 6130   6.538   5.837   3.414
   71SLPC   H6R 6131   6.578   5.928   3.464
   71SLPC   H6S 6132   6.536   5.758   3.492
   71SLPC   C27 6133   6.394   5.861   3.365
   71SLPC   H7R 6134   6.381   5.946   3.297
   71SLPC   H7S 6135   6.327   5.885   3.451
   71SLPC   C28 6136   6.347   5.746   3.279
   71SLPC   H8R 6137   6.420   5.708   3.205
   71SLPC   H8S 6138   6.257   5.776   3.221
   71SLPC   C29 6139   6.311   5.643   3.377
   71SLPC   H9R 6140   6.238   5.689   3.443
   71SLPC  C210 6141   6.352   5.521   3.411
   71SLPC  H10R 6142   6.287   5.470   3.484
   71SLPC  C211 6143   6.457   5.436   3.350
   71SLPC  H11R 6144   6.547   5.498   3.330
   71SLPC  H11S 6145   6.423   5.395   3.254
   71SLPC  C212 6146   6.486   5.323   3.446
   71SLPC  H12R 6147   6.442   5.227   3.418
   71SLPC  C213 6148   6.560   5.335   3.558
   71SLPC  H13R 6149   6.571   5.247   3.623
   71SLPC  C214 6150   6.627   5.462   3.605
   71SLPC  H14R 6151   6.641   5.533   3.520
   71SLPC  H14S 6152   6.727   5.430   3.636
   71SLPC  C215 6153   6.572   5.548   3.722
   71SLPC  H15R 6154   6.633   5.642   3.728
   71SLPC  H15S 6155   6.586   5.495   3.818
   71SLPC  C216 6156   6.425   5.586   3.704
   71SLPC  H16R 6157   6.368   5.493   3.683
   71SLPC  H16S 6158   6.414   5.654   3.617
   71SLPC  C217 6159   6.359   5.659   3.821
   71SLPC  H17R 6160   6.388   5.608   3.914
   71SLPC  H17S 6161   6.251   5.638   3.813
   71SLPC  C218 6162   6.388   5.810   3.819
   71SLPC  H18R 6163   6.461   5.836   3.739
   71SLPC  H18S 6164   6.430   5.848   3.913
   71SLPC  H18T 6165   6.295   5.870   3.799
   71SLPC   C33 6166   6.568   5.428   3.035
   71SLPC   H3X 6167   6.577   5.491   3.126
   71SLPC   H3Y 6168   6.632   5.475   2.958
   71SLPC   C34 6169   6.614   5.284   3.059
   71SLPC   H4X 6170   6.601   5.233   2.961
   71SLPC   H4Y 6171   6.546   5.236   3.133
   71SLPC   C35 6172   6.760   5.266   3.100
   71SLPC   H5X 6173   6.824   5.322   3.028
   71SLPC   H5Y 6174   6.786   5.158   3.091
   71SLPC   C36 6175   6.790   5.312   3.243
   71SLPC   H6X 6176   6.733   5.250   3.314
   71SLPC   H6Y 6177   6.754   5.417   3.255
   71SLPC   C37 6178   6.939   5.309   3.281
   71SLPC   H7X 6179   7.001   5.354   3.200
   71SLPC   H7Y 6180   6.972   5.203   3.293
   71SLPC   C38 6181   6.960   5.386   3.412
   71SLPC   H8X 6182   6.891   5.338   3.485
   71SLPC   H8Y 6183   6.925   5.491   3.397
   71SLPC   C39 6184   7.102   5.389   3.470
   71SLPC   H9X 6185   7.170   5.444   3.401
   71SLPC   H9Y 6186   7.141   5.285   3.480
   71SLPC  C310 6187   7.109   5.456   3.608
   71SLPC  H10X 6188   7.112   5.567   3.595
   71SLPC  H10Y 6189   7.201   5.426   3.661
   71SLPC  C311 6190   6.989   5.429   3.700
   71SLPC  H11X 6191   6.959   5.322   3.701
   71SLPC  H11Y 6192   6.906   5.491   3.661
   71SLPC  C312 6193   7.021   5.478   3.840
   71SLPC  H12X 6194   7.055   5.583   3.826
   71SLPC  H12Y 6195   7.106   5.424   3.885
   71SLPC  C313 6196   6.901   5.478   3.935
   71SLPC  H13X 6197   6.879   5.377   3.976
   71SLPC  H13Y 6198   6.811   5.515   3.882
   71SLPC  C314 6199   6.935   5.579   4.044
   71SLPC  H14X 6200   6.960   5.667   3.981
   71SLPC  H14Y 6201   7.022   5.547   4.106
   71SLPC  C315 6202   6.820   5.630   4.126
   71SLPC  H15X 6203   6.764   5.539   4.157
   71SLPC  H15Y 6204   6.759   5.688   4.054
   71SLPC  C316 6205   6.849   5.714   4.253
   71SLPC  H16X 6206   6.930   5.672   4.314
   71SLPC  H16Y 6207   6.756   5.697   4.308
   71SLPC  C317 6208   6.848   5.869   4.250
   71SLPC  H17X 6209   6.944   5.910   4.214
   71SLPC  H17Y 6210   6.842   5.904   4.355
   71SLPC  C318 6211   6.730   5.932   4.175
   71SLPC  H18X 6212   6.719   5.886   4.074
   71SLPC  H18Y 6213   6.740   6.040   4.159
   71SLPC  H18Z 6214   6.636   5.918   4.231
   72SLPC     N 6215   6.138   6.784   2.391
   72SLPC   C13 6216   6.231   6.728   2.288
   72SLPC  H13A 6217   6.225   6.791   2.199
   72SLPC  H13B 6218   6.334   6.738   2.320
   72SLPC  H13C 6219   6.212   6.624   2.264
   72SLPC   C14 6220   5.996   6.782   2.342
   72SLPC  H14A 6221   5.984   6.843   2.253
   72SLPC  H14B 6222   5.958   6.682   2.328
   72SLPC  H14C 6223   5.933   6.824   2.421
   72SLPC   C15 6224   6.175   6.930   2.408
   72SLPC  H15A 6225   6.173   6.979   2.311
   72SLPC  H15B 6226   6.104   6.981   2.474
   72SLPC  H15C 6227   6.275   6.944   2.448
   72SLPC   C12 6228   6.143   6.710   2.524
   72SLPC  H12A 6229   6.241   6.719   2.565
   72SLPC  H12B 6230   6.123   6.605   2.507
   72SLPC   C11 6231   6.041   6.754   2.630
   72SLPC  H11A 6232   6.017   6.859   2.613
   72SLPC  H11B 6233   6.081   6.743   2.734
   72SLPC     P 6234   5.782   6.716   2.665
   72SLPC   O13 6235   5.702   6.726   2.541
   72SLPC   O14 6236   5.741   6.622   2.772
   72SLPC   O12 6237   5.927   6.673   2.614
   72SLPC   O11 6238   5.800   6.863   2.727
   72SLPC    C1 6239   5.749   6.974   2.649
   72SLPC    HA 6240   5.809   6.985   2.556
   72SLPC    HB 6241   5.645   6.959   2.615
   72SLPC    C2 6242   5.750   7.112   2.724
   72SLPC    HS 6243   5.741   7.188   2.643
   72SLPC   O21 6244   5.867   7.135   2.800
   72SLPC   C21 6245   5.979   7.089   2.757
   72SLPC   O22 6246   6.014   7.077   2.641
   72SLPC   C22 6247   6.065   7.058   2.880
   72SLPC   H2R 6248   6.033   6.957   2.914
   72SLPC   H2S 6249   6.169   7.051   2.844
   72SLPC    C3 6250   5.636   7.141   2.826
   72SLPC    HX 6251   5.541   7.100   2.790
   72SLPC    HY 6252   5.623   7.252   2.826
   72SLPC   O31 6253   5.663   7.088   2.959
   72SLPC   C31 6254   5.644   7.169   3.061
   72SLPC   O32 6255   5.608   7.285   3.054
   72SLPC   C32 6256   5.662   7.100   3.197
   72SLPC   H2X 6257   5.560   7.082   3.236
   72SLPC   H2Y 6258   5.711   7.176   3.261
   72SLPC   C23 6259   6.041   7.163   2.992
   72SLPC   H3R 6260   5.943   7.137   3.039
   72SLPC   H3S 6261   6.030   7.264   2.947
   72SLPC   C24 6262   6.143   7.183   3.104
   72SLPC   H4R 6263   6.083   7.208   3.194
   72SLPC   H4S 6264   6.203   7.274   3.091
   72SLPC   C25 6265   6.233   7.063   3.128
   72SLPC   H5R 6266   6.320   7.083   3.195
   72SLPC   H5S 6267   6.273   7.024   3.032
   72SLPC   C26 6268   6.151   6.957   3.197
   72SLPC   H6R 6269   6.220   6.872   3.195
   72SLPC   H6S 6270   6.060   6.933   3.136
   72SLPC   C27 6271   6.108   6.992   3.339
   72SLPC   H7R 6272   6.030   6.919   3.369
   72SLPC   H7S 6273   6.056   7.090   3.349
   72SLPC   C28 6274   6.220   6.984   3.452
   72SLPC   H8R 6275   6.143   6.995   3.531
   72SLPC   H8S 6276   6.248   7.078   3.397
   72SLPC   C29 6277   6.348   7.024   3.522
   72SLPC   H9R 6278   6.439   7.038   3.461
   72SLPC  C210 6279   6.353   7.046   3.656
   72SLPC  H10R 6280   6.449   7.075   3.702
   72SLPC  C211 6281   6.238   7.035   3.755
   72SLPC  H11R 6282   6.168   6.953   3.729
   72SLPC  H11S 6283   6.178   7.129   3.754
   72SLPC  C212 6284   6.292   7.009   3.893
   72SLPC  H12R 6285   6.287   6.906   3.929
   72SLPC  C213 6286   6.334   7.101   3.978
   72SLPC  H13R 6287   6.372   7.075   4.077
   72SLPC  C214 6288   6.332   7.245   3.949
   72SLPC  H14R 6289   6.329   7.266   3.840
   72SLPC  H14S 6290   6.420   7.296   3.988
   72SLPC  C215 6291   6.200   7.277   4.017
   72SLPC  H15R 6292   6.117   7.224   3.964
   72SLPC  H15S 6293   6.185   7.382   3.997
   72SLPC  C216 6294   6.182   7.251   4.168
   72SLPC  H16R 6295   6.178   7.345   4.225
   72SLPC  H16S 6296   6.269   7.196   4.208
   72SLPC  C217 6297   6.056   7.167   4.195
   72SLPC  H17R 6298   6.072   7.113   4.290
   72SLPC  H17S 6299   6.050   7.089   4.115
   72SLPC  C218 6300   5.923   7.245   4.198
   72SLPC  H18R 6301   5.919   7.322   4.278
   72SLPC  H18S 6302   5.839   7.179   4.221
   72SLPC  H18T 6303   5.901   7.291   4.100
   72SLPC   C33 6304   5.744   6.967   3.204
   72SLPC   H3X 6305   5.847   6.995   3.234
   72SLPC   H3Y 6306   5.752   6.917   3.105
   72SLPC   C34 6307   5.685   6.867   3.307
   72SLPC   H4X 6308   5.590   6.826   3.266
   72SLPC   H4Y 6309   5.659   6.924   3.399
   72SLPC   C35 6310   5.780   6.751   3.346
   72SLPC   H5X 6311   5.883   6.778   3.318
   72SLPC   H5Y 6312   5.755   6.661   3.284
   72SLPC   C36 6313   5.776   6.711   3.496
   72SLPC   H6X 6314   5.689   6.645   3.511
   72SLPC   H6Y 6315   5.760   6.802   3.558
   72SLPC   C37 6316   5.905   6.642   3.549
   72SLPC   H7X 6317   5.975   6.723   3.574
   72SLPC   H7Y 6318   5.946   6.582   3.464
   72SLPC   C38 6319   5.896   6.546   3.670
   72SLPC   H8X 6320   5.928   6.444   3.638
   72SLPC   H8Y 6321   5.791   6.540   3.699
   72SLPC   C39 6322   5.969   6.581   3.801
   72SLPC   H9X 6323   6.077   6.556   3.799
   72SLPC   H9Y 6324   5.925   6.515   3.879
   72SLPC  C310 6325   5.951   6.727   3.843
   72SLPC  H10X 6326   5.842   6.749   3.848
   72SLPC  H10Y 6327   5.996   6.794   3.766
   72SLPC  C311 6328   6.016   6.763   3.976
   72SLPC  H11X 6329   5.993   6.871   3.996
   72SLPC  H11Y 6330   6.127   6.755   3.972
   72SLPC  C312 6331   5.965   6.679   4.093
   72SLPC  H12X 6332   6.049   6.621   4.137
   72SLPC  H12Y 6333   5.886   6.607   4.061
   72SLPC  C313 6334   5.902   6.770   4.196
   72SLPC  H13X 6335   5.969   6.856   4.217
   72SLPC  H13Y 6336   5.892   6.708   4.288
   72SLPC  C314 6337   5.762   6.817   4.152
   72SLPC  H14X 6338   5.690   6.752   4.206
   72SLPC  H14Y 6339   5.749   6.801   4.043
   72SLPC  C315 6340   5.733   6.965   4.179
   72SLPC  H15X 6341   5.777   7.023   4.094
   72SLPC  H15Y 6342   5.786   6.995   4.271
   72SLPC  C316 6343   5.586   7.009   4.194
   72SLPC  H16X 6344   5.550   7.040   4.093
   72SLPC  H16Y 6345   5.584   7.100   4.257
   72SLPC  C317 6346   5.485   6.904   4.246
   72SLPC  H17X 6347   5.490   6.817   4.177
   72SLPC  H17Y 6348   5.383   6.947   4.234
   72SLPC  C318 6349   5.498   6.851   4.390
   72SLPC  H18X 6350   5.589   6.791   4.403
   72SLPC  H18Y 6351   5.413   6.784   4.414
   72SLPC  H18Z 6352   5.499   6.932   4.466
   73POPC     N 6353   3.358   3.099   6.374
   73POPC   C12 6354   3.281   2.984   6.311
   73POPC  H12A 6355   3.197   2.958   6.374
   73POPC  H12B 6356   3.346   2.897   6.303
   73POPC   C13 6357   3.498   3.102   6.321
   73POPC  H13A 6358   3.547   3.190   6.359
   73POPC  H13B 6359   3.555   3.015   6.346
   73POPC  H13C 6360   3.489   3.108   6.212
   73POPC   C14 6361   3.297   3.228   6.328
   73POPC  H14A 6362   3.204   3.247   6.377
   73POPC  H14B 6363   3.364   3.312   6.342
   73POPC  H14C 6364   3.278   3.219   6.220
   73POPC   C15 6365   3.358   3.096   6.523
   73POPC  H15A 6366   3.422   3.019   6.563
   73POPC  H15B 6367   3.258   3.087   6.565
   73POPC  H15C 6368   3.400   3.190   6.562
   73POPC   C11 6369   3.224   3.006   6.169
   73POPC  H11A 6370   3.134   3.071   6.173
   73POPC  H11B 6371   3.190   2.907   6.127
   73POPC     P 6372   3.321   3.053   5.931
   73POPC   O13 6373   3.347   3.187   5.872
   73POPC   O14 6374   3.200   2.979   5.888
   73POPC   O12 6375   3.322   3.068   6.088
   73POPC   O11 6376   3.451   2.963   5.918
   73POPC    C1 6377   3.566   2.990   5.998
   73POPC    HA 6378   3.574   2.913   6.078
   73POPC    HB 6379   3.561   3.091   6.046
   73POPC    C2 6380   3.698   2.991   5.916
   73POPC    HS 6381   3.768   3.053   5.975
   73POPC   O21 6382   3.680   3.043   5.782
   73POPC   C21 6383   3.672   3.175   5.778
   73POPC   O22 6384   3.692   3.248   5.875
   73POPC   C22 6385   3.650   3.234   5.636
   73POPC   H2R 6386   3.746   3.283   5.608
   73POPC   H2S 6387   3.573   3.312   5.646
   73POPC    C3 6388   3.761   2.848   5.909
   73POPC    HX 6389   3.795   2.822   6.012
   73POPC    HY 6390   3.853   2.850   5.846
   73POPC   O31 6391   3.667   2.747   5.867
   73POPC   C31 6392   3.648   2.750   5.736
   73POPC   O32 6393   3.712   2.814   5.656
   73POPC   C32 6394   3.532   2.660   5.696
   73POPC   H2X 6395   3.515   2.587   5.778
   73POPC   H2Y 6396   3.560   2.606   5.604
   73POPC   C23 6397   3.609   3.135   5.523
   73POPC   H3R 6398   3.501   3.112   5.531
   73POPC   H3S 6399   3.663   3.039   5.541
   73POPC   C24 6400   3.648   3.178   5.379
   73POPC   H4R 6401   3.683   3.086   5.327
   73POPC   H4S 6402   3.734   3.249   5.383
   73POPC   C25 6403   3.539   3.236   5.287
   73POPC   H5R 6404   3.496   3.329   5.329
   73POPC   H5S 6405   3.458   3.161   5.279
   73POPC   C26 6406   3.591   3.260   5.143
   73POPC   H6R 6407   3.504   3.270   5.075
   73POPC   H6S 6408   3.650   3.172   5.109
   73POPC   C27 6409   3.675   3.387   5.129
   73POPC   H7R 6410   3.765   3.382   5.194
   73POPC   H7S 6411   3.610   3.469   5.165
   73POPC   C28 6412   3.716   3.423   4.985
   73POPC   H8R 6413   3.762   3.524   4.985
   73POPC   H8S 6414   3.621   3.433   4.928
   73POPC   C29 6415   3.812   3.327   4.921
   73POPC   H91 6416   3.910   3.317   4.970
   73POPC  C210 6417   3.785   3.254   4.812
   73POPC  H101 6418   3.863   3.189   4.770
   73POPC  C211 6419   3.655   3.256   4.735
   73POPC  H11R 6420   3.569   3.245   4.806
   73POPC  H11S 6421   3.647   3.169   4.667
   73POPC  C212 6422   3.634   3.383   4.652
   73POPC  H12R 6423   3.613   3.469   4.720
   73POPC  H12S 6424   3.544   3.370   4.588
   73POPC  C213 6425   3.753   3.427   4.565
   73POPC  H13R 6426   3.835   3.465   4.631
   73POPC  H13S 6427   3.719   3.512   4.503
   73POPC  C214 6428   3.816   3.324   4.471
   73POPC  H14R 6429   3.739   3.270   4.412
   73POPC  H14S 6430   3.875   3.248   4.528
   73POPC  C215 6431   3.907   3.403   4.375
   73POPC  H15R 6432   3.972   3.471   4.435
   73POPC  H15S 6433   3.842   3.466   4.312
   73POPC  C216 6434   3.995   3.315   4.287
   73POPC  H16R 6435   4.025   3.370   4.194
   73POPC  H16S 6436   3.938   3.225   4.256
   73POPC  C217 6437   4.120   3.270   4.362
   73POPC  H17R 6438   4.162   3.183   4.309
   73POPC  H17S 6439   4.093   3.234   4.463
   73POPC  C218 6440   4.228   3.378   4.370
   73POPC  H18R 6441   4.298   3.371   4.284
   73POPC  H18S 6442   4.286   3.368   4.464
   73POPC  H18T 6443   4.181   3.479   4.366
   73POPC   C33 6444   3.407   2.746   5.674
   73POPC   H3X 6445   3.397   2.822   5.754
   73POPC   H3Y 6446   3.317   2.683   5.684
   73POPC   C34 6447   3.401   2.820   5.540
   73POPC   H4X 6448   3.397   2.746   5.457
   73POPC   H4Y 6449   3.493   2.881   5.525
   73POPC   C35 6450   3.278   2.913   5.538
   73POPC   H5X 6451   3.284   2.981   5.627
   73POPC   H5Y 6452   3.187   2.850   5.552
   73POPC   C36 6453   3.260   2.999   5.412
   73POPC   H6X 6454   3.324   3.089   5.419
   73POPC   H6Y 6455   3.154   3.034   5.410
   73POPC   C37 6456   3.292   2.920   5.286
   73POPC   H7X 6457   3.252   2.818   5.302
   73POPC   H7Y 6458   3.402   2.912   5.272
   73POPC   C38 6459   3.226   2.972   5.158
   73POPC   H8X 6460   3.272   3.067   5.123
   73POPC   H8Y 6461   3.119   2.991   5.180
   73POPC   C39 6462   3.234   2.862   5.051
   73POPC   H9X 6463   3.136   2.848   5.001
   73POPC   H9Y 6464   3.256   2.766   5.101
   73POPC  C310 6465   3.338   2.883   4.940
   73POPC  H10X 6466   3.437   2.907   4.984
   73POPC  H10Y 6467   3.305   2.968   4.877
   73POPC  C311 6468   3.345   2.752   4.859
   73POPC  H11X 6469   3.241   2.722   4.833
   73POPC  H11Y 6470   3.388   2.674   4.926
   73POPC  C312 6471   3.427   2.757   4.730
   73POPC  H12X 6472   3.414   2.661   4.676
   73POPC  H12Y 6473   3.534   2.763   4.757
   73POPC  C313 6474   3.386   2.873   4.639
   73POPC  H13X 6475   3.411   2.970   4.688
   73POPC  H13Y 6476   3.276   2.867   4.632
   73POPC  C314 6477   3.450   2.872   4.499
   73POPC  H14X 6478   3.428   2.776   4.448
   73POPC  H14Y 6479   3.561   2.881   4.509
   73POPC  C315 6480   3.400   2.988   4.412
   73POPC  H15X 6481   3.461   2.997   4.320
   73POPC  H15Y 6482   3.411   3.083   4.470
   73POPC  C316 6483   3.254   2.970   4.374
   73POPC  H16X 6484   3.240   2.896   4.292
   73POPC  H16Y 6485   3.203   3.065   4.348
   73POPC  H16Z 6486   3.202   2.930   4.461
   74POPC     N 6487   5.140   3.938   6.341
   74POPC   C12 6488   5.144   4.090   6.325
   74POPC  H12A 6489   5.184   4.134   6.415
   74POPC  H12B 6490   5.043   4.127   6.310
   74POPC   C13 6491   5.089   3.903   6.477
   74POPC  H13A 6492   4.996   3.955   6.500
   74POPC  H13B 6493   5.073   3.797   6.489
   74POPC  H13C 6494   5.160   3.935   6.552
   74POPC   C14 6495   5.054   3.883   6.231
   74POPC  H14A 6496   4.958   3.933   6.229
   74POPC  H14B 6497   5.098   3.914   6.135
   74POPC  H14C 6498   5.044   3.776   6.232
   74POPC   C15 6499   5.280   3.889   6.324
   74POPC  H15A 6500   5.350   3.954   6.377
   74POPC  H15B 6501   5.307   3.903   6.219
   74POPC  H15C 6502   5.292   3.786   6.352
   74POPC   C11 6503   5.226   4.146   6.206
   74POPC  H11A 6504   5.335   4.125   6.218
   74POPC  H11B 6505   5.214   4.257   6.212
   74POPC     P 6506   5.201   4.181   5.951
   74POPC   O13 6507   5.298   4.288   5.983
   74POPC   O14 6508   5.068   4.227   5.906
   74POPC   O12 6509   5.179   4.091   6.083
   74POPC   O11 6510   5.263   4.076   5.848
   74POPC    C1 6511   5.276   3.937   5.884
   74POPC    HA 6512   5.176   3.896   5.910
   74POPC    HB 6513   5.342   3.928   5.973
   74POPC    C2 6514   5.339   3.844   5.772
   74POPC    HS 6515   5.383   3.758   5.828
   74POPC   O21 6516   5.441   3.903   5.690
   74POPC   C21 6517   5.510   3.998   5.750
   74POPC   O22 6518   5.562   3.984   5.860
   74POPC   C22 6519   5.507   4.122   5.658
   74POPC   H2R 6520   5.606   4.126   5.608
   74POPC   H2S 6521   5.501   4.210   5.726
   74POPC    C3 6522   5.237   3.784   5.671
   74POPC    HX 6523   5.151   3.742   5.727
   74POPC    HY 6524   5.289   3.698   5.622
   74POPC   O31 6525   5.199   3.880   5.570
   74POPC   C31 6526   5.072   3.919   5.563
   74POPC   O32 6527   4.979   3.869   5.624
   74POPC   C32 6528   5.059   4.028   5.456
   74POPC   H2X 6529   5.153   4.086   5.452
   74POPC   H2Y 6530   4.977   4.096   5.487
   74POPC   C23 6531   5.391   4.129   5.551
   74POPC   H3R 6532   5.298   4.154   5.606
   74POPC   H3S 6533   5.377   4.029   5.505
   74POPC   C24 6534   5.418   4.230   5.437
   74POPC   H4R 6535   5.527   4.244   5.429
   74POPC   H4S 6536   5.376   4.328   5.471
   74POPC   C25 6537   5.363   4.207   5.292
   74POPC   H5R 6538   5.414   4.278   5.224
   74POPC   H5S 6539   5.259   4.243   5.293
   74POPC   C26 6540   5.382   4.073   5.217
   74POPC   H6R 6541   5.329   3.990   5.268
   74POPC   H6S 6542   5.489   4.047   5.212
   74POPC   C27 6543   5.338   4.080   5.068
   74POPC   H7R 6544   5.408   4.140   5.007
   74POPC   H7S 6545   5.245   4.138   5.062
   74POPC   C28 6546   5.318   3.944   4.999
   74POPC   H8R 6547   5.272   3.961   4.899
   74POPC   H8S 6548   5.245   3.884   5.058
   74POPC   C29 6549   5.448   3.870   4.988
   74POPC   H91 6550   5.483   3.824   5.083
   74POPC  C210 6551   5.525   3.860   4.878
   74POPC  H101 6552   5.621   3.808   4.886
   74POPC  C211 6553   5.496   3.920   4.742
   74POPC  H11R 6554   5.590   3.964   4.702
   74POPC  H11S 6555   5.424   4.004   4.750
   74POPC  C212 6556   5.443   3.823   4.634
   74POPC  H12R 6557   5.502   3.729   4.634
   74POPC  H12S 6558   5.459   3.871   4.534
   74POPC  C213 6559   5.294   3.796   4.650
   74POPC  H13R 6560   5.238   3.892   4.643
   74POPC  H13S 6561   5.277   3.757   4.754
   74POPC  C214 6562   5.231   3.695   4.554
   74POPC  H14R 6563   5.122   3.707   4.570
   74POPC  H14S 6564   5.260   3.592   4.585
   74POPC  C215 6565   5.252   3.706   4.402
   74POPC  H15R 6566   5.360   3.697   4.378
   74POPC  H15S 6567   5.218   3.807   4.368
   74POPC  C216 6568   5.170   3.593   4.336
   74POPC  H16R 6569   5.091   3.563   4.409
   74POPC  H16S 6570   5.232   3.502   4.326
   74POPC  C217 6571   5.092   3.619   4.207
   74POPC  H17R 6572   5.013   3.540   4.202
   74POPC  H17S 6573   5.156   3.602   4.118
   74POPC  C218 6574   5.020   3.754   4.199
   74POPC  H18R 6575   4.937   3.748   4.126
   74POPC  H18S 6576   5.085   3.837   4.168
   74POPC  H18T 6577   4.982   3.782   4.299
   74POPC   C33 6578   5.029   3.965   5.317
   74POPC   H3X 6579   4.929   3.918   5.315
   74POPC   H3Y 6580   5.106   3.885   5.300
   74POPC   C34 6581   5.044   4.064   5.202
   74POPC   H4X 6582   5.067   4.010   5.107
   74POPC   H4Y 6583   5.130   4.126   5.226
   74POPC   C35 6584   4.930   4.162   5.176
   74POPC   H5X 6585   4.884   4.191   5.273
   74POPC   H5Y 6586   4.856   4.107   5.114
   74POPC   C36 6587   4.973   4.287   5.096
   74POPC   H6X 6588   5.061   4.335   5.144
   74POPC   H6Y 6589   4.890   4.360   5.098
   74POPC   C37 6590   5.005   4.248   4.950
   74POPC   H7X 6591   4.920   4.188   4.912
   74POPC   H7Y 6592   5.093   4.182   4.948
   74POPC   C38 6593   5.029   4.364   4.853
   74POPC   H8X 6594   5.120   4.421   4.883
   74POPC   H8Y 6595   4.943   4.434   4.858
   74POPC   C39 6596   5.044   4.315   4.707
   74POPC   H9X 6597   5.074   4.401   4.643
   74POPC   H9Y 6598   4.944   4.281   4.671
   74POPC  C310 6599   5.143   4.198   4.684
   74POPC  H10X 6600   5.101   4.106   4.732
   74POPC  H10Y 6601   5.239   4.221   4.736
   74POPC  C311 6602   5.169   4.169   4.535
   74POPC  H11X 6603   5.117   4.245   4.474
   74POPC  H11Y 6604   5.126   4.070   4.509
   74POPC  C312 6605   5.318   4.167   4.493
   74POPC  H12X 6606   5.368   4.081   4.544
   74POPC  H12Y 6607   5.368   4.260   4.527
   74POPC  C313 6608   5.341   4.150   4.342
   74POPC  H13X 6609   5.299   4.238   4.289
   74POPC  H13Y 6610   5.286   4.060   4.305
   74POPC  C314 6611   5.490   4.137   4.306
   74POPC  H14X 6612   5.537   4.059   4.370
   74POPC  H14Y 6613   5.535   4.234   4.333
   74POPC  C315 6614   5.523   4.105   4.159
   74POPC  H15X 6615   5.521   3.995   4.144
   74POPC  H15Y 6616   5.627   4.139   4.136
   74POPC  C316 6617   5.429   4.173   4.060
   74POPC  H16X 6618   5.433   4.282   4.078
   74POPC  H16Y 6619   5.325   4.137   4.076
   74POPC  H16Z 6620   5.455   4.153   3.954
   75POPC     N 6621   3.169   6.637   6.081
   75POPC   C12 6622   3.076   6.520   6.108
   75POPC  H12A 6623   3.122   6.427   6.077
   75POPC  H12B 6624   2.989   6.536   6.045
   75POPC   C13 6625   3.293   6.626   6.165
   75POPC  H13A 6626   3.346   6.534   6.144
   75POPC  H13B 6627   3.360   6.710   6.144
   75POPC  H13C 6628   3.268   6.629   6.271
   75POPC   C14 6629   3.208   6.638   5.936
   75POPC  H14A 6630   3.257   6.547   5.904
   75POPC  H14B 6631   3.120   6.648   5.872
   75POPC  H14C 6632   3.273   6.721   5.912
   75POPC   C15 6633   3.095   6.765   6.111
   75POPC  H15A 6634   3.009   6.775   6.045
   75POPC  H15B 6635   3.158   6.853   6.105
   75POPC  H15C 6636   3.053   6.759   6.211
   75POPC   C11 6637   3.015   6.497   6.250
   75POPC  H11A 6638   3.097   6.481   6.322
   75POPC  H11B 6639   2.957   6.402   6.248
   75POPC     P 6640   2.787   6.623   6.235
   75POPC   O13 6641   2.733   6.751   6.285
   75POPC   O14 6642   2.712   6.498   6.250
   75POPC   O12 6643   2.933   6.605   6.295
   75POPC   O11 6644   2.820   6.638   6.081
   75POPC    C1 6645   2.785   6.529   5.994
   75POPC    HA 6646   2.675   6.519   5.991
   75POPC    HB 6647   2.827   6.433   6.029
   75POPC    C2 6648   2.839   6.559   5.854
   75POPC    HS 6649   2.941   6.600   5.867
   75POPC   O21 6650   2.750   6.652   5.799
   75POPC   C21 6651   2.788   6.774   5.791
   75POPC   O22 6652   2.900   6.821   5.808
   75POPC   C22 6653   2.665   6.853   5.751
   75POPC   H2R 6654   2.701   6.935   5.688
   75POPC   H2S 6655   2.622   6.894   5.845
   75POPC    C3 6656   2.847   6.440   5.755
   75POPC    HX 6657   2.746   6.395   5.746
   75POPC    HY 6658   2.915   6.361   5.794
   75POPC   O31 6659   2.887   6.488   5.624
   75POPC   C31 6660   3.013   6.532   5.619
   75POPC   O32 6661   3.098   6.510   5.704
   75POPC   C32 6662   3.035   6.616   5.493
   75POPC   H2X 6663   2.983   6.713   5.509
   75POPC   H2Y 6664   2.988   6.563   5.408
   75POPC   C23 6665   2.555   6.770   5.679
   75POPC   H3R 6666   2.467   6.836   5.660
   75POPC   H3S 6667   2.525   6.689   5.746
   75POPC   C24 6668   2.595   6.697   5.551
   75POPC   H4R 6669   2.508   6.640   5.511
   75POPC   H4S 6670   2.675   6.623   5.574
   75POPC   C25 6671   2.644   6.797   5.451
   75POPC   H5R 6672   2.716   6.864   5.503
   75POPC   H5S 6673   2.556   6.857   5.419
   75POPC   C26 6674   2.721   6.739   5.334
   75POPC   H6R 6675   2.653   6.713   5.250
   75POPC   H6S 6676   2.772   6.645   5.366
   75POPC   C27 6677   2.827   6.841   5.292
   75POPC   H7R 6678   2.922   6.812   5.338
   75POPC   H7S 6679   2.802   6.940   5.336
   75POPC   C28 6680   2.835   6.864   5.142
   75POPC   H8R 6681   2.897   6.954   5.124
   75POPC   H8S 6682   2.733   6.892   5.112
   75POPC   C29 6683   2.886   6.750   5.057
   75POPC   H91 6684   2.992   6.726   5.070
   75POPC  C210 6685   2.813   6.677   4.971
   75POPC  H101 6686   2.864   6.607   4.903
   75POPC  C211 6687   2.666   6.696   4.947
   75POPC  H11R 6688   2.620   6.751   5.030
   75POPC  H11S 6689   2.613   6.599   4.950
   75POPC  C212 6690   2.631   6.764   4.813
   75POPC  H12R 6691   2.705   6.844   4.788
   75POPC  H12S 6692   2.532   6.814   4.821
   75POPC  C213 6693   2.624   6.657   4.705
   75POPC  H13R 6694   2.581   6.565   4.751
   75POPC  H13S 6695   2.727   6.633   4.671
   75POPC  C214 6696   2.535   6.688   4.585
   75POPC  H14R 6697   2.563   6.787   4.543
   75POPC  H14S 6698   2.429   6.694   4.616
   75POPC  C215 6699   2.551   6.579   4.479
   75POPC  H15R 6700   2.492   6.489   4.503
   75POPC  H15S 6701   2.659   6.550   4.476
   75POPC  C216 6702   2.516   6.626   4.340
   75POPC  H16R 6703   2.589   6.709   4.332
   75POPC  H16S 6704   2.409   6.658   4.336
   75POPC  C217 6705   2.551   6.528   4.230
   75POPC  H17R 6706   2.480   6.442   4.236
   75POPC  H17S 6707   2.653   6.498   4.260
   75POPC  C218 6708   2.560   6.571   4.083
   75POPC  H18R 6709   2.608   6.489   4.025
   75POPC  H18S 6710   2.621   6.661   4.067
   75POPC  H18T 6711   2.460   6.585   4.040
   75POPC   C33 6712   3.185   6.643   5.463
   75POPC   H3X 6713   3.240   6.546   5.474
   75POPC   H3Y 6714   3.228   6.712   5.539
   75POPC   C34 6715   3.221   6.694   5.321
   75POPC   H4X 6716   3.182   6.626   5.242
   75POPC   H4Y 6717   3.331   6.689   5.316
   75POPC   C35 6718   3.184   6.840   5.286
   75POPC   H5X 6719   3.179   6.899   5.380
   75POPC   H5Y 6720   3.084   6.840   5.239
   75POPC   C36 6721   3.276   6.913   5.186
   75POPC   H6X 6722   3.357   6.846   5.149
   75POPC   H6Y 6723   3.324   6.996   5.241
   75POPC   C37 6724   3.204   6.975   5.064
   75POPC   H7X 6725   3.261   7.064   5.030
   75POPC   H7Y 6726   3.103   7.010   5.095
   75POPC   C38 6727   3.195   6.878   4.945
   75POPC   H8X 6728   3.168   6.776   4.981
   75POPC   H8Y 6729   3.297   6.869   4.900
   75POPC   C39 6730   3.096   6.921   4.836
   75POPC   H9X 6731   3.103   7.030   4.817
   75POPC   H9Y 6732   2.992   6.900   4.870
   75POPC  C310 6733   3.122   6.843   4.706
   75POPC  H10X 6734   3.146   6.738   4.735
   75POPC  H10Y 6735   3.213   6.886   4.657
   75POPC  C311 6736   3.005   6.841   4.606
   75POPC  H11X 6737   2.969   6.944   4.588
   75POPC  H11Y 6738   2.921   6.784   4.652
   75POPC  C312 6739   3.043   6.777   4.471
   75POPC  H12X 6740   3.112   6.847   4.418
   75POPC  H12Y 6741   2.952   6.764   4.409
   75POPC  C313 6742   3.114   6.641   4.483
   75POPC  H13X 6743   3.201   6.651   4.551
   75POPC  H13Y 6744   3.153   6.610   4.384
   75POPC  C314 6745   3.021   6.532   4.536
   75POPC  H14X 6746   2.941   6.517   4.460
   75POPC  H14Y 6747   2.972   6.565   4.630
   75POPC  C315 6748   3.092   6.399   4.561
   75POPC  H15X 6749   3.153   6.407   4.654
   75POPC  H15Y 6750   3.162   6.377   4.477
   75POPC  C316 6751   2.990   6.286   4.574
   75POPC  H16X 6752   3.037   6.188   4.592
   75POPC  H16Y 6753   2.931   6.280   4.480
   75POPC  H16Z 6754   2.922   6.308   4.659
   76POPC     N 6755   6.733   5.632   6.244
   76POPC   C12 6756   6.662   5.727   6.149
   76POPC  H12A 6757   6.701   5.713   6.048
   76POPC  H12B 6758   6.685   5.830   6.176
   76POPC   C13 6759   6.722   5.493   6.191
   76POPC  H13A 6760   6.757   5.420   6.261
   76POPC  H13B 6761   6.617   5.472   6.169
   76POPC  H13C 6762   6.775   5.481   6.097
   76POPC   C14 6763   6.876   5.668   6.258
   76POPC  H14A 6764   6.930   5.593   6.314
   76POPC  H14B 6765   6.921   5.676   6.159
   76POPC  H14C 6766   6.886   5.764   6.307
   76POPC   C15 6767   6.666   5.637   6.379
   76POPC  H15A 6768   6.558   5.626   6.366
   76POPC  H15B 6769   6.683   5.732   6.428
   76POPC  H15C 6770   6.697   5.556   6.444
   76POPC   C11 6771   6.508   5.712   6.140
   76POPC  H11A 6772   6.470   5.785   6.065
   76POPC  H11B 6773   6.462   5.737   6.238
   76POPC     P 6774   6.336   5.511   6.119
   76POPC   O13 6775   6.265   5.577   6.229
   76POPC   O14 6776   6.363   5.367   6.137
   76POPC   O12 6777   6.476   5.580   6.100
   76POPC   O11 6778   6.260   5.542   5.985
   76POPC    C1 6779   6.294   5.487   5.858
   76POPC    HA 6780   6.208   5.503   5.788
   76POPC    HB 6781   6.306   5.377   5.867
   76POPC    C2 6782   6.423   5.546   5.792
   76POPC    HS 6783   6.502   5.544   5.872
   76POPC   O21 6784   6.404   5.681   5.741
   76POPC   C21 6785   6.523   5.740   5.716
   76POPC   O22 6786   6.631   5.692   5.744
   76POPC   C22 6787   6.508   5.875   5.644
   76POPC   H2R 6788   6.441   5.938   5.704
   76POPC   H2S 6789   6.465   5.861   5.543
   76POPC    C3 6790   6.468   5.448   5.679
   76POPC    HX 6791   6.476   5.348   5.726
   76POPC    HY 6792   6.570   5.472   5.641
   76POPC   O31 6793   6.367   5.444   5.575
   76POPC   C31 6794   6.377   5.543   5.487
   76POPC   O32 6795   6.476   5.610   5.466
   76POPC   C32 6796   6.245   5.566   5.415
   76POPC   H2X 6797   6.201   5.657   5.462
   76POPC   H2Y 6798   6.178   5.480   5.433
   76POPC   C23 6799   6.640   5.955   5.640
   76POPC   H3R 6800   6.714   5.905   5.574
   76POPC   H3S 6801   6.680   5.953   5.745
   76POPC   C24 6802   6.626   6.105   5.605
   76POPC   H4R 6803   6.714   6.159   5.644
   76POPC   H4S 6804   6.539   6.143   5.662
   76POPC   C25 6805   6.609   6.138   5.455
   76POPC   H5R 6806   6.668   6.229   5.428
   76POPC   H5S 6807   6.502   6.164   5.439
   76POPC   C26 6808   6.641   6.025   5.355
   76POPC   H6R 6809   6.597   5.930   5.394
   76POPC   H6S 6810   6.749   6.007   5.344
   76POPC   C27 6811   6.572   6.046   5.220
   76POPC   H7R 6812   6.636   6.104   5.150
   76POPC   H7S 6813   6.480   6.106   5.237
   76POPC   C28 6814   6.523   5.914   5.158
   76POPC   H8R 6815   6.433   5.942   5.101
   76POPC   H8S 6816   6.488   5.843   5.236
   76POPC   C29 6817   6.622   5.847   5.067
   76POPC   H91 6818   6.712   5.811   5.117
   76POPC  C210 6819   6.602   5.820   4.937
   76POPC  H101 6820   6.688   5.783   4.880
   76POPC  C211 6821   6.478   5.851   4.857
   76POPC  H11R 6822   6.503   5.880   4.753
   76POPC  H11S 6823   6.429   5.941   4.898
   76POPC  C212 6824   6.372   5.737   4.857
   76POPC  H12R 6825   6.275   5.781   4.826
   76POPC  H12S 6826   6.361   5.699   4.961
   76POPC  C213 6827   6.404   5.621   4.762
   76POPC  H13R 6828   6.489   5.568   4.808
   76POPC  H13S 6829   6.442   5.665   4.669
   76POPC  C214 6830   6.293   5.520   4.726
   76POPC  H14R 6831   6.244   5.478   4.817
   76POPC  H14S 6832   6.343   5.435   4.674
   76POPC  C215 6833   6.186   5.577   4.632
   76POPC  H15R 6834   6.233   5.662   4.578
   76POPC  H15S 6835   6.101   5.618   4.691
   76POPC  C216 6836   6.132   5.480   4.526
   76POPC  H16R 6837   6.060   5.409   4.572
   76POPC  H16S 6838   6.214   5.418   4.482
   76POPC  C217 6839   6.063   5.556   4.411
   76POPC  H17R 6840   5.995   5.632   4.453
   76POPC  H17S 6841   6.001   5.484   4.352
   76POPC  C218 6842   6.163   5.624   4.318
   76POPC  H18R 6843   6.212   5.711   4.365
   76POPC  H18S 6844   6.117   5.658   4.223
   76POPC  H18T 6845   6.240   5.549   4.294
   76POPC   C33 6846   6.266   5.596   5.265
   76POPC   H3X 6847   6.370   5.629   5.242
   76POPC   H3Y 6848   6.199   5.679   5.235
   76POPC   C34 6849   6.231   5.479   5.173
   76POPC   H4X 6850   6.234   5.510   5.067
   76POPC   H4Y 6851   6.127   5.448   5.195
   76POPC   C35 6852   6.322   5.359   5.195
   76POPC   H5X 6853   6.266   5.274   5.155
   76POPC   H5Y 6854   6.334   5.339   5.304
   76POPC   C36 6855   6.460   5.366   5.130
   76POPC   H6X 6856   6.522   5.280   5.163
   76POPC   H6Y 6857   6.510   5.461   5.161
   76POPC   C37 6858   6.457   5.364   4.977
   76POPC   H7X 6859   6.417   5.463   4.950
   76POPC   H7Y 6860   6.383   5.290   4.939
   76POPC   C38 6861   6.594   5.339   4.912
   76POPC   H8X 6862   6.578   5.329   4.803
   76POPC   H8Y 6863   6.637   5.243   4.947
   76POPC   C39 6864   6.706   5.441   4.945
   76POPC   H9X 6865   6.752   5.411   5.041
   76POPC   H9Y 6866   6.661   5.541   4.961
   76POPC  C310 6867   6.810   5.452   4.832
   76POPC  H10X 6868   6.837   5.351   4.793
   76POPC  H10Y 6869   6.903   5.501   4.869
   76POPC  C311 6870   6.743   5.538   4.725
   76POPC  H11X 6871   6.729   5.640   4.765
   76POPC  H11Y 6872   6.643   5.492   4.717
   76POPC  C312 6873   6.782   5.547   4.579
   76POPC  H12X 6874   6.802   5.446   4.537
   76POPC  H12Y 6875   6.870   5.612   4.562
   76POPC  C313 6876   6.656   5.607   4.511
   76POPC  H13X 6877   6.565   5.560   4.554
   76POPC  H13Y 6878   6.649   5.574   4.406
   76POPC  C314 6879   6.639   5.759   4.529
   76POPC  H14X 6880   6.728   5.812   4.490
   76POPC  H14Y 6881   6.636   5.784   4.636
   76POPC  C315 6882   6.510   5.807   4.458
   76POPC  H15X 6883   6.426   5.739   4.483
   76POPC  H15Y 6884   6.527   5.792   4.351
   76POPC  C316 6885   6.465   5.952   4.476
   76POPC  H16X 6886   6.415   5.966   4.574
   76POPC  H16Y 6887   6.390   5.976   4.397
   76POPC  H16Z 6888   6.549   6.023   4.467
   77POPC     N 6889   4.479   2.794   2.149
   77POPC   C12 6890   4.574   2.800   2.269
   77POPC  H12A 6891   4.519   2.842   2.353
   77POPC  H12B 6892   4.657   2.866   2.248
   77POPC   C13 6893   4.342   2.764   2.202
   77POPC  H13A 6894   4.318   2.827   2.287
   77POPC  H13B 6895   4.266   2.769   2.127
   77POPC  H13C 6896   4.344   2.663   2.246
   77POPC   C14 6897   4.480   2.921   2.069
   77POPC  H14A 6898   4.395   2.927   2.002
   77POPC  H14B 6899   4.480   3.008   2.133
   77POPC  H14C 6900   4.569   2.926   2.006
   77POPC   C15 6901   4.519   2.683   2.058
   77POPC  H15A 6902   4.608   2.706   2.002
   77POPC  H15B 6903   4.439   2.657   1.989
   77POPC  H15C 6904   4.542   2.596   2.119
   77POPC   C11 6905   4.630   2.666   2.326
   77POPC  H11A 6906   4.687   2.689   2.420
   77POPC  H11B 6907   4.703   2.622   2.256
   77POPC     P 6908   4.441   2.586   2.484
   77POPC   O13 6909   4.337   2.482   2.478
   77POPC   O14 6910   4.395   2.727   2.492
   77POPC   O12 6911   4.525   2.572   2.349
   77POPC   O11 6912   4.548   2.553   2.593
   77POPC    C1 6913   4.586   2.417   2.614
   77POPC    HA 6914   4.675   2.394   2.550
   77POPC    HB 6915   4.506   2.344   2.587
   77POPC    C2 6916   4.628   2.401   2.761
   77POPC    HS 6917   4.685   2.306   2.774
   77POPC   O21 6918   4.517   2.404   2.854
   77POPC   C21 6919   4.439   2.297   2.846
   77POPC   O22 6920   4.456   2.202   2.771
   77POPC   C22 6921   4.330   2.304   2.953
   77POPC   H2R 6922   4.243   2.246   2.915
   77POPC   H2S 6923   4.301   2.409   2.967
   77POPC    C3 6924   4.722   2.519   2.792
   77POPC    HX 6925   4.660   2.612   2.782
   77POPC    HY 6926   4.801   2.523   2.713
   77POPC   O31 6927   4.783   2.502   2.920
   77POPC   C31 6928   4.765   2.604   3.003
   77POPC   O32 6929   4.723   2.714   2.973
   77POPC   C32 6930   4.805   2.560   3.143
   77POPC   H2X 6931   4.906   2.602   3.163
   77POPC   H2Y 6932   4.811   2.449   3.147
   77POPC   C23 6933   4.379   2.243   3.086
   77POPC   H3R 6934   4.471   2.296   3.120
   77POPC   H3S 6935   4.405   2.135   3.072
   77POPC   C24 6936   4.273   2.254   3.197
   77POPC   H4R 6937   4.176   2.214   3.160
   77POPC   H4S 6938   4.258   2.361   3.221
   77POPC   C25 6939   4.312   2.177   3.325
   77POPC   H5R 6940   4.415   2.204   3.356
   77POPC   H5S 6941   4.312   2.068   3.301
   77POPC   C26 6942   4.215   2.203   3.441
   77POPC   H6R 6943   4.224   2.122   3.517
   77POPC   H6S 6944   4.111   2.202   3.402
   77POPC   C27 6945   4.242   2.337   3.512
   77POPC   H7R 6946   4.251   2.417   3.434
   77POPC   H7S 6947   4.340   2.333   3.565
   77POPC   C28 6948   4.131   2.380   3.609
   77POPC   H8R 6949   4.035   2.384   3.552
   77POPC   H8S 6950   4.151   2.484   3.642
   77POPC   C29 6951   4.118   2.289   3.728
   77POPC   H91 6952   4.053   2.202   3.715
   77POPC  C210 6953   4.182   2.305   3.845
   77POPC  H101 6954   4.165   2.233   3.926
   77POPC  C211 6955   4.280   2.415   3.878
   77POPC  H11R 6956   4.225   2.507   3.908
   77POPC  H11S 6957   4.342   2.442   3.789
   77POPC  C212 6958   4.374   2.372   3.993
   77POPC  H12R 6959   4.311   2.346   4.081
   77POPC  H12S 6960   4.433   2.459   4.027
   77POPC  C213 6961   4.464   2.251   3.959
   77POPC  H13R 6962   4.419   2.191   3.877
   77POPC  H13S 6963   4.464   2.184   4.047
   77POPC  C214 6964   4.613   2.278   3.924
   77POPC  H14R 6965   4.636   2.225   3.829
   77POPC  H14S 6966   4.677   2.231   4.001
   77POPC  C215 6967   4.657   2.424   3.908
   77POPC  H15R 6968   4.572   2.488   3.878
   77POPC  H15S 6969   4.730   2.431   3.824
   77POPC  C216 6970   4.727   2.481   4.033
   77POPC  H16R 6971   4.661   2.473   4.122
   77POPC  H16S 6972   4.747   2.587   4.012
   77POPC  C217 6973   4.863   2.417   4.063
   77POPC  H17R 6974   4.917   2.400   3.967
   77POPC  H17S 6975   4.846   2.317   4.107
   77POPC  C218 6976   4.951   2.502   4.156
   77POPC  H18R 6977   4.985   2.594   4.103
   77POPC  H18S 6978   5.041   2.444   4.187
   77POPC  H18T 6979   4.896   2.533   4.247
   77POPC   C33 6980   4.705   2.612   3.248
   77POPC   H3X 6981   4.694   2.723   3.237
   77POPC   H3Y 6982   4.746   2.592   3.349
   77POPC   C34 6983   4.566   2.547   3.237
   77POPC   H4X 6984   4.573   2.441   3.270
   77POPC   H4Y 6985   4.533   2.547   3.131
   77POPC   C35 6986   4.459   2.620   3.320
   77POPC   H5X 6987   4.361   2.570   3.305
   77POPC   H5Y 6988   4.450   2.724   3.280
   77POPC   C36 6989   4.492   2.628   3.470
   77POPC   H6X 6990   4.589   2.680   3.483
   77POPC   H6Y 6991   4.504   2.524   3.510
   77POPC   C37 6992   4.388   2.701   3.557
   77POPC   H7X 6993   4.301   2.633   3.569
   77POPC   H7Y 6994   4.352   2.793   3.507
   77POPC   C38 6995   4.441   2.735   3.699
   77POPC   H8X 6996   4.499   2.646   3.733
   77POPC   H8Y 6997   4.356   2.748   3.768
   77POPC   C39 6998   4.531   2.860   3.708
   77POPC   H9X 6999   4.467   2.948   3.731
   77POPC   H9Y 7000   4.578   2.879   3.609
   77POPC  C310 7001   4.644   2.850   3.815
   77POPC  H10X 7002   4.691   2.949   3.824
   77POPC  H10Y 7003   4.719   2.778   3.775
   77POPC  C311 7004   4.596   2.804   3.955
   77POPC  H11X 7005   4.578   2.694   3.950
   77POPC  H11Y 7006   4.499   2.853   3.973
   77POPC  C312 7007   4.683   2.833   4.081
   77POPC  H12X 7008   4.719   2.939   4.076
   77POPC  H12Y 7009   4.775   2.771   4.087
   77POPC  C313 7010   4.602   2.818   4.213
   77POPC  H13X 7011   4.528   2.900   4.201
   77POPC  H13Y 7012   4.661   2.843   4.304
   77POPC  C314 7013   4.516   2.691   4.231
   77POPC  H14X 7014   4.517   2.631   4.138
   77POPC  H14Y 7015   4.411   2.724   4.244
   77POPC  C315 7016   4.543   2.594   4.348
   77POPC  H15X 7017   4.545   2.649   4.444
   77POPC  H15Y 7018   4.643   2.548   4.337
   77POPC  C316 7019   4.434   2.484   4.352
   77POPC  H16X 7020   4.440   2.422   4.444
   77POPC  H16Y 7021   4.444   2.418   4.264
   77POPC  H16Z 7022   4.332   2.526   4.345
   78POPC     N 7023   1.993   4.239   2.143
   78POPC   C12 7024   1.942   4.108   2.201
   78POPC  H12A 7025   2.011   4.028   2.175
   78POPC  H12B 7026   1.847   4.085   2.155
   78POPC   C13 7027   1.902   4.349   2.187
   78POPC  H13A 7028   1.896   4.352   2.296
   78POPC  H13B 7029   1.937   4.445   2.150
   78POPC  H13C 7030   1.802   4.333   2.146
   78POPC   C14 7031   2.133   4.270   2.188
   78POPC  H14A 7032   2.134   4.279   2.297
   78POPC  H14B 7033   2.204   4.193   2.162
   78POPC  H14C 7034   2.168   4.365   2.150
   78POPC   C15 7035   1.989   4.240   1.994
   78POPC  H15A 7036   1.888   4.223   1.959
   78POPC  H15B 7037   2.056   4.166   1.952
   78POPC  H15C 7038   2.021   4.337   1.955
   78POPC   C11 7039   1.919   4.102   2.354
   78POPC  H11A 7040   1.884   4.000   2.382
   78POPC  H11B 7041   1.836   4.172   2.383
   78POPC     P 7042   2.056   4.234   2.540
   78POPC   O13 7043   1.923   4.270   2.593
   78POPC   O14 7044   2.146   4.339   2.490
   78POPC   O12 7045   2.040   4.130   2.422
   78POPC   O11 7046   2.132   4.144   2.644
   78POPC    C1 7047   2.155   4.007   2.613
   78POPC    HA 7048   2.184   3.988   2.507
   78POPC    HB 7049   2.066   3.945   2.638
   78POPC    C2 7050   2.276   3.970   2.693
   78POPC    HS 7051   2.305   3.864   2.672
   78POPC   O21 7052   2.249   3.987   2.833
   78POPC   C21 7053   2.165   3.897   2.880
   78POPC   O22 7054   2.130   3.796   2.821
   78POPC   C22 7055   2.130   3.933   3.023
   78POPC   H2R 7056   2.025   3.905   3.041
   78POPC   H2S 7057   2.137   4.043   3.034
   78POPC    C3 7058   2.397   4.056   2.646
   78POPC    HX 7059   2.402   4.049   2.535
   78POPC    HY 7060   2.480   4.002   2.691
   78POPC   O31 7061   2.401   4.196   2.681
   78POPC   C31 7062   2.449   4.221   2.801
   78POPC   O32 7063   2.512   4.145   2.871
   78POPC   C32 7064   2.394   4.351   2.851
   78POPC   H2X 7065   2.359   4.412   2.764
   78POPC   H2Y 7066   2.476   4.404   2.905
   78POPC   C23 7067   2.225   3.863   3.124
   78POPC   H3R 7068   2.327   3.857   3.079
   78POPC   H3S 7069   2.191   3.760   3.146
   78POPC   C24 7070   2.242   3.941   3.255
   78POPC   H4R 7071   2.148   3.938   3.315
   78POPC   H4S 7072   2.264   4.048   3.232
   78POPC   C25 7073   2.358   3.882   3.335
   78POPC   H5R 7074   2.449   3.877   3.272
   78POPC   H5S 7075   2.332   3.778   3.365
   78POPC   C26 7076   2.392   3.963   3.460
   78POPC   H6R 7077   2.300   3.968   3.522
   78POPC   H6S 7078   2.421   4.067   3.434
   78POPC   C27 7079   2.505   3.894   3.537
   78POPC   H7R 7080   2.601   3.912   3.483
   78POPC   H7S 7081   2.489   3.784   3.533
   78POPC   C28 7082   2.520   3.935   3.684
   78POPC   H8R 7083   2.559   4.038   3.688
   78POPC   H8S 7084   2.598   3.866   3.723
   78POPC   C29 7085   2.397   3.924   3.769
   78POPC   H91 7086   2.303   3.958   3.723
   78POPC  C210 7087   2.391   3.878   3.895
   78POPC  H101 7088   2.293   3.876   3.945
   78POPC  C211 7089   2.506   3.826   3.978
   78POPC  H11R 7090   2.602   3.825   3.923
   78POPC  H11S 7091   2.487   3.722   4.012
   78POPC  C212 7092   2.521   3.917   4.100
   78POPC  H12R 7093   2.534   4.023   4.067
   78POPC  H12S 7094   2.614   3.888   4.155
   78POPC  C213 7095   2.403   3.907   4.197
   78POPC  H13R 7096   2.416   3.813   4.255
   78POPC  H13S 7097   2.305   3.900   4.145
   78POPC  C214 7098   2.395   4.024   4.294
   78POPC  H14R 7099   2.319   4.000   4.371
   78POPC  H14S 7100   2.363   4.118   4.244
   78POPC  C215 7101   2.528   4.049   4.363
   78POPC  H15R 7102   2.595   4.108   4.296
   78POPC  H15S 7103   2.573   3.948   4.378
   78POPC  C216 7104   2.514   4.114   4.501
   78POPC  H16R 7105   2.615   4.145   4.535
   78POPC  H16S 7106   2.476   4.036   4.571
   78POPC  C217 7107   2.418   4.232   4.508
   78POPC  H17R 7108   2.408   4.259   4.614
   78POPC  H17S 7109   2.315   4.206   4.473
   78POPC  C218 7110   2.468   4.355   4.435
   78POPC  H18R 7111   2.401   4.442   4.451
   78POPC  H18S 7112   2.475   4.334   4.326
   78POPC  H18T 7113   2.569   4.381   4.471
   78POPC   C33 7114   2.277   4.316   2.946
   78POPC   H3X 7115   2.312   4.334   3.050
   78POPC   H3Y 7116   2.250   4.208   2.941
   78POPC   C34 7117   2.149   4.394   2.915
   78POPC   H4X 7118   2.125   4.385   2.806
   78POPC   H4Y 7119   2.169   4.500   2.936
   78POPC   C35 7120   2.026   4.352   2.997
   78POPC   H5X 7121   1.984   4.257   2.957
   78POPC   H5Y 7122   1.949   4.431   2.984
   78POPC   C36 7123   2.060   4.335   3.146
   78POPC   H6X 7124   2.143   4.406   3.170
   78POPC   H6Y 7125   2.099   4.232   3.161
   78POPC   C37 7126   1.943   4.365   3.241
   78POPC   H7X 7127   1.854   4.308   3.206
   78POPC   H7Y 7128   1.919   4.474   3.234
   78POPC   C38 7129   1.969   4.332   3.389
   78POPC   H8X 7130   1.872   4.335   3.443
   78POPC   H8Y 7131   2.033   4.412   3.431
   78POPC   C39 7132   2.035   4.195   3.418
   78POPC   H9X 7133   2.141   4.196   3.383
   78POPC   H9Y 7134   1.981   4.116   3.361
   78POPC  C310 7135   2.033   4.160   3.568
   78POPC  H10X 7136   2.064   4.054   3.584
   78POPC  H10Y 7137   1.929   4.171   3.605
   78POPC  C311 7138   2.128   4.253   3.646
   78POPC  H11X 7139   2.119   4.356   3.607
   78POPC  H11Y 7140   2.233   4.221   3.628
   78POPC  C312 7141   2.101   4.262   3.797
   78POPC  H12X 7142   1.993   4.248   3.819
   78POPC  H12Y 7143   2.130   4.365   3.830
   78POPC  C313 7144   2.189   4.163   3.873
   78POPC  H13X 7145   2.294   4.179   3.838
   78POPC  H13Y 7146   2.159   4.059   3.847
   78POPC  C314 7147   2.190   4.181   4.025
   78POPC  H14X 7148   2.198   4.289   4.050
   78POPC  H14Y 7149   2.282   4.131   4.062
   78POPC  C315 7150   2.069   4.120   4.096
   78POPC  H15X 7151   2.070   4.010   4.076
   78POPC  H15Y 7152   1.976   4.162   4.051
   78POPC  C316 7153   2.065   4.144   4.247
   78POPC  H16X 7154   2.071   4.253   4.269
   78POPC  H16Y 7155   2.150   4.094   4.297
   78POPC  H16Z 7156   1.972   4.103   4.292
   79POPC     N 7157   3.654   1.025   2.391
   79POPC   C12 7158   3.662   1.152   2.475
   79POPC  H12A 7159   3.722   1.134   2.562
   79POPC  H12B 7160   3.562   1.177   2.509
   79POPC   C13 7161   3.526   1.025   2.314
   79POPC  H13A 7162   3.527   0.953   2.234
   79POPC  H13B 7163   3.442   1.007   2.381
   79POPC  H13C 7164   3.512   1.123   2.267
   79POPC   C14 7165   3.762   1.024   2.290
   79POPC  H14A 7166   3.750   1.109   2.224
   79POPC  H14B 7167   3.860   1.028   2.333
   79POPC  H14C 7168   3.760   0.934   2.228
   79POPC   C15 7169   3.667   0.901   2.474
   79POPC  H15A 7170   3.753   0.906   2.538
   79POPC  H15B 7171   3.679   0.817   2.406
   79POPC  H15C 7172   3.578   0.884   2.535
   79POPC   C11 7173   3.721   1.280   2.408
   79POPC  H11A 7174   3.831   1.269   2.400
   79POPC  H11B 7175   3.705   1.367   2.476
   79POPC     P 7176   3.546   1.401   2.254
   79POPC   O13 7177   3.467   1.353   2.139
   79POPC   O14 7178   3.596   1.540   2.243
   79POPC   O12 7179   3.669   1.305   2.276
   79POPC   O11 7180   3.470   1.375   2.394
   79POPC    C1 7181   3.351   1.444   2.432
   79POPC    HA 7182   3.277   1.445   2.349
   79POPC    HB 7183   3.375   1.550   2.459
   79POPC    C2 7184   3.280   1.382   2.557
   79POPC    HS 7185   3.174   1.416   2.549
   79POPC   O21 7186   3.343   1.432   2.678
   79POPC   C21 7187   3.257   1.439   2.780
   79POPC   O22 7188   3.136   1.434   2.770
   79POPC   C22 7189   3.333   1.451   2.910
   79POPC   H2R 7190   3.413   1.528   2.897
   79POPC   H2S 7191   3.382   1.353   2.931
   79POPC    C3 7192   3.281   1.224   2.558
   79POPC    HX 7193   3.354   1.191   2.481
   79POPC    HY 7194   3.181   1.189   2.526
   79POPC   O31 7195   3.313   1.172   2.690
   79POPC   C31 7196   3.384   1.060   2.697
   79POPC   O32 7197   3.405   0.983   2.604
   79POPC   C32 7198   3.450   1.046   2.836
   79POPC   H2X 7199   3.529   1.124   2.840
   79POPC   H2Y 7200   3.499   0.947   2.840
   79POPC   C23 7201   3.238   1.489   3.026
   79POPC   H3R 7202   3.177   1.401   3.057
   79POPC   H3S 7203   3.166   1.568   2.992
   79POPC   C24 7204   3.317   1.545   3.145
   79POPC   H4R 7205   3.270   1.641   3.178
   79POPC   H4S 7206   3.421   1.567   3.113
   79POPC   C25 7207   3.319   1.449   3.264
   79POPC   H5R 7208   3.353   1.349   3.228
   79POPC   H5S 7209   3.215   1.438   3.303
   79POPC   C26 7210   3.411   1.494   3.377
   79POPC   H6R 7211   3.377   1.592   3.416
   79POPC   H6S 7212   3.516   1.506   3.340
   79POPC   C27 7213   3.410   1.390   3.490
   79POPC   H7R 7214   3.479   1.307   3.465
   79POPC   H7S 7215   3.307   1.346   3.494
   79POPC   C28 7216   3.440   1.445   3.630
   79POPC   H8R 7217   3.432   1.357   3.696
   79POPC   H8S 7218   3.357   1.514   3.659
   79POPC   C29 7219   3.572   1.512   3.654
   79POPC   H91 7220   3.575   1.618   3.623
   79POPC  C210 7221   3.681   1.460   3.714
   79POPC  H101 7222   3.767   1.526   3.734
   79POPC  C211 7223   3.699   1.323   3.774
   79POPC  H11R 7224   3.782   1.269   3.721
   79POPC  H11S 7225   3.608   1.261   3.764
   79POPC  C212 7226   3.735   1.330   3.924
   79POPC  H12R 7227   3.834   1.378   3.937
   79POPC  H12S 7228   3.742   1.227   3.965
   79POPC  C213 7229   3.628   1.408   4.001
   79POPC  H13R 7230   3.532   1.353   3.992
   79POPC  H13S 7231   3.615   1.509   3.957
   79POPC  C214 7232   3.656   1.428   4.149
   79POPC  H14R 7233   3.764   1.442   4.169
   79POPC  H14S 7234   3.624   1.336   4.203
   79POPC  C215 7235   3.574   1.547   4.202
   79POPC  H15R 7236   3.550   1.523   4.307
   79POPC  H15S 7237   3.477   1.550   4.147
   79POPC  C216 7238   3.639   1.687   4.199
   79POPC  H16R 7239   3.564   1.763   4.231
   79POPC  H16S 7240   3.666   1.713   4.094
   79POPC  C217 7241   3.759   1.703   4.294
   79POPC  H17R 7242   3.806   1.803   4.280
   79POPC  H17S 7243   3.836   1.627   4.268
   79POPC  C218 7244   3.723   1.686   4.442
   79POPC  H18R 7245   3.661   1.596   4.455
   79POPC  H18S 7246   3.666   1.773   4.480
   79POPC  H18T 7247   3.815   1.671   4.504
   79POPC   C33 7248   3.355   1.065   2.957
   79POPC   H3X 7249   3.302   0.970   2.980
   79POPC   H3Y 7250   3.277   1.141   2.932
   79POPC   C34 7251   3.427   1.116   3.084
   79POPC   H4X 7252   3.348   1.150   3.155
   79POPC   H4Y 7253   3.490   1.204   3.059
   79POPC   C35 7254   3.513   1.012   3.156
   79POPC   H5X 7255   3.593   0.974   3.088
   79POPC   H5Y 7256   3.449   0.925   3.184
   79POPC   C36 7257   3.580   1.065   3.284
   79POPC   H6X 7258   3.502   1.102   3.354
   79POPC   H6Y 7259   3.645   1.152   3.259
   79POPC   C37 7260   3.664   0.956   3.353
   79POPC   H7X 7261   3.740   0.921   3.280
   79POPC   H7Y 7262   3.598   0.870   3.377
   79POPC   C38 7263   3.737   1.001   3.481
   79POPC   H8X 7264   3.803   1.087   3.456
   79POPC   H8Y 7265   3.803   0.918   3.514
   79POPC   C39 7266   3.647   1.041   3.599
   79POPC   H9X 7267   3.594   1.136   3.575
   79POPC   H9Y 7268   3.714   1.062   3.686
   79POPC  C310 7269   3.544   0.935   3.643
   79POPC  H10X 7270   3.599   0.838   3.651
   79POPC  H10Y 7271   3.466   0.923   3.565
   79POPC  C311 7272   3.479   0.964   3.780
   79POPC  H11X 7273   3.561   0.991   3.852
   79POPC  H11Y 7274   3.432   0.870   3.818
   79POPC  C312 7275   3.372   1.075   3.785
   79POPC  H12X 7276   3.278   1.040   3.736
   79POPC  H12Y 7277   3.409   1.162   3.728
   79POPC  C313 7278   3.344   1.116   3.931
   79POPC  H13X 7279   3.442   1.148   3.975
   79POPC  H13Y 7280   3.311   1.025   3.987
   79POPC  C314 7281   3.242   1.228   3.961
   79POPC  H14X 7282   3.259   1.246   4.069
   79POPC  H14Y 7283   3.137   1.193   3.946
   79POPC  C315 7284   3.262   1.366   3.896
   79POPC  H15X 7285   3.216   1.367   3.795
   79POPC  H15Y 7286   3.371   1.381   3.883
   79POPC  C316 7287   3.212   1.486   3.977
   79POPC  H16X 7288   3.242   1.581   3.928
   79POPC  H16Y 7289   3.257   1.485   4.079
   79POPC  H16Z 7290   3.101   1.485   3.987
   80POPC     N 7291   1.802   7.094   2.442
   80POPC   C12 7292   1.839   7.134   2.300
   80POPC  H12A 7293   1.797   7.231   2.278
   80POPC  H12B 7294   1.790   7.066   2.230
   80POPC   C13 7295   1.886   6.976   2.481
   80POPC  H13A 7296   1.885   6.904   2.399
   80POPC  H13B 7297   1.990   7.005   2.486
   80POPC  H13C 7298   1.853   6.931   2.573
   80POPC   C14 7299   1.826   7.207   2.538
   80POPC  H14A 7300   1.806   7.177   2.640
   80POPC  H14B 7301   1.929   7.240   2.533
   80POPC  H14C 7302   1.764   7.292   2.516
   80POPC   C15 7303   1.658   7.054   2.450
   80POPC  H15A 7304   1.630   6.981   2.374
   80POPC  H15B 7305   1.592   7.138   2.426
   80POPC  H15C 7306   1.629   7.015   2.546
   80POPC   C11 7307   1.991   7.133   2.264
   80POPC  H11A 7308   2.045   7.191   2.343
   80POPC  H11B 7309   2.005   7.186   2.168
   80POPC     P 7310   2.194   6.967   2.256
   80POPC   O13 7311   2.262   7.035   2.144
   80POPC   O14 7312   2.211   6.821   2.270
   80POPC   O12 7313   2.039   6.998   2.250
   80POPC   O11 7314   2.226   7.040   2.391
   80POPC    C1 7315   2.354   7.097   2.416
   80POPC    HA 7316   2.369   7.188   2.354
   80POPC    HB 7317   2.435   7.023   2.393
   80POPC    C2 7318   2.364   7.134   2.565
   80POPC    HS 7319   2.469   7.164   2.590
   80POPC   O21 7320   2.323   7.021   2.641
   80POPC   C21 7321   2.413   6.933   2.667
   80POPC   O22 7322   2.533   6.940   2.644
   80POPC   C22 7323   2.343   6.816   2.736
   80POPC   H2R 7324   2.421   6.747   2.772
   80POPC   H2S 7325   2.282   6.762   2.661
   80POPC    C3 7326   2.271   7.251   2.605
   80POPC    HX 7327   2.173   7.231   2.554
   80POPC    HY 7328   2.312   7.347   2.569
   80POPC   O31 7329   2.256   7.251   2.749
   80POPC   C31 7330   2.145   7.306   2.796
   80POPC   O32 7331   2.068   7.375   2.732
   80POPC   C32 7332   2.127   7.269   2.945
   80POPC   H2X 7333   2.208   7.200   2.976
   80POPC   H2Y 7334   2.030   7.217   2.953
   80POPC   C23 7335   2.253   6.864   2.853
   80POPC   H3R 7336   2.296   6.953   2.903
   80POPC   H3S 7337   2.250   6.784   2.929
   80POPC   C24 7338   2.110   6.895   2.805
   80POPC   H4R 7339   2.070   6.811   2.745
   80POPC   H4S 7340   2.112   6.984   2.739
   80POPC   C25 7341   2.011   6.925   2.919
   80POPC   H5R 7342   2.061   6.994   2.990
   80POPC   H5S 7343   1.987   6.831   2.974
   80POPC   C26 7344   1.880   6.987   2.866
   80POPC   H6R 7345   1.851   6.929   2.775
   80POPC   H6S 7346   1.897   7.091   2.834
   80POPC   C27 7347   1.762   6.979   2.964
   80POPC   H7R 7348   1.753   6.875   3.004
   80POPC   H7S 7349   1.669   6.998   2.905
   80POPC   C28 7350   1.764   7.081   3.080
   80POPC   H8R 7351   1.662   7.082   3.123
   80POPC   H8S 7352   1.781   7.182   3.038
   80POPC   C29 7353   1.867   7.052   3.187
   80POPC   H91 7354   1.972   7.067   3.156
   80POPC  C210 7355   1.844   7.016   3.314
   80POPC  H101 7356   1.930   7.003   3.382
   80POPC  C211 7357   1.709   6.997   3.378
   80POPC  H11R 7358   1.713   6.916   3.454
   80POPC  H11S 7359   1.634   6.964   3.302
   80POPC  C212 7360   1.658   7.127   3.444
   80POPC  H12R 7361   1.551   7.112   3.469
   80POPC  H12S 7362   1.663   7.212   3.372
   80POPC  C213 7363   1.733   7.164   3.572
   80POPC  H13R 7364   1.833   7.207   3.546
   80POPC  H13S 7365   1.751   7.072   3.632
   80POPC  C214 7366   1.655   7.265   3.658
   80POPC  H14R 7367   1.563   7.217   3.699
   80POPC  H14S 7368   1.622   7.349   3.593
   80POPC  C215 7369   1.736   7.323   3.775
   80POPC  H15R 7370   1.670   7.388   3.836
   80POPC  H15S 7371   1.817   7.388   3.733
   80POPC  C216 7372   1.802   7.219   3.866
   80POPC  H16R 7373   1.877   7.160   3.809
   80POPC  H16S 7374   1.725   7.147   3.902
   80POPC  C217 7375   1.873   7.288   3.984
   80POPC  H17R 7376   1.798   7.331   4.054
   80POPC  H17S 7377   1.932   7.373   3.941
   80POPC  C218 7378   1.971   7.200   4.062
   80POPC  H18R 7379   2.045   7.158   3.992
   80POPC  H18S 7380   1.924   7.115   4.113
   80POPC  H18T 7381   2.026   7.260   4.137
   80POPC   C33 7382   2.124   7.392   3.041
   80POPC   H3X 7383   2.056   7.467   2.995
   80POPC   H3Y 7384   2.226   7.435   3.048
   80POPC   C34 7385   2.072   7.370   3.184
   80POPC   H4X 7386   1.993   7.292   3.186
   80POPC   H4Y 7387   2.023   7.464   3.216
   80POPC   C35 7388   2.179   7.343   3.291
   80POPC   H5X 7389   2.254   7.425   3.291
   80POPC   H5Y 7390   2.230   7.249   3.262
   80POPC   C36 7391   2.121   7.328   3.433
   80POPC   H6X 7392   2.061   7.234   3.434
   80POPC   H6Y 7393   2.051   7.411   3.455
   80POPC   C37 7394   2.224   7.323   3.548
   80POPC   H7X 7395   2.258   7.426   3.573
   80POPC   H7Y 7396   2.314   7.268   3.517
   80POPC   C38 7397   2.172   7.253   3.676
   80POPC   H8X 7398   2.086   7.310   3.718
   80POPC   H8Y 7399   2.252   7.255   3.752
   80POPC   C39 7400   2.130   7.107   3.651
   80POPC   H9X 7401   2.189   7.066   3.566
   80POPC   H9Y 7402   2.023   7.106   3.620
   80POPC  C310 7403   2.148   7.014   3.771
   80POPC  H10X 7404   2.064   6.941   3.778
   80POPC  H10Y 7405   2.152   7.073   3.864
   80POPC  C311 7406   2.280   6.938   3.767
   80POPC  H11X 7407   2.358   7.017   3.766
   80POPC  H11Y 7408   2.290   6.871   3.679
   80POPC  C312 7409   2.312   6.866   3.895
   80POPC  H12X 7410   2.360   6.767   3.876
   80POPC  H12Y 7411   2.218   6.850   3.954
   80POPC  C313 7412   2.411   6.948   3.977
   80POPC  H13X 7413   2.380   7.054   3.971
   80POPC  H13Y 7414   2.516   6.938   3.941
   80POPC  C314 7415   2.396   6.894   4.115
   80POPC  H14X 7416   2.385   6.784   4.098
   80POPC  H14Y 7417   2.297   6.921   4.155
   80POPC  C315 7418   2.514   6.893   4.213
   80POPC  H15X 7419   2.590   6.827   4.166
   80POPC  H15Y 7420   2.456   6.846   4.294
   80POPC  C316 7421   2.592   6.997   4.295
   80POPC  H16X 7422   2.533   7.084   4.326
   80POPC  H16Y 7423   2.685   7.028   4.244
   80POPC  H16Z 7424   2.620   6.947   4.391
   81OSM      N 7425   2.800   3.517   6.470
   81OSM    C15 7426   2.795   3.452   6.604
   81OSM   H15A 7427   2.895   3.432   6.644
   81OSM   H15B 7428   2.739   3.360   6.601
   81OSM   H15C 7429   2.746   3.516   6.677
   81OSM    C14 7430   2.850   3.421   6.367
   81OSM   H14A 7431   2.949   3.382   6.387
   81OSM   H14B 7432   2.852   3.470   6.270
   81OSM   H14C 7433   2.780   3.337   6.356
   81OSM    C13 7434   2.660   3.555   6.431
   81OSM   H13A 7435   2.614   3.624   6.501
   81OSM   H13B 7436   2.597   3.467   6.421
   81OSM   H13C 7437   2.662   3.607   6.335
   81OSM    C12 7438   2.888   3.642   6.473
   81OSM   H12A 7439   2.987   3.616   6.510
   81OSM   H12B 7440   2.846   3.713   6.543
   81OSM    C11 7441   2.906   3.723   6.342
   81OSM   H11A 7442   2.940   3.657   6.259
   81OSM   H11B 7443   2.988   3.797   6.362
   81OSM      P 7444   2.788   3.889   6.184
   81OSM    O13 7445   2.654   3.950   6.168
   81OSM    O14 7446   2.901   3.982   6.196
   81OSM    O11 7447   2.822   3.792   6.066
   81OSM    O12 7448   2.785   3.791   6.309
   81OSM    C1S 7449   2.738   3.686   6.023
   81OSM    H1S 7450   2.635   3.692   6.066
   81OSM    H1T 7451   2.782   3.589   6.055
   81OSM     NF 7452   2.638   3.585   5.825
   81OSM    HNF 7453   2.674   3.499   5.791
   81OSM    C2S 7454   2.732   3.687   5.869
   81OSM    H2S 7455   2.695   3.787   5.835
   81OSM    C3S 7456   2.876   3.667   5.812
   81OSM    H3S 7457   2.919   3.577   5.861
   81OSM     O3 7458   2.965   3.776   5.835
   81OSM    HO3 7459   2.931   3.815   5.917
   81OSM    C4S 7460   2.871   3.645   5.664
   81OSM    H4S 7461   2.820   3.724   5.608
   81OSM    C5S 7462   2.922   3.539   5.599
   81OSM    H5S 7463   2.974   3.458   5.654
   81OSM    C6S 7464   2.913   3.524   5.450
   81OSM    H6S 7465   3.001   3.471   5.408
   81OSM    H6T 7466   2.908   3.624   5.400
   81OSM    C7S 7467   2.785   3.446   5.413
   81OSM    H7S 7468   2.699   3.480   5.474
   81OSM    H7T 7469   2.799   3.338   5.433
   81OSM    C8S 7470   2.750   3.466   5.265
   81OSM    H8S 7471   2.819   3.401   5.208
   81OSM    H8T 7472   2.772   3.571   5.235
   81OSM    C9S 7473   2.603   3.438   5.233
   81OSM    H9S 7474   2.537   3.510   5.286
   81OSM    H9T 7475   2.576   3.336   5.269
   81OSM   C10S 7476   2.577   3.445   5.082
   81OSM   H10S 7477   2.592   3.549   5.044
   81OSM   H10T 7478   2.471   3.417   5.062
   81OSM   C11S 7479   2.672   3.349   5.010
   81OSM   H11S 7480   2.688   3.268   5.084
   81OSM   H11T 7481   2.771   3.397   4.992
   81OSM   C12S 7482   2.618   3.287   4.881
   81OSM   H12S 7483   2.511   3.262   4.896
   81OSM   H12T 7484   2.669   3.192   4.856
   81OSM   C13S 7485   2.644   3.377   4.761
   81OSM   H13S 7486   2.734   3.343   4.705
   81OSM   H13T 7487   2.666   3.478   4.802
   81OSM   C14S 7488   2.521   3.388   4.671
   81OSM   H14S 7489   2.433   3.384   4.737
   81OSM   H14T 7490   2.514   3.302   4.600
   81OSM   C15S 7491   2.517   3.523   4.600
   81OSM   H15S 7492   2.445   3.516   4.516
   81OSM   H15T 7493   2.618   3.544   4.557
   81OSM   C16S 7494   2.478   3.636   4.696
   81OSM   H16S 7495   2.562   3.708   4.702
   81OSM   H16T 7496   2.465   3.594   4.799
   81OSM   C17S 7497   2.351   3.715   4.662
   81OSM   H17S 7498   2.353   3.802   4.732
   81OSM   H17T 7499   2.259   3.657   4.688
   81OSM   C18S 7500   2.339   3.768   4.519
   81OSM   H18S 7501   2.340   3.688   4.443
   81OSM   H18T 7502   2.426   3.836   4.500
   81OSM   H18U 7503   2.245   3.826   4.507
   81OSM    C1F 7504   2.507   3.599   5.843
   81OSM     OF 7505   2.461   3.703   5.889
   81OSM    C2F 7506   2.423   3.482   5.803
   81OSM    H2F 7507   2.374   3.441   5.894
   81OSM    H2G 7508   2.488   3.402   5.761
   81OSM    C3F 7509   2.316   3.520   5.699
   81OSM    H3F 7510   2.250   3.600   5.739
   81OSM    H3G 7511   2.252   3.430   5.684
   81OSM    C4F 7512   2.371   3.559   5.561
   81OSM    H4F 7513   2.290   3.543   5.486
   81OSM    H4G 7514   2.455   3.492   5.532
   81OSM    C5F 7515   2.413   3.707   5.551
   81OSM    H5F 7516   2.498   3.729   5.618
   81OSM    H5G 7517   2.327   3.769   5.585
   81OSM    C6F 7518   2.449   3.749   5.408
   81OSM    H6F 7519   2.402   3.847   5.386
   81OSM    H6G 7520   2.404   3.676   5.337
   81OSM    C7F 7521   2.600   3.757   5.384
   81OSM    H7F 7522   2.623   3.729   5.279
   81OSM    H7G 7523   2.650   3.683   5.450
   81OSM    C8F 7524   2.661   3.896   5.412
   81OSM    H8F 7525   2.772   3.885   5.411
   81OSM    H8G 7526   2.633   3.929   5.514
   81OSM    C9F 7527   2.613   3.993   5.308
   81OSM    H9F 7528   2.511   4.031   5.322
   81OSM   C10F 7529   2.684   4.036   5.202
   81OSM   H10F 7530   2.635   4.106   5.132
   81OSM   C11F 7531   2.825   3.999   5.164
   81OSM   H11F 7532   2.869   3.920   5.229
   81OSM   H11G 7533   2.892   4.088   5.172
   81OSM   C12F 7534   2.831   3.951   5.019
   81OSM   H12F 7535   2.939   3.941   4.993
   81OSM   H12G 7536   2.787   4.025   4.949
   81OSM   C13F 7537   2.761   3.816   5.002
   81OSM   H13F 7538   2.651   3.827   5.019
   81OSM   H13G 7539   2.799   3.746   5.080
   81OSM   C14F 7540   2.785   3.754   4.865
   81OSM   H14F 7541   2.742   3.819   4.785
   81OSM   H14G 7542   2.732   3.657   4.863
   81OSM   C15F 7543   2.934   3.729   4.838
   81OSM   H15F 7544   2.981   3.688   4.930
   81OSM   H15G 7545   2.984   3.825   4.813
   81OSM   C16F 7546   2.955   3.629   4.724
   81OSM   H16F 7547   2.912   3.673   4.631
   81OSM   H16G 7548   2.900   3.535   4.744
   81OSM   C17F 7549   3.103   3.599   4.701
   81OSM   H17F 7550   3.139   3.526   4.776
   81OSM   H17G 7551   3.161   3.694   4.716
   81OSM   C18F 7552   3.130   3.549   4.560
   81OSM   H18F 7553   3.087   3.625   4.491
   81OSM   H18G 7554   3.081   3.452   4.540
   81OSM   H18H 7555   3.239   3.541   4.539
   82OSM      N 7556   2.855   4.494   6.425
   82OSM    C15 7557   2.804   4.598   6.329
   82OSM   H15A 7558   2.760   4.682   6.381
   82OSM   H15B 7559   2.730   4.556   6.262
   82OSM   H15C 7560   2.888   4.634   6.270
   82OSM    C14 7561   2.951   4.563   6.519
   82OSM   H14A 7562   3.033   4.609   6.464
   82OSM   H14B 7563   2.999   4.491   6.585
   82OSM   H14C 7564   2.901   4.641   6.575
   82OSM    C13 7565   2.742   4.438   6.504
   82OSM   H13A 7566   2.667   4.393   6.441
   82OSM   H13B 7567   2.697   4.514   6.568
   82OSM   H13C 7568   2.776   4.356   6.568
   82OSM    C12 7569   2.930   4.383   6.350
   82OSM   H12A 7570   2.862   4.305   6.318
   82OSM   H12B 7571   3.000   4.335   6.420
   82OSM    C11 7572   3.017   4.422   6.227
   82OSM   H11A 7573   2.954   4.471   6.150
   82OSM   H11B 7574   3.056   4.328   6.179
   82OSM      P 7575   3.246   4.455   6.349
   82OSM    O13 7576   3.327   4.568   6.397
   82OSM    O14 7577   3.193   4.360   6.449
   82OSM    O11 7578   3.330   4.373   6.241
   82OSM    O12 7579   3.123   4.510   6.262
   82OSM    C1S 7580   3.405   4.455   6.149
   82OSM    H1S 7581   3.508   4.471   6.186
   82OSM    H1T 7582   3.359   4.556   6.132
   82OSM     NF 7583   3.271   4.390   5.960
   82OSM    HNF 7584   3.207   4.341   6.018
   82OSM    C2S 7585   3.408   4.397   6.005
   82OSM    H2S 7586   3.470   4.470   5.947
   82OSM    C3S 7587   3.478   4.261   5.992
   82OSM    H3S 7588   3.414   4.176   6.024
   82OSM     O3 7589   3.596   4.257   6.072
   82OSM    HO3 7590   3.602   4.343   6.116
   82OSM    C4S 7591   3.514   4.246   5.845
   82OSM    H4S 7592   3.611   4.290   5.819
   82OSM    C5S 7593   3.442   4.186   5.747
   82OSM    H5S 7594   3.347   4.136   5.772
   82OSM    C6S 7595   3.484   4.177   5.602
   82OSM    H6S 7596   3.506   4.071   5.576
   82OSM    H6T 7597   3.578   4.234   5.583
   82OSM    C7S 7598   3.376   4.225   5.503
   82OSM    H7S 7599   3.364   4.336   5.512
   82OSM    H7T 7600   3.278   4.179   5.529
   82OSM    C8S 7601   3.409   4.188   5.357
   82OSM    H8S 7602   3.417   4.077   5.350
   82OSM    H8T 7603   3.509   4.231   5.332
   82OSM    C9S 7604   3.309   4.235   5.249
   82OSM    H9S 7605   3.302   4.346   5.251
   82OSM    H9T 7606   3.207   4.196   5.271
   82OSM   C10S 7607   3.352   4.189   5.108
   82OSM   H10S 7608   3.321   4.083   5.091
   82OSM   H10T 7609   3.464   4.190   5.107
   82OSM   C11S 7610   3.304   4.277   4.992
   82OSM   H11S 7611   3.300   4.383   5.025
   82OSM   H11T 7612   3.201   4.247   4.962
   82OSM   C12S 7613   3.397   4.270   4.869
   82OSM   H12S 7614   3.378   4.175   4.814
   82OSM   H12T 7615   3.503   4.269   4.902
   82OSM   C13S 7616   3.377   4.389   4.776
   82OSM   H13S 7617   3.422   4.481   4.819
   82OSM   H13T 7618   3.268   4.407   4.763
   82OSM   C14S 7619   3.435   4.365   4.637
   82OSM   H14S 7620   3.402   4.454   4.577
   82OSM   H14T 7621   3.389   4.274   4.592
   82OSM   C15S 7622   3.588   4.354   4.627
   82OSM   H15S 7623   3.628   4.298   4.715
   82OSM   H15T 7624   3.631   4.457   4.632
   82OSM   C16S 7625   3.636   4.287   4.497
   82OSM   H16S 7626   3.609   4.179   4.504
   82OSM   H16T 7627   3.747   4.292   4.489
   82OSM   C17S 7628   3.567   4.346   4.372
   82OSM   H17S 7629   3.484   4.409   4.406
   82OSM   H17T 7630   3.520   4.266   4.313
   82OSM   C18S 7631   3.647   4.441   4.284
   82OSM   H18S 7632   3.735   4.480   4.339
   82OSM   H18T 7633   3.587   4.531   4.259
   82OSM   H18U 7634   3.680   4.393   4.189
   82OSM    C1F 7635   3.230   4.476   5.869
   82OSM     OF 7636   3.305   4.565   5.831
   82OSM    C2F 7637   3.092   4.458   5.817
   82OSM    H2F 7638   3.020   4.498   5.892
   82OSM    H2G 7639   3.073   4.350   5.801
   82OSM    C3F 7640   3.077   4.534   5.684
   82OSM    H3F 7641   3.173   4.540   5.629
   82OSM    H3G 7642   3.046   4.638   5.707
   82OSM    C4F 7643   2.975   4.470   5.590
   82OSM    H4F 7644   2.936   4.551   5.525
   82OSM    H4G 7645   2.890   4.428   5.647
   82OSM    C5F 7646   3.037   4.363   5.499
   82OSM    H5F 7647   3.041   4.265   5.552
   82OSM    H5G 7648   3.142   4.392   5.473
   82OSM    C6F 7649   2.961   4.351   5.367
   82OSM    H6F 7650   2.996   4.263   5.310
   82OSM    H6G 7651   2.984   4.441   5.306
   82OSM    C7F 7652   2.809   4.343   5.385
   82OSM    H7F 7653   2.769   4.424   5.449
   82OSM    H7G 7654   2.784   4.246   5.434
   82OSM    C8F 7655   2.739   4.349   5.250
   82OSM    H8F 7656   2.632   4.324   5.269
   82OSM    H8G 7657   2.781   4.266   5.191
   82OSM    C9F 7658   2.755   4.477   5.173
   82OSM    H9F 7659   2.737   4.570   5.230
   82OSM   C10F 7660   2.784   4.486   5.042
   82OSM   H10F 7661   2.788   4.586   4.996
   82OSM   C11F 7662   2.807   4.372   4.946
   82OSM   H11F 7663   2.729   4.369   4.867
   82OSM   H11G 7664   2.803   4.272   4.994
   82OSM   C12F 7665   2.945   4.385   4.879
   82OSM   H12F 7666   2.961   4.298   4.811
   82OSM   H12G 7667   3.024   4.380   4.958
   82OSM   C13F 7668   2.965   4.516   4.801
   82OSM   H13F 7669   3.059   4.510   4.743
   82OSM   H13G 7670   2.978   4.599   4.874
   82OSM   C14F 7671   2.850   4.554   4.706
   82OSM   H14F 7672   2.868   4.657   4.670
   82OSM   H14G 7673   2.751   4.555   4.757
   82OSM   C15F 7674   2.842   4.461   4.585
   82OSM   H15F 7675   2.782   4.370   4.608
   82OSM   H15G 7676   2.945   4.426   4.561
   82OSM   C16F 7677   2.787   4.531   4.461
   82OSM   H16F 7678   2.839   4.627   4.443
   82OSM   H16G 7679   2.680   4.555   4.479
   82OSM   C17F 7680   2.803   4.440   4.340
   82OSM   H17F 7681   2.779   4.335   4.370
   82OSM   H17G 7682   2.910   4.442   4.310
   82OSM   C18F 7683   2.718   4.478   4.220
   82OSM   H18F 7684   2.770   4.559   4.166
   82OSM   H18G 7685   2.618   4.513   4.252
   82OSM   H18H 7686   2.706   4.392   4.151
   83OSM      N 7687   4.973   3.380   6.547
   83OSM    C15 7688   5.036   3.442   6.665
   83OSM   H15A 7689   5.142   3.420   6.670
   83OSM   H15B 7690   4.991   3.404   6.757
   83OSM   H15C 7691   5.018   3.549   6.667
   83OSM    C14 7692   5.006   3.234   6.543
   83OSM   H14A 7693   4.977   3.184   6.635
   83OSM   H14B 7694   5.110   3.214   6.525
   83OSM   H14C 7695   4.952   3.189   6.459
   83OSM    C13 7696   4.824   3.389   6.561
   83OSM   H13A 7697   4.789   3.489   6.582
   83OSM   H13B 7698   4.790   3.326   6.643
   83OSM   H13C 7699   4.777   3.347   6.472
   83OSM    C12 7700   5.021   3.446   6.419
   83OSM   H12A 7701   5.122   3.412   6.399
   83OSM   H12B 7702   5.026   3.552   6.436
   83OSM    C11 7703   4.939   3.418   6.291
   83OSM   H11A 7704   4.992   3.459   6.202
   83OSM   H11B 7705   4.841   3.470   6.301
   83OSM      P 7706   4.799   3.225   6.190
   83OSM    O13 7707   4.834   3.096   6.127
   83OSM    O14 7708   4.678   3.228   6.278
   83OSM    O11 7709   4.780   3.338   6.080
   83OSM    O12 7710   4.922   3.277   6.277
   83OSM    C1S 7711   4.718   3.302   5.956
   83OSM    H1S 7712   4.689   3.395   5.902
   83OSM    H1T 7713   4.623   3.246   5.974
   83OSM     NF 7714   4.857   3.306   5.752
   83OSM    HNF 7715   4.814   3.296   5.664
   83OSM    C2S 7716   4.811   3.220   5.861
   83OSM    H2S 7717   4.900   3.183   5.915
   83OSM    C3S 7718   4.732   3.094   5.809
   83OSM    H3S 7719   4.626   3.122   5.789
   83OSM     O3 7720   4.734   2.983   5.899
   83OSM    HO3 7721   4.783   3.011   5.979
   83OSM    C4S 7722   4.795   3.051   5.679
   83OSM    H4S 7723   4.728   3.047   5.592
   83OSM    C5S 7724   4.926   3.021   5.672
   83OSM    H5S 7725   4.985   3.029   5.764
   83OSM    C6S 7726   5.008   2.978   5.556
   83OSM    H6S 7727   4.959   2.899   5.496
   83OSM    H6T 7728   5.097   2.929   5.600
   83OSM    C7S 7729   5.059   3.090   5.464
   83OSM    H7S 7730   5.163   3.062   5.433
   83OSM    H7T 7731   5.067   3.188   5.516
   83OSM    C8S 7732   4.976   3.099   5.336
   83OSM    H8S 7733   4.882   3.156   5.355
   83OSM    H8T 7734   4.948   2.996   5.305
   83OSM    C9S 7735   5.054   3.160   5.220
   83OSM    H9S 7736   5.157   3.118   5.214
   83OSM    H9T 7737   5.066   3.268   5.241
   83OSM   C10S 7738   4.984   3.135   5.086
   83OSM   H10S 7739   5.020   3.207   5.011
   83OSM   H10T 7740   4.874   3.148   5.098
   83OSM   C11S 7741   5.014   3.001   5.021
   83OSM   H11S 7742   5.007   2.923   5.099
   83OSM   H11T 7743   5.119   3.002   4.984
   83OSM   C12S 7744   4.918   2.967   4.906
   83OSM   H12S 7745   4.814   2.963   4.946
   83OSM   H12T 7746   4.944   2.866   4.866
   83OSM   C13S 7747   4.923   3.068   4.792
   83OSM   H13S 7748   5.026   3.077   4.752
   83OSM   H13T 7749   4.893   3.167   4.833
   83OSM   C14S 7750   4.826   3.035   4.677
   83OSM   H14S 7751   4.724   3.022   4.722
   83OSM   H14T 7752   4.854   2.942   4.625
   83OSM   C15S 7753   4.816   3.153   4.580
   83OSM   H15S 7754   4.790   3.236   4.647
   83OSM   H15T 7755   4.732   3.141   4.509
   83OSM   C16S 7756   4.942   3.188   4.499
   83OSM   H16S 7757   5.025   3.216   4.567
   83OSM   H16T 7758   4.920   3.276   4.435
   83OSM   C17S 7759   4.988   3.075   4.408
   83OSM   H17S 7760   4.899   3.022   4.366
   83OSM   H17T 7761   5.043   3.004   4.473
   83OSM   C18S 7762   5.078   3.122   4.295
   83OSM   H18S 7763   5.023   3.195   4.230
   83OSM   H18T 7764   5.110   3.036   4.233
   83OSM   H18U 7765   5.169   3.173   4.334
   83OSM    C1F 7766   4.960   3.391   5.762
   83OSM     OF 7767   5.038   3.394   5.855
   83OSM    C2F 7768   4.978   3.479   5.643
   83OSM    H2F 7769   5.004   3.415   5.555
   83OSM    H2G 7770   5.062   3.549   5.660
   83OSM    C3F 7771   4.847   3.556   5.615
   83OSM    H3F 7772   4.832   3.631   5.697
   83OSM    H3G 7773   4.758   3.490   5.614
   83OSM    C4F 7774   4.851   3.629   5.481
   83OSM    H4F 7775   4.956   3.657   5.458
   83OSM    H4G 7776   4.794   3.723   5.490
   83OSM    C5F 7777   4.793   3.543   5.368
   83OSM    H5F 7778   4.691   3.508   5.395
   83OSM    H5G 7779   4.857   3.453   5.357
   83OSM    C6F 7780   4.785   3.622   5.236
   83OSM    H6F 7781   4.886   3.663   5.213
   83OSM    H6G 7782   4.718   3.709   5.248
   83OSM    C7F 7783   4.736   3.537   5.118
   83OSM    H7F 7784   4.737   3.599   5.026
   83OSM    H7G 7785   4.631   3.505   5.136
   83OSM    C8F 7786   4.821   3.412   5.095
   83OSM    H8F 7787   4.787   3.362   5.002
   83OSM    H8G 7788   4.801   3.340   5.177
   83OSM    C9F 7789   4.969   3.448   5.093
   83OSM    H9F 7790   5.012   3.458   5.194
   83OSM   C10F 7791   5.052   3.452   4.988
   83OSM   H10F 7792   5.160   3.463   5.006
   83OSM   C11F 7793   5.013   3.422   4.847
   83OSM   H11F 7794   4.919   3.362   4.843
   83OSM   H11G 7795   5.091   3.361   4.796
   83OSM   C12F 7796   4.987   3.550   4.768
   83OSM   H12F 7797   5.080   3.610   4.765
   83OSM   H12G 7798   4.907   3.610   4.817
   83OSM   C13F 7799   4.942   3.515   4.627
   83OSM   H13F 7800   5.005   3.431   4.590
   83OSM   H13G 7801   4.956   3.599   4.558
   83OSM   C14F 7802   4.794   3.478   4.622
   83OSM   H14F 7803   4.758   3.433   4.717
   83OSM   H14G 7804   4.785   3.402   4.543
   83OSM   C15F 7805   4.707   3.596   4.583
   83OSM   H15F 7806   4.770   3.677   4.540
   83OSM   H15G 7807   4.665   3.630   4.679
   83OSM   C16F 7808   4.592   3.569   4.485
   83OSM   H16F 7809   4.563   3.667   4.441
   83OSM   H16G 7810   4.506   3.530   4.544
   83OSM   C17F 7811   4.622   3.467   4.374
   83OSM   H17F 7812   4.536   3.465   4.304
   83OSM   H17G 7813   4.625   3.367   4.423
   83OSM   C18F 7814   4.754   3.484   4.296
   83OSM   H18F 7815   4.836   3.517   4.363
   83OSM   H18G 7816   4.746   3.557   4.213
   83OSM   H18H 7817   4.783   3.385   4.253
   84OSM      N 7818   2.508   2.727   6.491
   84OSM    C15 7819   2.509   2.676   6.631
   84OSM   H15A 7820   2.511   2.567   6.629
   84OSM   H15B 7821   2.419   2.705   6.685
   84OSM   H15C 7822   2.598   2.706   6.686
   84OSM    C14 7823   2.645   2.717   6.433
   84OSM   H14A 7824   2.715   2.773   6.494
   84OSM   H14B 7825   2.646   2.767   6.336
   84OSM   H14C 7826   2.680   2.615   6.421
   84OSM    C13 7827   2.412   2.646   6.409
   84OSM   H13A 7828   2.450   2.547   6.390
   84OSM   H13B 7829   2.394   2.694   6.313
   84OSM   H13C 7830   2.317   2.638   6.460
   84OSM    C12 7831   2.463   2.872   6.482
   84OSM   H12A 7832   2.523   2.935   6.545
   84OSM   H12B 7833   2.359   2.883   6.516
   84OSM    C11 7834   2.465   2.937   6.341
   84OSM   H11A 7835   2.395   3.025   6.344
   84OSM   H11B 7836   2.423   2.870   6.263
   84OSM      P 7837   2.632   3.117   6.252
   84OSM    O13 7838   2.525   3.213   6.281
   84OSM    O14 7839   2.765   3.152   6.308
   84OSM    O11 7840   2.643   3.095   6.095
   84OSM    O12 7841   2.598   2.973   6.308
   84OSM    C1S 7842   2.654   2.964   6.038
   84OSM    H1S 7843   2.574   2.897   6.077
   84OSM    H1T 7844   2.753   2.920   6.062
   84OSM     NF 7845   2.683   2.845   5.822
   84OSM    HNF 7846   2.774   2.845   5.783
   84OSM    C2S 7847   2.637   2.970   5.884
   84OSM    H2S 7848   2.529   2.985   5.862
   84OSM    C3S 7849   2.714   3.094   5.829
   84OSM    H3S 7850   2.818   3.098   5.868
   84OSM     O3 7851   2.652   3.220   5.857
   84OSM    HO3 7852   2.602   3.202   5.938
   84OSM    C4S 7853   2.716   3.083   5.680
   84OSM    H4S 7854   2.618   3.103   5.633
   84OSM    C5S 7855   2.824   3.053   5.606
   84OSM    H5S 7856   2.921   3.036   5.656
   84OSM    C6S 7857   2.822   3.042   5.457
   84OSM    H6S 7858   2.872   2.947   5.427
   84OSM    H6T 7859   2.883   3.125   5.417
   84OSM    C7S 7860   2.682   3.045   5.393
   84OSM    H7S 7861   2.634   3.143   5.414
   84OSM    H7T 7862   2.617   2.965   5.436
   84OSM    C8S 7863   2.683   3.027   5.241
   84OSM    H8S 7864   2.609   3.099   5.198
   84OSM    H8T 7865   2.646   2.926   5.213
   84OSM    C9S 7866   2.820   3.049   5.176
   84OSM    H9S 7867   2.891   2.968   5.202
   84OSM    H9T 7868   2.861   3.146   5.213
   84OSM   C10S 7869   2.806   3.063   5.025
   84OSM   H10S 7870   2.855   3.158   4.995
   84OSM   H10T 7871   2.697   3.066   5.002
   84OSM   C11S 7872   2.864   2.953   4.940
   84OSM   H11S 7873   2.792   2.869   4.931
   84OSM   H11T 7874   2.956   2.916   4.988
   84OSM   C12S 7875   2.895   3.004   4.800
   84OSM   H12S 7876   2.959   3.095   4.805
   84OSM   H12T 7877   2.800   3.031   4.748
   84OSM   C13S 7878   2.968   2.897   4.721
   84OSM   H13S 7879   2.909   2.803   4.721
   84OSM   H13T 7880   3.066   2.875   4.769
   84OSM   C14S 7881   2.993   2.939   4.577
   84OSM   H14S 7882   3.048   2.851   4.534
   84OSM   H14T 7883   3.057   3.030   4.574
   84OSM   C15S 7884   2.869   2.961   4.491
   84OSM   H15S 7885   2.830   3.064   4.504
   84OSM   H15T 7886   2.791   2.891   4.530
   84OSM   C16S 7887   2.897   2.934   4.343
   84OSM   H16S 7888   2.976   2.855   4.333
   84OSM   H16T 7889   2.937   3.025   4.294
   84OSM   C17S 7890   2.774   2.882   4.268
   84OSM   H17S 7891   2.802   2.864   4.162
   84OSM   H17T 7892   2.698   2.963   4.268
   84OSM   C18S 7893   2.717   2.754   4.330
   84OSM   H18S 7894   2.798   2.695   4.379
   84OSM   H18T 7895   2.668   2.691   4.254
   84OSM   H18U 7896   2.644   2.779   4.409
   84OSM    C1F 7897   2.607   2.736   5.812
   84OSM     OF 7898   2.494   2.736   5.856
   84OSM    C2F 7899   2.670   2.615   5.748
   84OSM    H2F 7900   2.683   2.538   5.827
   84OSM    H2G 7901   2.771   2.640   5.709
   84OSM    C3F 7902   2.585   2.552   5.634
   84OSM    H3F 7903   2.480   2.538   5.670
   84OSM    H3G 7904   2.626   2.450   5.616
   84OSM    C4F 7905   2.584   2.627   5.500
   84OSM    H4F 7906   2.536   2.727   5.512
   84OSM    H4G 7907   2.522   2.569   5.428
   84OSM    C5F 7908   2.724   2.643   5.438
   84OSM    H5F 7909   2.781   2.548   5.449
   84OSM    H5G 7910   2.779   2.721   5.496
   84OSM    C6F 7911   2.721   2.684   5.290
   84OSM    H6F 7912   2.788   2.773   5.281
   84OSM    H6G 7913   2.619   2.714   5.259
   84OSM    C7F 7914   2.777   2.579   5.193
   84OSM    H7F 7915   2.709   2.491   5.185
   84OSM    H7G 7916   2.874   2.546   5.235
   84OSM    C8F 7917   2.801   2.644   5.055
   84OSM    H8F 7918   2.864   2.733   5.079
   84OSM    H8G 7919   2.702   2.682   5.021
   84OSM    C9F 7920   2.873   2.569   4.946
   84OSM    H9F 7921   2.970   2.527   4.974
   84OSM   C10F 7922   2.833   2.554   4.818
   84OSM   H10F 7923   2.897   2.497   4.749
   84OSM   C11F 7924   2.706   2.608   4.757
   84OSM   H11F 7925   2.728   2.660   4.661
   84OSM   H11G 7926   2.655   2.681   4.822
   84OSM   C12F 7927   2.610   2.491   4.730
   84OSM   H12F 7928   2.615   2.420   4.815
   84OSM   H12G 7929   2.641   2.439   4.637
   84OSM   C13F 7930   2.463   2.532   4.720
   84OSM   H13F 7931   2.435   2.588   4.812
   84OSM   H13G 7932   2.398   2.442   4.713
   84OSM   C14F 7933   2.432   2.612   4.596
   84OSM   H14F 7934   2.418   2.544   4.509
   84OSM   H14G 7935   2.520   2.677   4.575
   84OSM   C15F 7936   2.310   2.702   4.610
   84OSM   H15F 7937   2.301   2.737   4.716
   84OSM   H15G 7938   2.216   2.648   4.584
   84OSM   C16F 7939   2.330   2.826   4.524
   84OSM   H16F 7940   2.418   2.880   4.567
   84OSM   H16G 7941   2.244   2.894   4.530
   84OSM   C17F 7942   2.360   2.794   4.377
   84OSM   H17F 7943   2.268   2.760   4.326
   84OSM   H17G 7944   2.433   2.710   4.367
   84OSM   C18F 7945   2.418   2.917   4.309
   84OSM   H18F 7946   2.342   2.964   4.243
   84OSM   H18G 7947   2.504   2.891   4.245
   84OSM   H18H 7948   2.452   2.991   4.384
   85OSM      N 7949   2.318   4.970   6.358
   85OSM    C15 7950   2.202   4.967   6.264
   85OSM   H15A 7951   2.225   5.015   6.169
   85OSM   H15B 7952   2.117   5.021   6.307
   85OSM   H15C 7953   2.173   4.865   6.244
   85OSM    C14 7954   2.272   4.933   6.495
   85OSM   H14A 7955   2.233   4.833   6.498
   85OSM   H14B 7956   2.196   5.003   6.530
   85OSM   H14C 7957   2.357   4.942   6.563
   85OSM    C13 7958   2.427   4.877   6.313
   85OSM   H13A 7959   2.399   4.773   6.319
   85OSM   H13B 7960   2.516   4.896   6.374
   85OSM   H13C 7961   2.457   4.901   6.211
   85OSM    C12 7962   2.377   5.112   6.360
   85OSM   H12A 7963   2.299   5.185   6.375
   85OSM   H12B 7964   2.418   5.134   6.262
   85OSM    C11 7965   2.496   5.139   6.457
   85OSM   H11A 7966   2.471   5.103   6.559
   85OSM   H11B 7967   2.509   5.249   6.467
   85OSM      P 7968   2.699   5.150   6.296
   85OSM    O13 7969   2.765   5.270   6.352
   85OSM    O14 7970   2.794   5.054   6.236
   85OSM    O11 7971   2.589   5.193   6.189
   85OSM    O12 7972   2.616   5.076   6.411
   85OSM    C1S 7973   2.633   5.245   6.062
   85OSM    H1S 7974   2.744   5.246   6.050
   85OSM    H1T 7975   2.598   5.351   6.051
   85OSM     NF 7976   2.649   5.184   5.823
   85OSM    HNF 7977   2.608   5.232   5.746
   85OSM    C2S 7978   2.574   5.161   5.945
   85OSM    H2S 7979   2.582   5.053   5.972
   85OSM    C3S 7980   2.424   5.199   5.932
   85OSM    H3S 7981   2.412   5.309   5.930
   85OSM     O3 7982   2.350   5.150   6.043
   85OSM    HO3 7983   2.420   5.145   6.109
   85OSM    C4S 7984   2.372   5.139   5.806
   85OSM    H4S 7985   2.347   5.032   5.809
   85OSM    C5S 7986   2.363   5.209   5.692
   85OSM    H5S 7987   2.392   5.316   5.691
   85OSM    C6S 7988   2.314   5.158   5.560
   85OSM    H6S 7989   2.401   5.133   5.496
   85OSM    H6T 7990   2.260   5.240   5.509
   85OSM    C7S 7991   2.221   5.035   5.567
   85OSM    H7S 7992   2.142   5.050   5.644
   85OSM    H7T 7993   2.283   4.948   5.599
   85OSM    C8S 7994   2.154   5.002   5.432
   85OSM    H8S 7995   2.071   5.072   5.414
   85OSM    H8T 7996   2.106   4.902   5.439
   85OSM    C9S 7997   2.254   5.003   5.315
   85OSM    H9S 7998   2.339   4.936   5.345
   85OSM    H9T 7999   2.295   5.105   5.301
   85OSM   C10S 8000   2.201   4.954   5.179
   85OSM   H10S 8001   2.133   5.031   5.137
   85OSM   H10T 8002   2.143   4.860   5.194
   85OSM   C11S 8003   2.318   4.925   5.082
   85OSM   H11S 8004   2.338   4.815   5.083
   85OSM   H11T 8005   2.410   4.975   5.121
   85OSM   C12S 8006   2.297   4.973   4.937
   85OSM   H12S 8007   2.306   5.084   4.936
   85OSM   H12T 8008   2.195   4.947   4.904
   85OSM   C13S 8009   2.397   4.913   4.835
   85OSM   H13S 8010   2.374   4.806   4.820
   85OSM   H13T 8011   2.501   4.915   4.875
   85OSM   C14S 8012   2.391   4.990   4.702
   85OSM   H14S 8013   2.425   5.094   4.720
   85OSM   H14T 8014   2.284   4.999   4.673
   85OSM   C15S 8015   2.469   4.933   4.582
   85OSM   H15S 8016   2.445   4.826   4.566
   85OSM   H15T 8017   2.578   4.941   4.601
   85OSM   C16S 8018   2.433   5.016   4.457
   85OSM   H16S 8019   2.452   5.122   4.482
   85OSM   H16T 8020   2.324   5.005   4.436
   85OSM   C17S 8021   2.510   4.983   4.329
   85OSM   H17S 8022   2.482   4.881   4.296
   85OSM   H17T 8023   2.619   4.984   4.350
   85OSM   C18S 8024   2.480   5.084   4.217
   85OSM   H18S 8025   2.536   5.060   4.125
   85OSM   H18T 8026   2.508   5.187   4.249
   85OSM   H18U 8027   2.371   5.082   4.193
   85OSM    C1F 8028   2.772   5.132   5.810
   85OSM     OF 8029   2.815   5.052   5.892
   85OSM    C2F 8030   2.851   5.173   5.691
   85OSM    H2F 8031   2.794   5.146   5.600
   85OSM    H2G 8032   2.945   5.115   5.691
   85OSM    C3F 8033   2.883   5.323   5.697
   85OSM    H3F 8034   2.941   5.344   5.790
   85OSM    H3G 8035   2.790   5.383   5.704
   85OSM    C4F 8036   2.966   5.376   5.579
   85OSM    H4F 8037   3.073   5.349   5.597
   85OSM    H4G 8038   2.961   5.488   5.581
   85OSM    C5F 8039   2.929   5.325   5.439
   85OSM    H5F 8040   2.963   5.220   5.429
   85OSM    H5G 8041   2.988   5.385   5.366
   85OSM    C6F 8042   2.781   5.330   5.395
   85OSM    H6F 8043   2.727   5.238   5.428
   85OSM    H6G 8044   2.782   5.326   5.284
   85OSM    C7F 8045   2.698   5.452   5.441
   85OSM    H7F 8046   2.765   5.540   5.454
   85OSM    H7G 8047   2.653   5.432   5.540
   85OSM    C8F 8048   2.585   5.487   5.341
   85OSM    H8F 8049   2.523   5.568   5.386
   85OSM    H8G 8050   2.520   5.399   5.322
   85OSM    C9F 8051   2.650   5.540   5.216
   85OSM    H9F 8052   2.756   5.564   5.233
   85OSM   C10F 8053   2.610   5.541   5.089
   85OSM   H10F 8054   2.680   5.579   5.012
   85OSM   C11F 8055   2.483   5.485   5.034
   85OSM   H11F 8056   2.425   5.562   4.978
   85OSM   H11G 8057   2.419   5.442   5.113
   85OSM   C12F 8058   2.525   5.371   4.940
   85OSM   H12F 8059   2.563   5.415   4.845
   85OSM   H12G 8060   2.435   5.311   4.915
   85OSM   C13F 8061   2.633   5.278   5.000
   85OSM   H13F 8062   2.600   5.246   5.101
   85OSM   H13G 8063   2.730   5.332   5.012
   85OSM   C14F 8064   2.662   5.156   4.914
   85OSM   H14F 8065   2.572   5.091   4.926
   85OSM   H14G 8066   2.749   5.101   4.955
   85OSM   C15F 8067   2.682   5.185   4.765
   85OSM   H15F 8068   2.590   5.233   4.724
   85OSM   H15G 8069   2.693   5.088   4.712
   85OSM   C16F 8070   2.801   5.275   4.730
   85OSM   H16F 8071   2.895   5.218   4.750
   85OSM   H16G 8072   2.802   5.366   4.795
   85OSM   C17F 8073   2.800   5.321   4.583
   85OSM   H17F 8074   2.899   5.366   4.558
   85OSM   H17G 8075   2.724   5.402   4.573
   85OSM   C18F 8076   2.766   5.211   4.482
   85OSM   H18F 8077   2.777   5.248   4.378
   85OSM   H18G 8078   2.661   5.178   4.496
   85OSM   H18H 8079   2.833   5.123   4.496
   86OSM      N 8080   3.666   6.095   6.439
   86OSM    C15 8081   3.775   6.142   6.528
   86OSM   H15A 8082   3.873   6.115   6.487
   86OSM   H15B 8083   3.769   6.095   6.626
   86OSM   H15C 8084   3.776   6.249   6.540
   86OSM    C14 8085   3.531   6.136   6.489
   86OSM   H14A 8086   3.512   6.241   6.474
   86OSM   H14B 8087   3.517   6.106   6.592
   86OSM   H14C 8088   3.454   6.081   6.433
   86OSM    C13 8089   3.680   6.154   6.302
   86OSM   H13A 8090   3.776   6.132   6.258
   86OSM   H13B 8091   3.667   6.261   6.307
   86OSM   H13C 8092   3.607   6.110   6.234
   86OSM    C12 8093   3.669   5.943   6.431
   86OSM   H12A 8094   3.645   5.904   6.529
   86OSM   H12B 8095   3.770   5.910   6.408
   86OSM    C11 8096   3.573   5.873   6.332
   86OSM   H11A 8097   3.586   5.762   6.339
   86OSM   H11B 8098   3.599   5.903   6.228
   86OSM      P 8099   3.312   5.857   6.286
   86OSM    O13 8100   3.249   5.746   6.361
   86OSM    O14 8101   3.231   5.977   6.256
   86OSM    O11 8102   3.372   5.804   6.147
   86OSM    O12 8103   3.440   5.907   6.364
   86OSM    C1S 8104   3.395   5.909   6.050
   86OSM    H1S 8105   3.450   5.995   6.096
   86OSM    H1T 8106   3.299   5.947   6.009
   86OSM     NF 8107   3.547   5.977   5.871
   86OSM    HNF 8108   3.507   6.010   5.787
   86OSM    C2S 8109   3.482   5.863   5.930
   86OSM    H2S 8110   3.560   5.793   5.966
   86OSM    C3S 8111   3.394   5.793   5.822
   86OSM    H3S 8112   3.321   5.868   5.783
   86OSM     O3 8113   3.316   5.683   5.866
   86OSM    HO3 8114   3.325   5.686   5.962
   86OSM    C4S 8115   3.485   5.754   5.710
   86OSM    H4S 8116   3.476   5.821   5.623
   86OSM    C5S 8117   3.569   5.650   5.704
   86OSM    H5S 8118   3.573   5.578   5.788
   86OSM    C6S 8119   3.657   5.619   5.586
   86OSM    H6S 8120   3.646   5.512   5.558
   86OSM    H6T 8121   3.763   5.635   5.616
   86OSM    C7S 8122   3.634   5.704   5.460
   86OSM    H7S 8123   3.654   5.812   5.484
   86OSM    H7T 8124   3.529   5.694   5.427
   86OSM    C8S 8125   3.727   5.662   5.346
   86OSM    H8S 8126   3.712   5.554   5.326
   86OSM    H8T 8127   3.832   5.676   5.380
   86OSM    C9S 8128   3.705   5.742   5.217
   86OSM    H9S 8129   3.715   5.850   5.239
   86OSM    H9T 8130   3.602   5.723   5.180
   86OSM   C10S 8131   3.804   5.703   5.107
   86OSM   H10S 8132   3.793   5.595   5.083
   86OSM   H10T 8133   3.907   5.719   5.147
   86OSM   C11S 8134   3.789   5.785   4.979
   86OSM   H11S 8135   3.888   5.826   4.953
   86OSM   H11T 8136   3.720   5.870   4.998
   86OSM   C12S 8137   3.735   5.704   4.859
   86OSM   H12S 8138   3.647   5.645   4.893
   86OSM   H12T 8139   3.813   5.633   4.824
   86OSM   C13S 8140   3.690   5.795   4.743
   86OSM   H13S 8141   3.608   5.859   4.783
   86OSM   H13T 8142   3.646   5.733   4.661
   86OSM   C14S 8143   3.800   5.886   4.686
   86OSM   H14S 8144   3.865   5.828   4.617
   86OSM   H14T 8145   3.865   5.922   4.769
   86OSM   C15S 8146   3.747   6.014   4.618
   86OSM   H15S 8147   3.833   6.077   4.587
   86OSM   H15T 8148   3.691   6.071   4.695
   86OSM   C16S 8149   3.656   5.992   4.496
   86OSM   H16S 8150   3.604   6.088   4.475
   86OSM   H16T 8151   3.578   5.915   4.519
   86OSM   C17S 8152   3.731   5.950   4.370
   86OSM   H17S 8153   3.791   5.860   4.393
   86OSM   H17T 8154   3.802   6.032   4.342
   86OSM   C18S 8155   3.640   5.920   4.250
   86OSM   H18S 8156   3.687   5.842   4.186
   86OSM   H18T 8157   3.626   6.009   4.186
   86OSM   H18U 8158   3.541   5.882   4.282
   86OSM    C1F 8159   3.649   6.047   5.918
   86OSM     OF 8160   3.697   6.027   6.029
   86OSM    C2F 8161   3.696   6.157   5.828
   86OSM    H2F 8162   3.804   6.177   5.847
   86OSM    H2G 8163   3.639   6.248   5.854
   86OSM    C3F 8164   3.675   6.129   5.675
   86OSM    H3F 8165   3.587   6.067   5.649
   86OSM    H3G 8166   3.765   6.074   5.638
   86OSM    C4F 8167   3.659   6.260   5.597
   86OSM    H4F 8168   3.708   6.254   5.498
   86OSM    H4G 8169   3.713   6.339   5.653
   86OSM    C5F 8170   3.514   6.310   5.584
   86OSM    H5F 8171   3.519   6.419   5.563
   86OSM    H5G 8172   3.462   6.298   5.681
   86OSM    C6F 8173   3.427   6.248   5.472
   86OSM    H6F 8174   3.344   6.319   5.453
   86OSM    H6G 8175   3.380   6.154   5.509
   86OSM    C7F 8176   3.498   6.223   5.338
   86OSM    H7F 8177   3.572   6.303   5.320
   86OSM    H7G 8178   3.423   6.230   5.255
   86OSM    C8F 8179   3.567   6.085   5.325
   86OSM    H8F 8180   3.650   6.076   5.398
   86OSM    H8G 8181   3.616   6.080   5.225
   86OSM    C9F 8182   3.470   5.972   5.347
   86OSM    H9F 8183   3.449   5.948   5.451
   86OSM   C10F 8184   3.407   5.904   5.251
   86OSM   H10F 8185   3.335   5.825   5.279
   86OSM   C11F 8186   3.422   5.928   5.103
   86OSM   H11F 8187   3.429   5.831   5.049
   86OSM   H11G 8188   3.512   5.986   5.077
   86OSM   C12F 8189   3.297   6.003   5.055
   86OSM   H12F 8190   3.289   6.104   5.103
   86OSM   H12G 8191   3.213   5.943   5.093
   86OSM   C13F 8192   3.286   6.016   4.903
   86OSM   H13F 8193   3.187   6.060   4.876
   86OSM   H13G 8194   3.290   5.914   4.858
   86OSM   C14F 8195   3.394   6.104   4.841
   86OSM   H14F 8196   3.492   6.083   4.890
   86OSM   H14G 8197   3.370   6.211   4.860
   86OSM   C15F 8198   3.412   6.079   4.691
   86OSM   H15F 8199   3.445   5.974   4.678
   86OSM   H15G 8200   3.493   6.147   4.655
   86OSM   C16F 8201   3.286   6.104   4.608
   86OSM   H16F 8202   3.268   6.213   4.613
   86OSM   H16G 8203   3.199   6.051   4.652
   86OSM   C17F 8204   3.294   6.064   4.459
   86OSM   H17F 8205   3.394   6.090   4.418
   86OSM   H17G 8206   3.220   6.127   4.404
   86OSM   C18F 8207   3.262   5.918   4.430
   86OSM   H18F 8208   3.263   5.899   4.320
   86OSM   H18G 8209   3.161   5.892   4.468
   86OSM   H18H 8210   3.337   5.851   4.477
   87OSM      N 8211   1.804   4.767   6.464
   87OSM    C15 8212   1.895   4.761   6.346
   87OSM   H15A 8213   1.998   4.769   6.375
   87OSM   H15B 8214   1.868   4.842   6.279
   87OSM   H15C 8215   1.882   4.668   6.292
   87OSM    C14 8216   1.839   4.658   6.558
   87OSM   H14A 8217   1.835   4.560   6.514
   87OSM   H14B 8218   1.774   4.663   6.645
   87OSM   H14C 8219   1.939   4.675   6.597
   87OSM    C13 8220   1.819   4.899   6.536
   87OSM   H13A 8221   1.802   4.984   6.469
   87OSM   H13B 8222   1.914   4.909   6.587
   87OSM   H13C 8223   1.743   4.910   6.613
   87OSM    C12 8224   1.659   4.748   6.418
   87OSM   H12A 8225   1.594   4.768   6.502
   87OSM   H12B 8226   1.643   4.644   6.391
   87OSM    C11 8227   1.611   4.839   6.304
   87OSM   H11A 8228   1.503   4.819   6.284
   87OSM   H11B 8229   1.667   4.816   6.211
   87OSM      P 8230   1.623   5.096   6.253
   87OSM    O13 8231   1.480   5.131   6.234
   87OSM    O14 8232   1.713   5.196   6.316
   87OSM    O11 8233   1.681   5.037   6.118
   87OSM    O12 8234   1.630   4.972   6.347
   87OSM    C1S 8235   1.817   5.058   6.083
   87OSM    H1S 8236   1.873   4.963   6.098
   87OSM    H1T 8237   1.868   5.137   6.143
   87OSM     NF 8238   1.740   5.217   5.911
   87OSM    HNF 8239   1.653   5.199   5.866
   87OSM    C2S 8240   1.825   5.101   5.934
   87OSM    H2S 8241   1.930   5.130   5.912
   87OSM    C3S 8242   1.786   4.980   5.845
   87OSM    H3S 8243   1.683   4.946   5.869
   87OSM     O3 8244   1.870   4.866   5.862
   87OSM    HO3 8245   1.928   4.888   5.934
   87OSM    C4S 8246   1.791   5.020   5.700
   87OSM    H4S 8247   1.889   5.057   5.666
   87OSM    C5S 8248   1.689   5.011   5.613
   87OSM    H5S 8249   1.593   4.967   5.646
   87OSM    C6S 8250   1.697   5.051   5.469
   87OSM    H6S 8251   1.754   5.146   5.457
   87OSM    H6T 8252   1.595   5.070   5.430
   87OSM    C7S 8253   1.765   4.944   5.382
   87OSM    H7S 8254   1.726   4.842   5.404
   87OSM    H7T 8255   1.874   4.943   5.406
   87OSM    C8S 8256   1.749   4.973   5.232
   87OSM    H8S 8257   1.828   4.919   5.175
   87OSM    H8T 8258   1.765   5.082   5.216
   87OSM    C9S 8259   1.611   4.933   5.175
   87OSM    H9S 8260   1.602   4.978   5.073
   87OSM    H9T 8261   1.530   4.975   5.238
   87OSM   C10S 8262   1.594   4.781   5.162
   87OSM   H10S 8263   1.603   4.734   5.262
   87OSM   H10T 8264   1.677   4.743   5.100
   87OSM   C11S 8265   1.461   4.735   5.097
   87OSM   H11S 8266   1.377   4.764   5.163
   87OSM   H11T 8267   1.464   4.623   5.094
   87OSM   C12S 8268   1.434   4.785   4.954
   87OSM   H12S 8269   1.411   4.894   4.957
   87OSM   H12T 8270   1.343   4.733   4.916
   87OSM   C13S 8271   1.549   4.761   4.854
   87OSM   H13S 8272   1.588   4.658   4.869
   87OSM   H13T 8273   1.632   4.832   4.878
   87OSM   C14S 8274   1.509   4.776   4.706
   87OSM   H14S 8275   1.448   4.867   4.691
   87OSM   H14T 8276   1.446   4.688   4.680
   87OSM   C15S 8277   1.631   4.781   4.611
   87OSM   H15S 8278   1.712   4.724   4.662
   87OSM   H15T 8279   1.667   4.885   4.598
   87OSM   C16S 8280   1.615   4.719   4.472
   87OSM   H16S 8281   1.593   4.610   4.485
   87OSM   H16T 8282   1.712   4.726   4.417
   87OSM   C17S 8283   1.507   4.783   4.385
   87OSM   H17S 8284   1.535   4.888   4.359
   87OSM   H17T 8285   1.413   4.792   4.444
   87OSM   C18S 8286   1.479   4.704   4.256
   87OSM   H18S 8287   1.558   4.721   4.180
   87OSM   H18T 8288   1.380   4.733   4.213
   87OSM   H18U 8289   1.474   4.595   4.275
   87OSM    C1F 8290   1.758   5.335   5.970
   87OSM     OF 8291   1.856   5.356   6.040
   87OSM    C2F 8292   1.650   5.438   5.951
   87OSM    H2F 8293   1.698   5.538   5.951
   87OSM    H2G 8294   1.583   5.433   6.040
   87OSM    C3F 8295   1.563   5.424   5.823
   87OSM    H3F 8296   1.489   5.507   5.824
   87OSM    H3G 8297   1.504   5.329   5.825
   87OSM    C4F 8298   1.643   5.433   5.691
   87OSM    H4F 8299   1.695   5.336   5.675
   87OSM    H4G 8300   1.721   5.511   5.703
   87OSM    C5F 8301   1.562   5.465   5.565
   87OSM    H5F 8302   1.509   5.563   5.578
   87OSM    H5G 8303   1.485   5.387   5.546
   87OSM    C6F 8304   1.657   5.475   5.444
   87OSM    H6F 8305   1.715   5.380   5.436
   87OSM    H6G 8306   1.730   5.557   5.468
   87OSM    C7F 8307   1.595   5.507   5.307
   87OSM    H7F 8308   1.679   5.536   5.240
   87OSM    H7G 8309   1.526   5.594   5.317
   87OSM    C8F 8310   1.522   5.387   5.242
   87OSM    H8F 8311   1.437   5.357   5.307
   87OSM    H8G 8312   1.592   5.300   5.238
   87OSM    C9F 8313   1.471   5.425   5.105
   87OSM    H9F 8314   1.385   5.493   5.107
   87OSM   C10F 8315   1.520   5.389   4.984
   87OSM   H10F 8316   1.471   5.431   4.894
   87OSM   C11F 8317   1.638   5.301   4.951
   87OSM   H11F 8318   1.683   5.255   5.041
   87OSM   H11G 8319   1.717   5.364   4.904
   87OSM   C12F 8320   1.601   5.190   4.850
   87OSM   H12F 8321   1.545   5.232   4.764
   87OSM   H12G 8322   1.533   5.118   4.902
   87OSM   C13F 8323   1.721   5.110   4.796
   87OSM   H13F 8324   1.682   5.025   4.738
   87OSM   H13G 8325   1.777   5.068   4.883
   87OSM   C14F 8326   1.821   5.189   4.709
   87OSM   H14F 8327   1.911   5.125   4.692
   87OSM   H14G 8328   1.855   5.278   4.766
   87OSM   C15F 8329   1.773   5.235   4.571
   87OSM   H15F 8330   1.673   5.282   4.580
   87OSM   H15G 8331   1.765   5.146   4.505
   87OSM   C16F 8332   1.874   5.336   4.513
   87OSM   H16F 8333   1.970   5.282   4.521
   87OSM   H16G 8334   1.879   5.427   4.577
   87OSM   C17F 8335   1.868   5.376   4.365
   87OSM   H17F 8336   1.964   5.428   4.339
   87OSM   H17G 8337   1.791   5.453   4.347
   87OSM   C18F 8338   1.851   5.255   4.272
   87OSM   H18F 8339   1.755   5.203   4.294
   87OSM   H18G 8340   1.934   5.183   4.288
   87OSM   H18H 8341   1.851   5.286   4.165
   88OSM      N 8342   5.630   1.316   6.516
   88OSM    C15 8343   5.664   1.170   6.530
   88OSM   H15A 8344   5.747   1.146   6.463
   88OSM   H15B 8345   5.578   1.108   6.508
   88OSM   H15C 8346   5.694   1.147   6.632
   88OSM    C14 8347   5.512   1.345   6.603
   88OSM   H14A 8348   5.479   1.448   6.595
   88OSM   H14B 8349   5.534   1.325   6.708
   88OSM   H14C 8350   5.427   1.280   6.576
   88OSM    C13 8351   5.753   1.393   6.557
   88OSM   H13A 8352   5.836   1.366   6.491
   88OSM   H13B 8353   5.779   1.374   6.659
   88OSM   H13C 8354   5.740   1.500   6.541
   88OSM    C12 8355   5.599   1.353   6.371
   88OSM   H12A 8356   5.613   1.461   6.359
   88OSM   H12B 8357   5.494   1.335   6.351
   88OSM    C11 8358   5.688   1.291   6.261
   88OSM   H11A 8359   5.650   1.321   6.160
   88OSM   H11B 8360   5.678   1.181   6.267
   88OSM      P 8361   5.873   1.475   6.238
   88OSM    O13 8362   5.757   1.566   6.264
   88OSM    O14 8363   5.999   1.505   6.308
   88OSM    O11 8364   5.897   1.454   6.083
   88OSM    O12 8365   5.825   1.328   6.281
   88OSM    C1S 8366   5.951   1.326   6.047
   88OSM    H1S 8367   5.886   1.241   6.080
   88OSM    H1T 8368   6.052   1.309   6.092
   88OSM     NF 8369   5.955   1.186   5.843
   88OSM    HNF 8370   6.037   1.151   5.800
   88OSM    C2S 8371   5.960   1.322   5.896
   88OSM    H2S 8372   5.874   1.378   5.852
   88OSM    C3S 8373   6.092   1.396   5.859
   88OSM    H3S 8374   6.178   1.343   5.906
   88OSM     O3 8375   6.098   1.532   5.903
   88OSM    HO3 8376   6.028   1.539   5.969
   88OSM    C4S 8377   6.106   1.388   5.711
   88OSM    H4S 8378   6.176   1.312   5.676
   88OSM    C5S 8379   6.045   1.468   5.623
   88OSM    H5S 8380   5.984   1.553   5.657
   88OSM    C6S 8381   6.063   1.454   5.476
   88OSM    H6S 8382   5.964   1.443   5.427
   88OSM    H6T 8383   6.123   1.363   5.450
   88OSM    C7S 8384   6.135   1.573   5.416
   88OSM    H7S 8385   6.239   1.576   5.456
   88OSM    H7T 8386   6.086   1.671   5.439
   88OSM    C8S 8387   6.141   1.553   5.266
   88OSM    H8S 8388   6.167   1.447   5.242
   88OSM    H8T 8389   6.223   1.614   5.225
   88OSM    C9S 8390   6.015   1.595   5.191
   88OSM    H9S 8391   5.973   1.689   5.230
   88OSM    H9T 8392   5.937   1.519   5.206
   88OSM   C10S 8393   6.060   1.612   5.046
   88OSM   H10S 8394   6.115   1.520   5.018
   88OSM   H10T 8395   6.133   1.695   5.043
   88OSM   C11S 8396   5.958   1.642   4.939
   88OSM   H11S 8397   5.922   1.747   4.944
   88OSM   H11T 8398   5.868   1.577   4.948
   88OSM   C12S 8399   6.027   1.617   4.804
   88OSM   H12S 8400   6.073   1.515   4.801
   88OSM   H12T 8401   6.110   1.686   4.791
   88OSM   C13S 8402   5.933   1.635   4.689
   88OSM   H13S 8403   5.934   1.742   4.656
   88OSM   H13T 8404   5.831   1.610   4.726
   88OSM   C14S 8405   5.961   1.545   4.571
   88OSM   H14S 8406   5.992   1.443   4.601
   88OSM   H14T 8407   6.045   1.589   4.513
   88OSM   C15S 8408   5.828   1.540   4.496
   88OSM   H15S 8409   5.778   1.639   4.510
   88OSM   H15T 8410   5.763   1.463   4.544
   88OSM   C16S 8411   5.840   1.515   4.348
   88OSM   H16S 8412   5.738   1.520   4.303
   88OSM   H16T 8413   5.883   1.414   4.332
   88OSM   C17S 8414   5.932   1.613   4.278
   88OSM   H17S 8415   6.037   1.597   4.313
   88OSM   H17T 8416   5.904   1.718   4.302
   88OSM   C18S 8417   5.929   1.588   4.129
   88OSM   H18S 8418   5.983   1.665   4.072
   88OSM   H18T 8419   5.825   1.588   4.090
   88OSM   H18U 8420   5.978   1.490   4.110
   88OSM    C1F 8421   5.846   1.108   5.847
   88OSM     OF 8422   5.752   1.126   5.924
   88OSM    C2F 8423   5.849   0.992   5.756
   88OSM    H2F 8424   5.798   0.908   5.809
   88OSM    H2G 8425   5.953   0.963   5.735
   88OSM    C3F 8426   5.771   1.015   5.626
   88OSM    H3F 8427   5.671   1.058   5.647
   88OSM    H3G 8428   5.757   0.912   5.584
   88OSM    C4F 8429   5.838   1.099   5.517
   88OSM    H4F 8430   5.945   1.069   5.507
   88OSM    H4G 8431   5.834   1.208   5.541
   88OSM    C5F 8432   5.766   1.068   5.385
   88OSM    H5F 8433   5.669   1.123   5.381
   88OSM    H5G 8434   5.744   0.959   5.385
   88OSM    C6F 8435   5.847   1.089   5.259
   88OSM    H6F 8436   5.780   1.090   5.170
   88OSM    H6G 8437   5.915   1.002   5.247
   88OSM    C7F 8438   5.935   1.212   5.263
   88OSM    H7F 8439   6.010   1.201   5.344
   88OSM    H7G 8440   5.873   1.302   5.288
   88OSM    C8F 8441   6.011   1.223   5.132
   88OSM    H8F 8442   6.017   1.122   5.085
   88OSM    H8G 8443   6.114   1.258   5.151
   88OSM    C9F 8444   5.941   1.318   5.041
   88OSM    H9F 8445   5.866   1.384   5.088
   88OSM   C10F 8446   5.948   1.317   4.909
   88OSM   H10F 8447   5.889   1.391   4.854
   88OSM   C11F 8448   6.025   1.222   4.823
   88OSM   H11F 8449   6.109   1.173   4.877
   88OSM   H11G 8450   6.066   1.275   4.735
   88OSM   C12F 8451   5.917   1.119   4.779
   88OSM   H12F 8452   5.890   1.056   4.867
   88OSM   H12G 8453   5.964   1.053   4.704
   88OSM   C13F 8454   5.791   1.191   4.725
   88OSM   H13F 8455   5.822   1.261   4.644
   88OSM   H13G 8456   5.745   1.251   4.807
   88OSM   C14F 8457   5.667   1.113   4.682
   88OSM   H14F 8458   5.580   1.181   4.701
   88OSM   H14G 8459   5.650   1.025   4.745
   88OSM   C15F 8460   5.661   1.083   4.533
   88OSM   H15F 8461   5.686   1.174   4.474
   88OSM   H15G 8462   5.556   1.056   4.512
   88OSM   C16F 8463   5.746   0.963   4.492
   88OSM   H16F 8464   5.720   0.878   4.558
   88OSM   H16G 8465   5.852   0.992   4.507
   88OSM   C17F 8466   5.728   0.922   4.345
   88OSM   H17F 8467   5.721   1.016   4.289
   88OSM   H17G 8468   5.632   0.868   4.328
   88OSM   C18F 8469   5.846   0.847   4.285
   88OSM   H18F 8470   5.835   0.845   4.174
   88OSM   H18G 8471   5.854   0.742   4.323
   88OSM   H18H 8472   5.940   0.900   4.309
   89OSM      N 8473   4.869   6.389   6.397
   89OSM    C15 8474   4.931   6.277   6.473
   89OSM   H15A 8475   4.869   6.188   6.464
   89OSM   H15B 8476   4.944   6.302   6.577
   89OSM   H15C 8477   5.028   6.255   6.431
   89OSM    C14 8478   4.962   6.505   6.402
   89OSM   H14A 8479   4.991   6.533   6.502
   89OSM   H14B 8480   4.912   6.593   6.361
   89OSM   H14C 8481   5.049   6.493   6.340
   89OSM    C13 8482   4.857   6.346   6.254
   89OSM   H13A 8483   4.798   6.255   6.247
   89OSM   H13B 8484   4.955   6.325   6.214
   89OSM   H13C 8485   4.816   6.427   6.194
   89OSM    C12 8486   4.734   6.425   6.459
   89OSM   H12A 8487   4.751   6.457   6.561
   89OSM   H12B 8488   4.671   6.337   6.465
   89OSM    C11 8489   4.655   6.544   6.398
   89OSM   H11A 8490   4.548   6.538   6.430
   89OSM   H11B 8491   4.656   6.535   6.286
   89OSM      P 8492   4.743   6.785   6.345
   89OSM    O13 8493   4.766   6.907   6.426
   89OSM    O14 8494   4.852   6.735   6.259
   89OSM    O11 8495   4.610   6.785   6.258
   89OSM    O12 8496   4.712   6.666   6.446
   89OSM    C1S 8497   4.629   6.839   6.125
   89OSM    H1S 8498   4.714   6.913   6.120
   89OSM    H1T 8499   4.541   6.900   6.098
   89OSM     NF 8500   4.716   6.797   5.905
   89OSM    HNF 8501   4.656   6.816   5.828
   89OSM    C2S 8502   4.655   6.729   6.017
   89OSM    H2S 8503   4.730   6.657   6.056
   89OSM    C3S 8504   4.526   6.651   5.974
   89OSM    H3S 8505   4.439   6.720   5.971
   89OSM     O3 8506   4.492   6.544   6.062
   89OSM    HO3 8507   4.509   6.582   6.149
   89OSM    C4S 8508   4.551   6.598   5.835
   89OSM    H4S 8509   4.606   6.502   5.832
   89OSM    C5S 8510   4.512   6.655   5.718
   89OSM    H5S 8511   4.451   6.747   5.720
   89OSM    C6S 8512   4.545   6.597   5.583
   89OSM    H6S 8513   4.581   6.493   5.596
   89OSM    H6T 8514   4.631   6.654   5.542
   89OSM    C7S 8515   4.438   6.592   5.471
   89OSM    H7S 8516   4.345   6.550   5.514
   89OSM    H7T 8517   4.476   6.521   5.394
   89OSM    C8S 8518   4.405   6.723   5.398
   89OSM    H8S 8519   4.372   6.799   5.472
   89OSM    H8T 8520   4.319   6.703   5.330
   89OSM    C9S 8521   4.519   6.778   5.311
   89OSM    H9S 8522   4.549   6.702   5.235
   89OSM    H9T 8523   4.606   6.797   5.376
   89OSM   C10S 8524   4.481   6.907   5.237
   89OSM   H10S 8525   4.552   6.990   5.259
   89OSM   H10T 8526   4.381   6.936   5.276
   89OSM   C11S 8527   4.462   6.891   5.087
   89OSM   H11S 8528   4.388   6.967   5.054
   89OSM   H11T 8529   4.419   6.791   5.066
   89OSM   C12S 8530   4.585   6.915   4.997
   89OSM   H12S 8531   4.667   6.845   5.025
   89OSM   H12T 8532   4.622   7.019   5.009
   89OSM   C13S 8533   4.537   6.889   4.854
   89OSM   H13S 8534   4.439   6.942   4.842
   89OSM   H13T 8535   4.517   6.780   4.845
   89OSM   C14S 8536   4.623   6.933   4.737
   89OSM   H14S 8537   4.726   6.892   4.745
   89OSM   H14T 8538   4.629   7.044   4.735
   89OSM   C15S 8539   4.555   6.882   4.608
   89OSM   H15S 8540   4.446   6.901   4.616
   89OSM   H15T 8541   4.569   6.772   4.603
   89OSM   C16S 8542   4.603   6.946   4.478
   89OSM   H16S 8543   4.570   7.053   4.474
   89OSM   H16T 8544   4.554   6.893   4.393
   89OSM   C17S 8545   4.755   6.939   4.460
   89OSM   H17S 8546   4.788   6.834   4.476
   89OSM   H17T 8547   4.802   7.002   4.539
   89OSM   C18S 8548   4.803   6.987   4.323
   89OSM   H18S 8549   4.759   6.924   4.243
   89OSM   H18T 8550   4.914   6.980   4.318
   89OSM   H18U 8551   4.774   7.093   4.305
   89OSM    C1F 8552   4.838   6.847   5.900
   89OSM     OF 8553   4.933   6.787   5.947
   89OSM    C2F 8554   4.852   6.972   5.819
   89OSM    H2F 8555   4.955   6.979   5.780
   89OSM    H2G 8556   4.831   7.059   5.885
   89OSM    C3F 8557   4.745   6.958   5.708
   89OSM    H3F 8558   4.645   6.967   5.757
   89OSM    H3G 8559   4.753   6.859   5.657
   89OSM    C4F 8560   4.736   7.063   5.599
   89OSM    H4F 8561   4.742   7.167   5.633
   89OSM    H4G 8562   4.631   7.050   5.567
   89OSM    C5F 8563   4.802   7.032   5.466
   89OSM    H5F 8564   4.804   7.121   5.399
   89OSM    H5G 8565   4.729   6.962   5.420
   89OSM    C6F 8566   4.936   6.962   5.472
   89OSM    H6F 8567   4.941   6.886   5.553
   89OSM    H6G 8568   5.016   7.037   5.491
   89OSM    C7F 8569   4.966   6.893   5.339
   89OSM    H7F 8570   5.055   6.826   5.353
   89OSM    H7G 8571   4.994   6.977   5.272
   89OSM    C8F 8572   4.858   6.816   5.261
   89OSM    H8F 8573   4.888   6.821   5.156
   89OSM    H8G 8574   4.761   6.868   5.257
   89OSM    C9F 8575   4.845   6.673   5.306
   89OSM    H9F 8576   4.806   6.661   5.408
   89OSM   C10F 8577   4.884   6.563   5.239
   89OSM   H10F 8578   4.870   6.467   5.291
   89OSM   C11F 8579   4.952   6.550   5.104
   89OSM   H11F 8580   4.952   6.442   5.077
   89OSM   H11G 8581   5.059   6.579   5.113
   89OSM   C12F 8582   4.894   6.621   4.980
   89OSM   H12F 8583   4.904   6.731   4.989
   89OSM   H12G 8584   4.786   6.597   4.968
   89OSM   C13F 8585   4.970   6.586   4.851
   89OSM   H13F 8586   4.954   6.480   4.822
   89OSM   H13G 8587   5.079   6.599   4.870
   89OSM   C14F 8588   4.929   6.681   4.738
   89OSM   H14F 8589   4.936   6.784   4.779
   89OSM   H14G 8590   4.823   6.664   4.709
   89OSM   C15F 8591   5.020   6.676   4.615
   89OSM   H15F 8592   5.126   6.666   4.647
   89OSM   H15G 8593   5.011   6.772   4.560
   89OSM   C16F 8594   4.985   6.563   4.517
   89OSM   H16F 8595   4.876   6.565   4.495
   89OSM   H16G 8596   5.008   6.465   4.565
   89OSM   C17F 8597   5.063   6.578   4.386
   89OSM   H17F 8598   5.171   6.592   4.409
   89OSM   H17G 8599   5.027   6.672   4.338
   89OSM   C18F 8600   5.047   6.462   4.288
   89OSM   H18F 8601   5.052   6.499   4.183
   89OSM   H18G 8602   4.949   6.412   4.304
   89OSM   H18H 8603   5.127   6.387   4.302
   90OSM      N 8604   6.928   4.277   6.521
   90OSM    C15 8605   6.922   4.240   6.664
   90OSM   H15A 8606   6.970   4.144   6.681
   90OSM   H15B 8607   6.821   4.238   6.702
   90OSM   H15C 8608   6.982   4.311   6.722
   90OSM    C14 8609   7.071   4.280   6.474
   90OSM   H14A 8610   7.127   4.350   6.534
   90OSM   H14B 8611   7.073   4.311   6.370
   90OSM   H14C 8612   7.121   4.184   6.481
   90OSM    C13 8613   6.856   4.173   6.441
   90OSM   H13A 8614   6.914   4.083   6.426
   90OSM   H13B 8615   6.835   4.214   6.341
   90OSM   H13C 8616   6.758   4.151   6.482
   90OSM    C12 8617   6.867   4.417   6.499
   90OSM   H12A 8618   6.929   4.492   6.547
   90OSM   H12B 8619   6.768   4.420   6.544
   90OSM    C11 8620   6.844   4.463   6.354
   90OSM   H11A 8621   6.941   4.465   6.298
   90OSM   H11B 8622   6.803   4.567   6.353
   90OSM      P 8623   6.629   4.393   6.209
   90OSM    O13 8624   6.574   4.261   6.175
   90OSM    O14 8625   6.540   4.490   6.274
   90OSM    O11 8626   6.694   4.450   6.075
   90OSM    O12 8627   6.756   4.372   6.294
   90OSM    C1S 8628   6.810   4.383   6.018
   90OSM    H1S 8629   6.778   4.291   5.963
   90OSM    H1T 8630   6.884   4.350   6.095
   90OSM     NF 8631   7.004   4.412   5.857
   90OSM    HNF 8632   7.093   4.452   5.876
   90OSM    C2S 8633   6.887   4.475   5.918
   90OSM    H2S 8634   6.814   4.497   5.837
   90OSM    C3S 8635   6.933   4.610   5.985
   90OSM    H3S 8636   7.032   4.594   6.034
   90OSM     O3 8637   6.845   4.658   6.083
   90OSM    HO3 8638   6.781   4.586   6.097
   90OSM    C4S 8639   6.943   4.724   5.887
   90OSM    H4S 8640   6.926   4.823   5.932
   90OSM    C5S 8641   6.959   4.711   5.755
   90OSM    H5S 8642   6.962   4.610   5.714
   90OSM    C6S 8643   6.967   4.821   5.653
   90OSM    H6S 8644   7.066   4.867   5.662
   90OSM    H6T 8645   6.896   4.903   5.681
   90OSM    C7S 8646   6.937   4.781   5.504
   90OSM    H7S 8647   6.986   4.859   5.441
   90OSM    H7T 8648   6.829   4.790   5.485
   90OSM    C8S 8649   6.987   4.643   5.452
   90OSM    H8S 8650   7.008   4.574   5.537
   90OSM    H8T 8651   7.085   4.659   5.402
   90OSM    C9S 8652   6.895   4.557   5.361
   90OSM    H9S 8653   6.791   4.562   5.397
   90OSM    H9T 8654   6.923   4.450   5.372
   90OSM   C10S 8655   6.899   4.587   5.211
   90OSM   H10S 8656   7.003   4.591   5.178
   90OSM   H10T 8657   6.862   4.689   5.189
   90OSM   C11S 8658   6.827   4.484   5.122
   90OSM   H11S 8659   6.729   4.455   5.165
   90OSM   H11T 8660   6.887   4.390   5.113
   90OSM   C12S 8661   6.807   4.546   4.983
   90OSM   H12S 8662   6.907   4.581   4.948
   90OSM   H12T 8663   6.743   4.636   4.988
   90OSM   C13S 8664   6.752   4.450   4.879
   90OSM   H13S 8665   6.812   4.357   4.878
   90OSM   H13T 8666   6.766   4.504   4.782
   90OSM   C14S 8667   6.604   4.414   4.886
   90OSM   H14S 8668   6.543   4.507   4.875
   90OSM   H14T 8669   6.580   4.369   4.985
   90OSM   C15S 8670   6.572   4.318   4.771
   90OSM   H15S 8671   6.467   4.282   4.778
   90OSM   H15T 8672   6.638   4.229   4.778
   90OSM   C16S 8673   6.593   4.389   4.637
   90OSM   H16S 8674   6.702   4.403   4.618
   90OSM   H16T 8675   6.546   4.490   4.644
   90OSM   C17S 8676   6.531   4.317   4.519
   90OSM   H17S 8677   6.537   4.382   4.428
   90OSM   H17T 8678   6.425   4.309   4.549
   90OSM   C18S 8679   6.590   4.180   4.487
   90OSM   H18S 8680   6.516   4.115   4.435
   90OSM   H18T 8681   6.622   4.127   4.579
   90OSM   H18U 8682   6.678   4.189   4.420
   90OSM    C1F 8683   7.005   4.310   5.771
   90OSM     OF 8684   6.908   4.241   5.745
   90OSM    C2F 8685   7.140   4.288   5.710
   90OSM    H2F 8686   7.190   4.216   5.777
   90OSM    H2G 8687   7.200   4.382   5.719
   90OSM    C3F 8688   7.140   4.245   5.559
   90OSM    H3F 8689   7.048   4.282   5.509
   90OSM    H3G 8690   7.138   4.135   5.550
   90OSM    C4F 8691   7.260   4.301   5.479
   90OSM    H4F 8692   7.272   4.246   5.383
   90OSM    H4G 8693   7.354   4.287   5.537
   90OSM    C5F 8694   7.231   4.449   5.449
   90OSM    H5F 8695   7.208   4.498   5.546
   90OSM    H5G 8696   7.140   4.449   5.386
   90OSM    C6F 8697   7.336   4.538   5.381
   90OSM    H6F 8698   7.431   4.526   5.436
   90OSM    H6G 8699   7.306   4.645   5.391
   90OSM    C7F 8700   7.358   4.510   5.233
   90OSM    H7F 8701   7.374   4.400   5.227
   90OSM    H7G 8702   7.450   4.562   5.200
   90OSM    C8F 8703   7.247   4.545   5.132
   90OSM    H8F 8704   7.158   4.487   5.164
   90OSM    H8G 8705   7.272   4.497   5.035
   90OSM    C9F 8706   7.226   4.693   5.108
   90OSM    H9F 8707   7.219   4.754   5.200
   90OSM   C10F 8708   7.223   4.755   4.987
   90OSM   H10F 8709   7.232   4.864   4.989
   90OSM   C11F 8710   7.241   4.693   4.849
   90OSM   H11F 8711   7.288   4.593   4.858
   90OSM   H11G 8712   7.315   4.756   4.795
   90OSM   C12F 8713   7.125   4.677   4.747
   90OSM   H12F 8714   7.136   4.760   4.675
   90OSM   H12G 8715   7.026   4.687   4.795
   90OSM   C13F 8716   7.131   4.547   4.663
   90OSM   H13F 8717   7.198   4.476   4.717
   90OSM   H13G 8718   7.173   4.564   4.562
   90OSM   C14F 8719   6.994   4.479   4.658
   90OSM   H14F 8720   6.921   4.536   4.597
   90OSM   H14G 8721   6.964   4.486   4.765
   90OSM   C15F 8722   6.987   4.329   4.626
   90OSM   H15F 8723   6.911   4.283   4.694
   90OSM   H15G 8724   7.083   4.282   4.653
   90OSM   C16F 8725   6.942   4.300   4.483
   90OSM   H16F 8726   6.993   4.369   4.413
   90OSM   H16G 8727   6.834   4.322   4.476
   90OSM   C17F 8728   6.966   4.155   4.436
   90OSM   H17F 8729   7.073   4.145   4.409
   90OSM   H17G 8730   6.909   4.137   4.342
   90OSM   C18F 8731   6.933   4.045   4.538
   90OSM   H18F 8732   6.824   4.041   4.559
   90OSM   H18G 8733   6.986   4.063   4.634
   90OSM   H18H 8734   6.965   3.946   4.500
   91OSM      N 8735   0.501   3.350   6.384
   91OSM    C15 8736   0.475   3.477   6.457
   91OSM   H15A 8737   0.413   3.456   6.545
   91OSM   H15B 8738   0.421   3.549   6.396
   91OSM   H15C 8739   0.568   3.522   6.493
   91OSM    C14 8740   0.369   3.293   6.337
   91OSM   H14A 8741   0.314   3.360   6.272
   91OSM   H14B 8742   0.306   3.261   6.420
   91OSM   H14C 8743   0.387   3.201   6.282
   91OSM    C13 8744   0.589   3.379   6.266
   91OSM   H13A 8745   0.617   3.285   6.218
   91OSM   H13B 8746   0.680   3.429   6.298
   91OSM   H13C 8747   0.538   3.437   6.191
   91OSM    C12 8748   0.568   3.248   6.476
   91OSM   H12A 8749   0.500   3.225   6.558
   91OSM   H12B 8750   0.657   3.291   6.520
   91OSM    C11 8751   0.607   3.110   6.415
   91OSM   H11A 8752   0.675   3.061   6.488
   91OSM   H11B 8753   0.663   3.123   6.320
   91OSM      P 8754   0.498   2.886   6.332
   91OSM    O13 8755   0.608   2.808   6.395
   91OSM    O14 8756   0.362   2.830   6.337
   91OSM    O11 8757   0.540   2.918   6.183
   91OSM    O12 8758   0.490   3.031   6.398
   91OSM    C1S 8759   0.443   2.967   6.090
   91OSM    H1S 8760   0.409   3.069   6.119
   91OSM    H1T 8761   0.354   2.901   6.086
   91OSM     NF 8762   0.425   3.060   5.866
   91OSM    HNF 8763   0.358   3.019   5.805
   91OSM    C2S 8764   0.506   2.973   5.949
   91OSM    H2S 8765   0.608   3.016   5.956
   91OSM    C3S 8766   0.516   2.828   5.892
   91OSM    H3S 8767   0.428   2.767   5.919
   91OSM     O3 8768   0.632   2.759   5.938
   91OSM    HO3 8769   0.600   2.712   6.016
   91OSM    C4S 8770   0.531   2.834   5.744
   91OSM    H4S 8771   0.631   2.868   5.714
   91OSM    C5S 8772   0.439   2.802   5.651
   91OSM    H5S 8773   0.340   2.765   5.684
   91OSM    C6S 8774   0.459   2.811   5.502
   91OSM    H6S 8775   0.375   2.869   5.457
   91OSM    H6T 8776   0.451   2.711   5.453
   91OSM    C7S 8777   0.593   2.874   5.460
   91OSM    H7S 8778   0.675   2.824   5.515
   91OSM    H7T 8779   0.594   2.982   5.487
   91OSM    C8S 8780   0.627   2.859   5.311
   91OSM    H8S 8781   0.538   2.883   5.251
   91OSM    H8T 8782   0.656   2.754   5.290
   91OSM    C9S 8783   0.746   2.946   5.267
   91OSM    H9S 8784   0.835   2.882   5.252
   91OSM    H9T 8785   0.770   3.018   5.348
   91OSM   C10S 8786   0.716   3.024   5.139
   91OSM   H10S 8787   0.685   2.954   5.059
   91OSM   H10T 8788   0.808   3.074   5.101
   91OSM   C11S 8789   0.608   3.129   5.164
   91OSM   H11S 8790   0.639   3.192   5.249
   91OSM   H11T 8791   0.514   3.083   5.195
   91OSM   C12S 8792   0.583   3.221   5.045
   91OSM   H12S 8793   0.679   3.242   4.994
   91OSM   H12T 8794   0.539   3.316   5.083
   91OSM   C13S 8795   0.487   3.163   4.944
   91OSM   H13S 8796   0.401   3.117   4.996
   91OSM   H13T 8797   0.540   3.084   4.886
   91OSM   C14S 8798   0.436   3.266   4.846
   91OSM   H14S 8799   0.411   3.362   4.897
   91OSM   H14T 8800   0.343   3.228   4.800
   91OSM   C15S 8801   0.541   3.289   4.739
   91OSM   H15S 8802   0.586   3.193   4.704
   91OSM   H15T 8803   0.623   3.351   4.779
   91OSM   C16S 8804   0.476   3.355   4.620
   91OSM   H16S 8805   0.412   3.435   4.660
   91OSM   H16T 8806   0.408   3.286   4.565
   91OSM   C17S 8807   0.581   3.409   4.526
   91OSM   H17S 8808   0.533   3.422   4.427
   91OSM   H17T 8809   0.656   3.329   4.512
   91OSM   C18S 8810   0.646   3.539   4.577
   91OSM   H18S 8811   0.621   3.626   4.513
   91OSM   H18T 8812   0.757   3.529   4.577
   91OSM   H18U 8813   0.613   3.560   4.681
   91OSM    C1F 8814   0.432   3.192   5.873
   91OSM     OF 8815   0.519   3.250   5.938
   91OSM    C2F 8816   0.325   3.263   5.800
   91OSM    H2F 8817   0.317   3.364   5.845
   91OSM    H2G 8818   0.230   3.210   5.817
   91OSM    C3F 8819   0.348   3.272   5.647
   91OSM    H3F 8820   0.448   3.315   5.627
   91OSM    H3G 8821   0.272   3.342   5.607
   91OSM    C4F 8822   0.335   3.139   5.569
   91OSM    H4F 8823   0.231   3.102   5.572
   91OSM    H4G 8824   0.401   3.065   5.618
   91OSM    C5F 8825   0.385   3.149   5.424
   91OSM    H5F 8826   0.391   3.050   5.375
   91OSM    H5G 8827   0.489   3.190   5.428
   91OSM    C6F 8828   0.302   3.239   5.333
   91OSM    H6F 8829   0.366   3.267   5.247
   91OSM    H6G 8830   0.280   3.331   5.392
   91OSM    C7F 8831   0.168   3.183   5.281
   91OSM    H7F 8832   0.088   3.249   5.319
   91OSM    H7G 8833   0.151   3.082   5.324
   91OSM    C8F 8834   0.147   3.189   5.129
   91OSM    H8F 8835   0.239   3.218   5.076
   91OSM    H8G 8836   0.073   3.271   5.111
   91OSM    C9F 8837   0.093   3.063   5.071
   91OSM    H9F 8838  -0.003   3.073   5.021
   91OSM   C10F 8839   0.149   2.942   5.077
   91OSM   H10F 8840   0.099   2.857   5.029
   91OSM   C11F 8841   0.279   2.909   5.144
   91OSM   H11F 8842   0.260   2.873   5.247
   91OSM   H11G 8843   0.343   2.998   5.154
   91OSM   C12F 8844   0.351   2.798   5.067
   91OSM   H12F 8845   0.276   2.724   5.038
   91OSM   H12G 8846   0.420   2.747   5.138
   91OSM   C13F 8847   0.434   2.836   4.942
   91OSM   H13F 8848   0.494   2.747   4.914
   91OSM   H13G 8849   0.507   2.911   4.975
   91OSM   C14F 8850   0.357   2.885   4.817
   91OSM   H14F 8851   0.316   2.986   4.837
   91OSM   H14G 8852   0.270   2.819   4.797
   91OSM   C15F 8853   0.446   2.890   4.690
   91OSM   H15F 8854   0.448   2.791   4.640
   91OSM   H15G 8855   0.550   2.911   4.725
   91OSM   C16F 8856   0.412   3.002   4.590
   91OSM   H16F 8857   0.499   3.017   4.522
   91OSM   H16G 8858   0.398   3.094   4.648
   91OSM   C17F 8859   0.287   2.986   4.501
   91OSM   H17F 8860   0.198   2.965   4.565
   91OSM   H17G 8861   0.303   2.900   4.433
   91OSM   C18F 8862   0.261   3.113   4.418
   91OSM   H18F 8863   0.355   3.152   4.376
   91OSM   H18G 8864   0.217   3.193   4.482
   91OSM   H18H 8865   0.191   3.094   4.335
   92OSM      N 8866   6.851   2.933   6.479
   92OSM    C15 8867   6.959   2.969   6.577
   92OSM   H15A 8868   6.950   3.070   6.614
   92OSM   H15B 8869   7.055   2.963   6.525
   92OSM   H15C 8870   6.964   2.900   6.661
   92OSM    C14 8871   6.867   2.786   6.453
   92OSM   H14A 8872   6.790   2.743   6.389
   92OSM   H14B 8873   6.860   2.729   6.545
   92OSM   H14C 8874   6.964   2.762   6.409
   92OSM    C13 8875   6.716   2.958   6.536
   92OSM   H13A 8876   6.708   2.915   6.636
   92OSM   H13B 8877   6.638   2.913   6.477
   92OSM   H13C 8878   6.696   3.064   6.545
   92OSM    C12 8879   6.873   3.007   6.349
   92OSM   H12A 8880   6.873   3.114   6.366
   92OSM   H12B 8881   6.792   2.986   6.281
   92OSM    C11 8882   7.006   2.977   6.278
   92OSM   H11A 8883   6.996   3.015   6.173
   92OSM   H11B 8884   7.026   2.868   6.268
   92OSM      P 8885   7.258   3.028   6.287
   92OSM    O13 8886   7.346   3.125   6.358
   92OSM    O14 8887   7.292   2.885   6.287
   92OSM    O11 8888   7.230   3.081   6.141
   92OSM    O12 8889   7.113   3.041   6.349
   92OSM    C1S 8890   7.162   3.205   6.121
   92OSM    H1S 8891   7.217   3.289   6.170
   92OSM    H1T 8892   7.058   3.207   6.161
   92OSM     NF 8893   7.049   3.162   5.904
   92OSM    HNF 8894   7.070   3.073   5.866
   92OSM    C2S 8895   7.159   3.232   5.970
   92OSM    H2S 8896   7.144   3.342   5.956
   92OSM    C3S 8897   7.295   3.190   5.913
   92OSM    H3S 8898   7.302   3.079   5.903
   92OSM     O3 8899   7.406   3.228   5.996
   92OSM    HO3 8900   7.398   3.165   6.070
   92OSM    C4S 8901   7.308   3.254   5.780
   92OSM    H4S 8902   7.343   3.357   5.783
   92OSM    C5S 8903   7.284   3.196   5.662
   92OSM    H5S 8904   7.251   3.091   5.658
   92OSM    C6S 8905   7.300   3.266   5.531
   92OSM    H6S 8906   7.245   3.211   5.451
   92OSM    H6T 8907   7.409   3.257   5.510
   92OSM    C7S 8908   7.269   3.416   5.514
   92OSM    H7S 8909   7.304   3.448   5.413
   92OSM    H7T 8910   7.330   3.475   5.586
   92OSM    C8S 8911   7.121   3.456   5.530
   92OSM    H8S 8912   7.114   3.567   5.532
   92OSM    H8T 8913   7.083   3.419   5.627
   92OSM    C9S 8914   7.028   3.410   5.416
   92OSM    H9S 8915   6.924   3.439   5.444
   92OSM    H9T 8916   7.031   3.300   5.407
   92OSM   C10S 8917   7.060   3.475   5.281
   92OSM   H10S 8918   7.160   3.441   5.245
   92OSM   H10T 8919   7.067   3.586   5.294
   92OSM   C11S 8920   6.954   3.446   5.174
   92OSM   H11S 8921   6.985   3.491   5.078
   92OSM   H11T 8922   6.861   3.498   5.205
   92OSM   C12S 8923   6.924   3.297   5.154
   92OSM   H12S 8924   6.850   3.283   5.073
   92OSM   H12T 8925   6.877   3.256   5.247
   92OSM   C13S 8926   7.048   3.214   5.119
   92OSM   H13S 8927   7.020   3.107   5.116
   92OSM   H13T 8928   7.123   3.226   5.201
   92OSM   C14S 8929   7.111   3.254   4.986
   92OSM   H14S 8930   7.209   3.205   4.976
   92OSM   H14T 8931   7.132   3.363   4.986
   92OSM   C15S 8932   7.029   3.217   4.861
   92OSM   H15S 8933   6.931   3.269   4.864
   92OSM   H15T 8934   7.010   3.108   4.860
   92OSM   C16S 8935   7.106   3.258   4.735
   92OSM   H16S 8936   7.203   3.203   4.733
   92OSM   H16T 8937   7.129   3.367   4.743
   92OSM   C17S 8938   7.032   3.234   4.603
   92OSM   H17S 8939   6.929   3.276   4.611
   92OSM   H17T 8940   7.022   3.124   4.586
   92OSM   C18S 8941   7.104   3.299   4.484
   92OSM   H18S 8942   7.206   3.257   4.473
   92OSM   H18T 8943   7.113   3.409   4.500
   92OSM   H18U 8944   7.048   3.282   4.390
   92OSM    C1F 8945   6.926   3.210   5.907
   92OSM     OF 8946   6.892   3.288   5.994
   92OSM    C2F 8947   6.832   3.163   5.802
   92OSM    H2F 8948   6.729   3.193   5.831
   92OSM    H2G 8949   6.837   3.052   5.796
   92OSM    C3F 8950   6.867   3.227   5.666
   92OSM    H3F 8951   6.974   3.210   5.640
   92OSM    H3G 8952   6.851   3.337   5.673
   92OSM    C4F 8953   6.781   3.172   5.552
   92OSM    H4F 8954   6.793   3.237   5.462
   92OSM    H4G 8955   6.674   3.174   5.582
   92OSM    C5F 8956   6.817   3.030   5.513
   92OSM    H5F 8957   6.822   2.963   5.602
   92OSM    H5G 8958   6.918   3.030   5.465
   92OSM    C6F 8959   6.713   2.975   5.416
   92OSM    H6F 8960   6.699   3.045   5.331
   92OSM    H6G 8961   6.615   2.963   5.468
   92OSM    C7F 8962   6.757   2.840   5.362
   92OSM    H7F 8963   6.673   2.768   5.364
   92OSM    H7G 8964   6.835   2.802   5.433
   92OSM    C8F 8965   6.813   2.851   5.220
   92OSM    H8F 8966   6.873   2.944   5.208
   92OSM    H8G 8967   6.729   2.854   5.147
   92OSM    C9F 8968   6.895   2.728   5.200
   92OSM    H9F 8969   6.834   2.637   5.203
   92OSM   C10F 8970   7.026   2.717   5.177
   92OSM   H10F 8971   7.067   2.616   5.165
   92OSM   C11F 8972   7.126   2.829   5.163
   92OSM   H11F 8973   7.217   2.811   5.224
   92OSM   H11G 8974   7.084   2.925   5.199
   92OSM   C12F 8975   7.165   2.841   5.014
   92OSM   H12F 8976   7.244   2.767   4.991
   92OSM   H12G 8977   7.206   2.941   4.995
   92OSM   C13F 8978   7.051   2.821   4.913
   92OSM   H13F 8979   6.969   2.892   4.937
   92OSM   H13G 8980   7.012   2.717   4.924
   92OSM   C14F 8981   7.092   2.835   4.766
   92OSM   H14F 8982   7.176   2.765   4.745
   92OSM   H14G 8983   7.127   2.938   4.744
   92OSM   C15F 8984   6.970   2.798   4.681
   92OSM   H15F 8985   6.897   2.883   4.685
   92OSM   H15G 8986   6.920   2.710   4.729
   92OSM   C16F 8987   6.994   2.759   4.535
   92OSM   H16F 8988   7.018   2.848   4.473
   92OSM   H16G 8989   6.896   2.718   4.502
   92OSM   C17F 8990   7.093   2.645   4.508
   92OSM   H17F 8991   7.071   2.564   4.581
   92OSM   H17G 8992   7.196   2.680   4.528
   92OSM   C18F 8993   7.081   2.592   4.365
   92OSM   H18F 8994   7.174   2.543   4.331
   92OSM   H18G 8995   7.058   2.675   4.295
   92OSM   H18H 8996   6.998   2.518   4.357
   93OSM      N 8997   6.750   1.355   6.388
   93OSM    C15 8998   6.787   1.465   6.293
   93OSM   H15A 8999   6.700   1.506   6.242
   93OSM   H15B 9000   6.864   1.433   6.224
   93OSM   H15C 9001   6.829   1.549   6.347
   93OSM    C14 9002   6.698   1.239   6.308
   93OSM   H14A 9003   6.621   1.275   6.240
   93OSM   H14B 9004   6.651   1.165   6.373
   93OSM   H14C 9005   6.773   1.188   6.250
   93OSM    C13 9006   6.872   1.319   6.467
   93OSM   H13A 9007   6.897   1.394   6.542
   93OSM   H13B 9008   6.959   1.313   6.402
   93OSM   H13C 9009   6.857   1.225   6.520
   93OSM    C12 9010   6.642   1.401   6.486
   93OSM   H12A 9011   6.679   1.487   6.540
   93OSM   H12B 9012   6.628   1.324   6.561
   93OSM    C11 9013   6.504   1.440   6.431
   93OSM   H11A 9014   6.436   1.466   6.516
   93OSM   H11B 9015   6.457   1.357   6.374
   93OSM      P 9016   6.433   1.676   6.325
   93OSM    O13 9017   6.322   1.683   6.422
   93OSM    O14 9018   6.526   1.792   6.316
   93OSM    O11 9019   6.381   1.638   6.182
   93OSM    O12 9020   6.525   1.551   6.348
   93OSM    C1S 9021   6.477   1.595   6.084
   93OSM    H1S 9022   6.500   1.487   6.096
   93OSM    H1T 9023   6.574   1.652   6.088
   93OSM     NF 9024   6.535   1.612   5.851
   93OSM    HNF 9025   6.586   1.699   5.841
   93OSM    C2S 9026   6.420   1.619   5.943
   93OSM    H2S 9027   6.347   1.538   5.921
   93OSM    C3S 9028   6.343   1.756   5.942
   93OSM    H3S 9029   6.413   1.835   5.978
   93OSM     O3 9030   6.226   1.771   6.023
   93OSM    HO3 9031   6.216   1.687   6.069
   93OSM    C4S 9032   6.296   1.787   5.805
   93OSM    H4S 9033   6.207   1.731   5.773
   93OSM    C5S 9034   6.349   1.882   5.727
   93OSM    H5S 9035   6.435   1.940   5.764
   93OSM    C6S 9036   6.301   1.916   5.590
   93OSM    H6S 9037   6.224   1.994   5.601
   93OSM    H6T 9038   6.251   1.830   5.540
   93OSM    C7S 9039   6.414   1.976   5.506
   93OSM    H7S 9040   6.462   2.060   5.561
   93OSM    H7T 9041   6.371   2.019   5.414
   93OSM    C8S 9042   6.524   1.877   5.468
   93OSM    H8S 9043   6.572   1.838   5.561
   93OSM    H8T 9044   6.599   1.934   5.410
   93OSM    C9S 9045   6.475   1.759   5.386
   93OSM    H9S 9046   6.413   1.694   5.452
   93OSM    H9T 9047   6.561   1.696   5.354
   93OSM   C10S 9048   6.389   1.790   5.263
   93OSM   H10S 9049   6.284   1.808   5.294
   93OSM   H10T 9050   6.396   1.695   5.205
   93OSM   C11S 9051   6.424   1.898   5.162
   93OSM   H11S 9052   6.527   1.887   5.126
   93OSM   H11T 9053   6.413   2.002   5.200
   93OSM   C12S 9054   6.328   1.870   5.045
   93OSM   H12S 9055   6.224   1.902   5.068
   93OSM   H12T 9056   6.322   1.759   5.037
   93OSM   C13S 9057   6.375   1.914   4.908
   93OSM   H13S 9058   6.484   1.904   4.900
   93OSM   H13T 9059   6.349   2.020   4.889
   93OSM   C14S 9060   6.309   1.824   4.803
   93OSM   H14S 9061   6.203   1.861   4.798
   93OSM   H14T 9062   6.307   1.718   4.836
   93OSM   C15S 9063   6.371   1.833   4.664
   93OSM   H15S 9064   6.424   1.929   4.655
   93OSM   H15T 9065   6.285   1.833   4.594
   93OSM   C16S 9066   6.459   1.714   4.623
   93OSM   H16S 9067   6.458   1.636   4.702
   93OSM   H16T 9068   6.564   1.751   4.614
   93OSM   C17S 9069   6.414   1.654   4.488
   93OSM   H17S 9070   6.442   1.724   4.406
   93OSM   H17T 9071   6.302   1.645   4.488
   93OSM   C18S 9072   6.472   1.516   4.456
   93OSM   H18S 9073   6.577   1.509   4.490
   93OSM   H18T 9074   6.469   1.497   4.346
   93OSM   H18U 9075   6.412   1.436   4.505
   93OSM    C1F 9076   6.590   1.495   5.817
   93OSM     OF 9077   6.531   1.391   5.848
   93OSM    C2F 9078   6.725   1.492   5.744
   93OSM    H2F 9079   6.705   1.478   5.635
   93OSM    H2G 9080   6.777   1.402   5.782
   93OSM    C3F 9081   6.822   1.614   5.763
   93OSM    H3F 9082   6.844   1.615   5.873
   93OSM    H3G 9083   6.771   1.708   5.738
   93OSM    C4F 9084   6.964   1.611   5.693
   93OSM    H4F 9085   7.004   1.509   5.700
   93OSM    H4G 9086   7.028   1.680   5.752
   93OSM    C5F 9087   6.985   1.657   5.546
   93OSM    H5F 9088   6.999   1.766   5.558
   93OSM    H5G 9089   6.888   1.640   5.498
   93OSM    C6F 9090   7.112   1.596   5.468
   93OSM    H6F 9091   7.130   1.493   5.504
   93OSM    H6G 9092   7.199   1.658   5.499
   93OSM    C7F 9093   7.121   1.592   5.310
   93OSM    H7F 9094   7.197   1.670   5.283
   93OSM    H7G 9095   7.034   1.642   5.270
   93OSM    C8F 9096   7.181   1.462   5.228
   93OSM    H8F 9097   7.273   1.445   5.287
   93OSM    H8G 9098   7.224   1.512   5.138
   93OSM    C9F 9099   7.155   1.316   5.175
   93OSM    H9F 9100   7.258   1.280   5.160
   93OSM   C10F 9101   7.071   1.211   5.137
   93OSM   H10F 9102   7.135   1.124   5.115
   93OSM   C11F 9103   6.928   1.152   5.111
   93OSM   H11F 9104   6.920   1.101   5.208
   93OSM   H11G 9105   6.940   1.062   5.045
   93OSM   C12F 9106   6.772   1.186   5.098
   93OSM   H12F 9107   6.735   1.274   5.150
   93OSM   H12G 9108   6.722   1.106   5.159
   93OSM   C13F 9109   6.704   1.171   4.958
   93OSM   H13F 9110   6.674   1.064   4.952
   93OSM   H13G 9111   6.782   1.189   4.883
   93OSM   C14F 9112   6.579   1.260   4.924
   93OSM   H14F 9113   6.605   1.368   4.925
   93OSM   H14G 9114   6.502   1.245   5.002
   93OSM   C15F 9115   6.516   1.241   4.783
   93OSM   H15F 9116   6.437   1.319   4.769
   93OSM   H15G 9117   6.465   1.142   4.780
   93OSM   C16F 9118   6.617   1.254   4.667
   93OSM   H16F 9119   6.711   1.203   4.698
   93OSM   H16G 9120   6.642   1.361   4.651
   93OSM   C17F 9121   6.583   1.188   4.532
   93OSM   H17F 9122   6.502   1.242   4.480
   93OSM   H17G 9123   6.548   1.083   4.548
   93OSM   C18F 9124   6.709   1.187   4.445
   93OSM   H18F 9125   6.690   1.146   4.344
   93OSM   H18G 9126   6.788   1.126   4.494
   93OSM   H18H 9127   6.749   1.291   4.434
   94OSM      N 9128   2.442   6.987   6.403
   94OSM    C15 9129   2.387   6.853   6.439
   94OSM   H15A 9130   2.428   6.825   6.535
   94OSM   H15B 9131   2.424   6.776   6.370
   94OSM   H15C 9132   2.279   6.847   6.444
   94OSM    C14 9133   2.591   6.974   6.414
   94OSM   H14A 9134   2.625   6.891   6.350
   94OSM   H14B 9135   2.624   6.947   6.513
   94OSM   H14C 9136   2.639   7.066   6.383
   94OSM    C13 9137   2.408   7.021   6.261
   94OSM   H13A 9138   2.301   7.036   6.249
   94OSM   H13B 9139   2.444   6.948   6.191
   94OSM   H13C 9140   2.450   7.118   6.234
   94OSM    C12 9141   2.382   7.092   6.496
   94OSM   H12A 9142   2.382   7.053   6.597
   94OSM   H12B 9143   2.279   7.109   6.462
   94OSM    C11 9144   2.443   7.234   6.503
   94OSM   H11A 9145   2.546   7.229   6.546
   94OSM   H11B 9146   2.382   7.294   6.575
   94OSM      P 9147   2.323   7.376   6.317
   94OSM    O13 9148   2.229   7.280   6.255
   94OSM    O14 9149   2.263   7.461   6.422
   94OSM    O11 9150   2.394   7.464   6.204
   94OSM    O12 9151   2.447   7.293   6.375
   94OSM    C1S 9152   2.510   7.400   6.144
   94OSM    H1S 9153   2.510   7.289   6.151
   94OSM    H1T 9154   2.603   7.437   6.192
   94OSM     NF 9155   2.588   7.333   5.912
   94OSM    HNF 9156   2.639   7.373   5.837
   94OSM    C2S 9157   2.516   7.430   5.993
   94OSM    H2S 9158   2.410   7.429   5.957
   94OSM    C3S 9159   2.578   7.567   5.969
   94OSM    H3S 9160   2.684   7.569   6.001
   94OSM     O3 9161   2.512   7.672   6.036
   94OSM    HO3 9162   2.456   7.633   6.104
   94OSM    C4S 9163   2.566   7.590   5.825
   94OSM    H4S 9164   2.465   7.628   5.811
   94OSM    C5S 9165   2.649   7.567   5.719
   94OSM    H5S 9166   2.750   7.527   5.735
   94OSM    C6S 9167   2.609   7.600   5.576
   94OSM    H6S 9168   2.590   7.508   5.515
   94OSM    H6T 9169   2.686   7.658   5.521
   94OSM    C7S 9170   2.478   7.679   5.589
   94OSM    H7S 9171   2.495   7.768   5.655
   94OSM    H7T 9172   2.406   7.612   5.634
   94OSM    C8S 9173   2.400   7.728   5.471
   94OSM    H8S 9174   2.479   7.797   5.434
   94OSM    H8T 9175   2.314   7.786   5.508
   94OSM    C9S 9176   2.358   7.626   5.364
   94OSM    H9S 9177   2.371   7.522   5.400
   94OSM    H9T 9178   2.446   7.652   5.306
   94OSM   C10S 9179   2.225   7.654   5.281
   94OSM   H10S 9180   2.227   7.760   5.281
   94OSM   H10T 9181   2.141   7.632   5.350
   94OSM   C11S 9182   2.174   7.605   5.134
   94OSM   H11S 9183   2.072   7.647   5.128
   94OSM   H11T 9184   2.149   7.501   5.154
   94OSM   C12S 9185   2.218   7.639   4.979
   94OSM   H12S 9186   2.245   7.741   4.965
   94OSM   H12T 9187   2.118   7.645   4.930
   94OSM   C13S 9188   2.283   7.558   4.855
   94OSM   H13S 9189   2.241   7.624   4.775
   94OSM   H13T 9190   2.231   7.465   4.838
   94OSM   C14S 9191   2.432   7.538   4.799
   94OSM   H14S 9192   2.505   7.611   4.836
   94OSM   H14T 9193   2.430   7.563   4.691
   94OSM   C15S 9194   2.490   7.392   4.805
   94OSM   H15S 9195   2.403   7.327   4.827
   94OSM   H15T 9196   2.561   7.384   4.889
   94OSM   C16S 9197   2.546   7.320   4.679
   94OSM   H16S 9198   2.485   7.342   4.589
   94OSM   H16T 9199   2.532   7.211   4.697
   94OSM   C17S 9200   2.697   7.334   4.651
   94OSM   H17S 9201   2.749   7.245   4.694
   94OSM   H17T 9202   2.737   7.423   4.705
   94OSM   C18S 9203   2.735   7.346   4.503
   94OSM   H18S 9204   2.713   7.448   4.466
   94OSM   H18T 9205   2.680   7.273   4.440
   94OSM   H18U 9206   2.844   7.327   4.489
   94OSM    C1F 9207   2.543   7.213   5.886
   94OSM     OF 9208   2.463   7.156   5.957
   94OSM    C2F 9209   2.595   7.150   5.762
   94OSM    H2F 9210   2.532   7.059   5.748
   94OSM    H2G 9211   2.701   7.123   5.777
   94OSM    C3F 9212   2.582   7.226   5.628
   94OSM    H3F 9213   2.645   7.317   5.623
   94OSM    H3G 9214   2.476   7.255   5.615
   94OSM    C4F 9215   2.614   7.131   5.513
   94OSM    H4F 9216   2.540   7.048   5.520
   94OSM    H4G 9217   2.715   7.087   5.528
   94OSM    C5F 9218   2.606   7.192   5.372
   94OSM    H5F 9219   2.708   7.226   5.344
   94OSM    H5G 9220   2.540   7.282   5.375
   94OSM    C6F 9221   2.552   7.091   5.268
   94OSM    H6F 9222   2.442   7.079   5.280
   94OSM    H6G 9223   2.599   6.993   5.289
   94OSM    C7F 9224   2.593   7.117   5.123
   94OSM    H7F 9225   2.704   7.100   5.118
   94OSM    H7G 9226   2.581   7.223   5.095
   94OSM    C8F 9227   2.524   7.029   5.014
   94OSM    H8F 9228   2.610   6.978   4.965
   94OSM    H8G 9229   2.482   7.095   4.935
   94OSM    C9F 9230   2.431   6.916   5.053
   94OSM    H9F 9231   2.469   6.857   5.138
   94OSM   C10F 9232   2.312   6.877   5.003
   94OSM   H10F 9233   2.269   6.785   5.045
   94OSM   C11F 9234   2.226   6.931   4.892
   94OSM   H11F 9235   2.231   7.040   4.890
   94OSM   H11G 9236   2.124   6.906   4.928
   94OSM   C12F 9237   2.228   6.888   4.743
   94OSM   H12F 9238   2.123   6.860   4.717
   94OSM   H12G 9239   2.289   6.797   4.727
   94OSM   C13F 9240   2.267   7.003   4.648
   94OSM   H13F 9241   2.375   6.995   4.623
   94OSM   H13G 9242   2.255   7.101   4.700
   94OSM   C14F 9243   2.179   7.014   4.521
   94OSM   H14F 9244   2.128   7.112   4.528
   94OSM   H14G 9245   2.098   6.938   4.520
   94OSM   C15F 9246   2.259   7.006   4.390
   94OSM   H15F 9247   2.247   6.901   4.353
   94OSM   H15G 9248   2.366   7.022   4.415
   94OSM   C16F 9249   2.210   7.107   4.282
   94OSM   H16F 9250   2.144   7.176   4.341
   94OSM   H16G 9251   2.141   7.058   4.211
   94OSM   C17F 9252   2.300   7.215   4.209
   94OSM   H17F 9253   2.316   7.277   4.296
   94OSM   H17G 9254   2.232   7.270   4.140
   94OSM   C18F 9255   2.444   7.221   4.151
   94OSM   H18F 9256   2.513   7.272   4.221
   94OSM   H18G 9257   2.448   7.282   4.060
   94OSM   H18H 9258   2.491   7.129   4.119
   95OSM      N 9259   5.065   7.554   6.476
   95OSM    C15 9260   4.964   7.532   6.366
   95OSM   H15A 9261   5.012   7.480   6.283
   95OSM   H15B 9262   4.922   7.625   6.331
   95OSM   H15C 9263   4.883   7.466   6.398
   95OSM    C14 9264   5.180   7.635   6.421
   95OSM   H14A 9265   5.214   7.589   6.328
   95OSM   H14B 9266   5.267   7.643   6.486
   95OSM   H14C 9267   5.154   7.738   6.396
   95OSM    C13 9268   4.992   7.630   6.583
   95OSM   H13A 9269   4.900   7.581   6.612
   95OSM   H13B 9270   4.965   7.730   6.547
   95OSM   H13C 9271   5.054   7.648   6.670
   95OSM    C12 9272   5.113   7.418   6.525
   95OSM   H12A 9273   5.026   7.354   6.539
   95OSM   H12B 9274   5.162   7.428   6.621
   95OSM    C11 9275   5.212   7.343   6.432
   95OSM   H11A 9276   5.244   7.248   6.480
   95OSM   H11B 9277   5.304   7.403   6.417
   95OSM      P 9278   5.066   7.190   6.282
   95OSM    O13 9279   5.137   7.065   6.319
   95OSM    O14 9280   4.938   7.220   6.348
   95OSM    O11 9281   5.043   7.203   6.125
   95OSM    O12 9282   5.156   7.318   6.305
   95OSM    C1S 9283   5.134   7.272   6.040
   95OSM    H1S 9284   5.230   7.216   6.040
   95OSM    H1T 9285   5.154   7.377   6.074
   95OSM     NF 9286   5.171   7.328   5.796
   95OSM    HNF 9287   5.138   7.400   5.736
   95OSM    C2S 9288   5.077   7.282   5.895
   95OSM    H2S 9289   5.048   7.179   5.865
   95OSM    C3S 9290   4.952   7.374   5.892
   95OSM    H3S 9291   4.982   7.478   5.917
   95OSM     O3 9292   4.849   7.341   5.983
   95OSM    HO3 9293   4.888   7.276   6.043
   95OSM    C4S 9294   4.884   7.372   5.759
   95OSM    H4S 9295   4.856   7.271   5.730
   95OSM    C5S 9296   4.855   7.475   5.677
   95OSM    H5S 9297   4.885   7.577   5.705
   95OSM    C6S 9298   4.782   7.461   5.545
   95OSM    H6S 9299   4.691   7.524   5.554
   95OSM    H6T 9300   4.747   7.357   5.529
   95OSM    C7S 9301   4.853   7.506   5.416
   95OSM    H7S 9302   4.925   7.588   5.440
   95OSM    H7T 9303   4.777   7.548   5.346
   95OSM    C8S 9304   4.921   7.389   5.344
   95OSM    H8S 9305   4.841   7.314   5.320
   95OSM    H8T 9306   4.992   7.339   5.413
   95OSM    C9S 9307   4.988   7.427   5.212
   95OSM    H9S 9308   4.909   7.457   5.140
   95OSM    H9T 9309   5.039   7.337   5.169
   95OSM   C10S 9310   5.091   7.540   5.225
   95OSM   H10S 9311   5.166   7.510   5.302
   95OSM   H10T 9312   5.039   7.631   5.263
   95OSM   C11S 9313   5.164   7.578   5.095
   95OSM   H11S 9314   5.235   7.497   5.067
   95OSM   H11T 9315   5.223   7.670   5.115
   95OSM   C12S 9316   5.071   7.603   4.975
   95OSM   H12S 9317   4.979   7.655   5.009
   95OSM   H12T 9318   5.041   7.504   4.934
   95OSM   C13S 9319   5.138   7.687   4.864
   95OSM   H13S 9320   5.244   7.705   4.892
   95OSM   H13T 9321   5.088   7.787   4.860
   95OSM   C14S 9322   5.135   7.624   4.723
   95OSM   H14S 9323   5.180   7.522   4.728
   95OSM   H14T 9324   5.196   7.686   4.653
   95OSM   C15S 9325   4.991   7.613   4.671
   95OSM   H15S 9326   4.951   7.715   4.663
   95OSM   H15T 9327   4.936   7.560   4.751
   95OSM   C16S 9328   4.967   7.533   4.542
   95OSM   H16S 9329   4.878   7.570   4.489
   95OSM   H16T 9330   4.938   7.430   4.572
   95OSM   C17S 9331   5.084   7.533   4.444
   95OSM   H17S 9332   5.168   7.478   4.492
   95OSM   H17T 9333   5.118   7.637   4.426
   95OSM   C18S 9334   5.051   7.466   4.310
   95OSM   H18S 9335   5.002   7.539   4.242
   95OSM   H18T 9336   4.984   7.379   4.324
   95OSM   H18U 9337   5.144   7.431   4.261
   95OSM    C1F 9338   5.292   7.281   5.770
   95OSM     OF 9339   5.342   7.190   5.834
   95OSM    C2F 9340   5.367   7.349   5.661
   95OSM    H2F 9341   5.465   7.383   5.701
   95OSM    H2G 9342   5.310   7.436   5.622
   95OSM    C3F 9343   5.389   7.260   5.539
   95OSM    H3F 9344   5.451   7.175   5.569
   95OSM    H3G 9345   5.450   7.322   5.471
   95OSM    C4F 9346   5.263   7.218   5.460
   95OSM    H4F 9347   5.183   7.293   5.479
   95OSM    H4G 9348   5.225   7.121   5.499
   95OSM    C5F 9349   5.298   7.215   5.309
   95OSM    H5F 9350   5.408   7.198   5.296
   95OSM    H5G 9351   5.280   7.319   5.272
   95OSM    C6F 9352   5.224   7.115   5.215
   95OSM    H6F 9353   5.258   7.143   5.112
   95OSM    H6G 9354   5.115   7.132   5.219
   95OSM    C7F 9355   5.258   6.965   5.233
   95OSM    H7F 9356   5.235   6.938   5.339
   95OSM    H7G 9357   5.366   6.950   5.219
   95OSM    C8F 9358   5.198   6.856   5.138
   95OSM    H8F 9359   5.088   6.862   5.136
   95OSM    H8G 9360   5.218   6.758   5.188
   95OSM    C9F 9361   5.241   6.845   4.995
   95OSM    H9F 9362   5.320   6.771   4.973
   95OSM   C10F 9363   5.182   6.912   4.896
   95OSM   H10F 9364   5.220   6.897   4.794
   95OSM   C11F 9365   5.065   7.008   4.915
   95OSM   H11F 9366   5.104   7.098   4.967
   95OSM   H11G 9367   4.987   6.964   4.981
   95OSM   C12F 9368   4.994   7.061   4.788
   95OSM   H12F 9369   4.939   7.154   4.816
   95OSM   H12G 9370   4.920   6.988   4.750
   95OSM   C13F 9371   5.099   7.090   4.681
   95OSM   H13F 9372   5.137   6.993   4.641
   95OSM   H13G 9373   5.180   7.142   4.737
   95OSM   C14F 9374   5.065   7.174   4.559
   95OSM   H14F 9375   5.047   7.277   4.594
   95OSM   H14G 9376   4.974   7.138   4.507
   95OSM   C15F 9377   5.186   7.175   4.464
   95OSM   H15F 9378   5.162   7.233   4.372
   95OSM   H15G 9379   5.206   7.070   4.431
   95OSM   C16F 9380   5.311   7.232   4.531
   95OSM   H16F 9381   5.337   7.175   4.623
   95OSM   H16G 9382   5.293   7.337   4.564
   95OSM   C17F 9383   5.437   7.228   4.446
   95OSM   H17F 9384   5.421   7.284   4.352
   95OSM   H17G 9385   5.458   7.123   4.420
   95OSM   C18F 9386   5.556   7.285   4.523
   95OSM   H18F 9387   5.525   7.379   4.572
   95OSM   H18G 9388   5.643   7.306   4.456
   95OSM   H18H 9389   5.589   7.217   4.604
   96OSM      N 9390   0.770   0.997   6.330
   96OSM    C15 9391   0.785   1.020   6.477
   96OSM   H15A 9392   0.683   1.013   6.519
   96OSM   H15B 9393   0.820   1.119   6.503
   96OSM   H15C 9394   0.838   0.942   6.529
   96OSM    C14 9395   0.890   1.028   6.249
   96OSM   H14A 9396   0.870   1.018   6.143
   96OSM   H14B 9397   0.971   0.961   6.271
   96OSM   H14C 9398   0.922   1.131   6.264
   96OSM    C13 9399   0.732   0.853   6.314
   96OSM   H13A 9400   0.789   0.783   6.373
   96OSM   H13B 9401   0.728   0.814   6.212
   96OSM   H13C 9402   0.629   0.840   6.349
   96OSM    C12 9403   0.651   1.084   6.285
   96OSM   H12A 9404   0.615   1.048   6.190
   96OSM   H12B 9405   0.685   1.185   6.271
   96OSM    C11 9406   0.530   1.089   6.383
   96OSM   H11A 9407   0.442   1.136   6.335
   96OSM   H11B 9408   0.554   1.153   6.469
   96OSM      P 9409   0.368   0.891   6.458
   96OSM    O13 9410   0.391   0.772   6.540
   96OSM    O14 9411   0.269   0.988   6.507
   96OSM    O11 9412   0.327   0.851   6.311
   96OSM    O12 9413   0.503   0.961   6.434
   96OSM    C1S 9414   0.303   0.936   6.199
   96OSM    H1S 9415   0.301   1.044   6.224
   96OSM    H1T 9416   0.203   0.913   6.158
   96OSM     NF 9417   0.343   0.960   5.957
   96OSM    HNF 9418   0.331   0.894   5.883
   96OSM    C2S 9419   0.402   0.908   6.082
   96OSM    H2S 9420   0.498   0.961   6.099
   96OSM    C3S 9421   0.433   0.756   6.075
   96OSM    H3S 9422   0.341   0.701   6.105
   96OSM     O3 9423   0.540   0.710   6.157
   96OSM    HO3 9424   0.492   0.665   6.228
   96OSM    C4S 9425   0.466   0.722   5.935
   96OSM    H4S 9426   0.533   0.794   5.887
   96OSM    C5S 9427   0.418   0.619   5.865
   96OSM    H5S 9428   0.351   0.544   5.910
   96OSM    C6S 9429   0.462   0.604   5.723
   96OSM    H6S 9430   0.446   0.501   5.687
   96OSM    H6T 9431   0.571   0.626   5.714
   96OSM    C7S 9432   0.382   0.706   5.637
   96OSM    H7S 9433   0.377   0.805   5.687
   96OSM    H7T 9434   0.278   0.669   5.625
   96OSM    C8S 9435   0.448   0.726   5.500
   96OSM    H8S 9436   0.414   0.644   5.433
   96OSM    H8T 9437   0.557   0.715   5.518
   96OSM    C9S 9438   0.433   0.864   5.432
   96OSM    H9S 9439   0.512   0.933   5.469
   96OSM    H9T 9440   0.337   0.908   5.466
   96OSM   C10S 9441   0.427   0.860   5.278
   96OSM   H10S 9442   0.341   0.922   5.244
   96OSM   H10T 9443   0.405   0.755   5.247
   96OSM   C11S 9444   0.550   0.909   5.199
   96OSM   H11S 9445   0.644   0.889   5.254
   96OSM   H11T 9446   0.545   1.020   5.188
   96OSM   C12S 9447   0.561   0.846   5.058
   96OSM   H12S 9448   0.474   0.780   5.037
   96OSM   H12T 9449   0.653   0.786   5.053
   96OSM   C13S 9450   0.579   0.947   4.945
   96OSM   H13S 9451   0.655   1.020   4.981
   96OSM   H13T 9452   0.483   1.000   4.928
   96OSM   C14S 9453   0.635   0.895   4.811
   96OSM   H14S 9454   0.729   0.838   4.825
   96OSM   H14T 9455   0.661   0.988   4.755
   96OSM   C15S 9456   0.538   0.819   4.722
   96OSM   H15S 9457   0.438   0.857   4.747
   96OSM   H15T 9458   0.529   0.712   4.743
   96OSM   C16S 9459   0.570   0.831   4.572
   96OSM   H16S 9460   0.640   0.752   4.538
   96OSM   H16T 9461   0.620   0.928   4.554
   96OSM   C17S 9462   0.443   0.829   4.489
   96OSM   H17S 9463   0.466   0.809   4.382
   96OSM   H17T 9464   0.410   0.932   4.494
   96OSM   C18S 9465   0.327   0.742   4.541
   96OSM   H18S 9466   0.356   0.636   4.551
   96OSM   H18T 9467   0.239   0.749   4.474
   96OSM   H18U 9468   0.290   0.779   4.639
   96OSM    C1F 9469   0.316   1.089   5.938
   96OSM     OF 9470   0.354   1.173   6.019
   96OSM    C2F 9471   0.236   1.126   5.817
   96OSM    H2F 9472   0.142   1.174   5.852
   96OSM    H2G 9473   0.211   1.034   5.760
   96OSM    C3F 9474   0.312   1.223   5.725
   96OSM    H3F 9475   0.334   1.318   5.779
   96OSM    H3G 9476   0.246   1.248   5.639
   96OSM    C4F 9477   0.444   1.166   5.669
   96OSM    H4F 9478   0.421   1.079   5.604
   96OSM    H4G 9479   0.507   1.128   5.753
   96OSM    C5F 9480   0.528   1.270   5.593
   96OSM    H5F 9481   0.627   1.227   5.567
   96OSM    H5G 9482   0.545   1.357   5.661
   96OSM    C6F 9483   0.462   1.321   5.464
   96OSM    H6F 9484   0.522   1.408   5.427
   96OSM    H6G 9485   0.361   1.358   5.490
   96OSM    C7F 9486   0.453   1.214   5.354
   96OSM    H7F 9487   0.397   1.127   5.393
   96OSM    H7G 9488   0.557   1.181   5.330
   96OSM    C8F 9489   0.383   1.260   5.226
   96OSM    H8F 9490   0.276   1.283   5.251
   96OSM    H8G 9491   0.379   1.176   5.154
   96OSM    C9F 9492   0.447   1.383   5.167
   96OSM    H9F 9493   0.425   1.475   5.224
   96OSM   C10F 9494   0.521   1.394   5.056
   96OSM   H10F 9495   0.555   1.493   5.024
   96OSM   C11F 9496   0.559   1.281   4.966
   96OSM   H11F 9497   0.547   1.186   5.022
   96OSM   H11G 9498   0.668   1.289   4.946
   96OSM   C12F 9499   0.491   1.267   4.828
   96OSM   H12F 9500   0.555   1.194   4.772
   96OSM   H12G 9501   0.494   1.362   4.772
   96OSM   C13F 9502   0.348   1.208   4.826
   96OSM   H13F 9503   0.273   1.290   4.824
   96OSM   H13G 9504   0.329   1.147   4.917
   96OSM   C14F 9505   0.326   1.119   4.702
   96OSM   H14F 9506   0.222   1.079   4.698
   96OSM   H14G 9507   0.396   1.035   4.708
   96OSM   C15F 9508   0.361   1.191   4.572
   96OSM   H15F 9509   0.472   1.200   4.564
   96OSM   H15G 9510   0.321   1.292   4.586
   96OSM   C16F 9511   0.305   1.133   4.443
   96OSM   H16F 9512   0.250   1.038   4.462
   96OSM   H16G 9513   0.392   1.110   4.376
   96OSM   C17F 9514   0.208   1.223   4.367
   96OSM   H17F 9515   0.219   1.329   4.395
   96OSM   H17G 9516   0.105   1.194   4.394
   96OSM   C18F 9517   0.229   1.207   4.218
   96OSM   H18F 9518   0.158   1.272   4.162
   96OSM   H18G 9519   0.213   1.101   4.192
   96OSM   H18H 9520   0.332   1.234   4.187
   97OSM      N 9521   7.544   1.592   6.500
   97OSM    C15 9522   7.624   1.700   6.564
   97OSM   H15A 9523   7.718   1.715   6.512
   97OSM   H15B 9524   7.646   1.679   6.668
   97OSM   H15C 9525   7.573   1.796   6.561
   97OSM    C14 9526   7.609   1.462   6.526
   97OSM   H14A 9527   7.549   1.386   6.475
   97OSM   H14B 9528   7.613   1.436   6.630
   97OSM   H14C 9529   7.708   1.463   6.482
   97OSM    C13 9530   7.404   1.590   6.552
   97OSM   H13A 9531   7.350   1.675   6.509
   97OSM   H13B 9532   7.396   1.594   6.658
   97OSM   H13C 9533   7.355   1.501   6.513
   97OSM    C12 9534   7.532   1.611   6.348
   97OSM   H12A 9535   7.631   1.625   6.307
   97OSM   H12B 9536   7.471   1.698   6.331
   97OSM    C11 9537   7.464   1.498   6.266
   97OSM   H11A 9538   7.529   1.407   6.267
   97OSM   H11B 9539   7.462   1.530   6.159
   97OSM      P 9540   7.201   1.531   6.267
   97OSM    O13 9541   7.097   1.424   6.273
   97OSM    O14 9542   7.176   1.657   6.341
   97OSM    O11 9543   7.231   1.560   6.114
   97OSM    O12 9544   7.335   1.465   6.316
   97OSM    C1S 9545   7.236   1.447   6.026
   97OSM    H1S 9546   7.147   1.385   6.040
   97OSM    H1T 9547   7.327   1.384   6.043
   97OSM     NF 9548   7.218   1.375   5.790
   97OSM    HNF 9549   7.282   1.362   5.715
   97OSM    C2S 9550   7.236   1.492   5.877
   97OSM    H2S 9551   7.151   1.562   5.864
   97OSM    C3S 9552   7.371   1.570   5.860
   97OSM    H3S 9553   7.455   1.505   5.893
   97OSM     O3 9554   7.376   1.687   5.941
   97OSM    HO3 9555   7.304   1.675   6.006
   97OSM    C4S 9556   7.396   1.620   5.720
   97OSM    H4S 9557   7.322   1.694   5.685
   97OSM    C5S 9558   7.503   1.590   5.641
   97OSM    H5S 9559   7.580   1.522   5.682
   97OSM    C6S 9560   7.531   1.643   5.502
   97OSM    H6S 9561   7.635   1.680   5.500
   97OSM    H6T 9562   7.468   1.733   5.483
   97OSM    C7S 9563   7.514   1.550   5.378
   97OSM    H7S 9564   7.417   1.499   5.395
   97OSM    H7T 9565   7.590   1.470   5.377
   97OSM    C8S 9566   7.518   1.626   5.242
   97OSM    H8S 9567   7.617   1.678   5.237
   97OSM    H8T 9568   7.440   1.704   5.244
   97OSM    C9S 9569   7.504   1.543   5.111
   97OSM    H9S 9570   7.443   1.452   5.124
   97OSM    H9T 9571   7.606   1.510   5.085
   97OSM   C10S 9572   7.465   1.618   4.980
   97OSM   H10S 9573   7.516   1.716   4.982
   97OSM   H10T 9574   7.355   1.635   4.976
   97OSM   C11S 9575   7.513   1.540   4.854
   97OSM   H11S 9576   7.453   1.447   4.845
   97OSM   H11T 9577   7.618   1.509   4.872
   97OSM   C12S 9578   7.514   1.613   4.717
   97OSM   H12S 9579   7.576   1.705   4.727
   97OSM   H12T 9580   7.411   1.641   4.687
   97OSM   C13S 9581   7.581   1.524   4.610
   97OSM   H13S 9582   7.519   1.433   4.598
   97OSM   H13T 9583   7.678   1.493   4.654
   97OSM   C14S 9584   7.614   1.579   4.468
   97OSM   H14S 9585   7.630   1.689   4.470
   97OSM   H14T 9586   7.528   1.558   4.402
   97OSM   C15S 9587   7.743   1.512   4.413
   97OSM   H15S 9588   7.746   1.411   4.455
   97OSM   H15T 9589   7.834   1.561   4.452
   97OSM   C16S 9590   7.758   1.488   4.262
   97OSM   H16S 9591   7.660   1.466   4.215
   97OSM   H16T 9592   7.820   1.396   4.251
   97OSM   C17S 9593   7.831   1.599   4.188
   97OSM   H17S 9594   7.921   1.628   4.248
   97OSM   H17T 9595   7.764   1.688   4.182
   97OSM   C18S 9596   7.878   1.556   4.049
   97OSM   H18S 9597   7.885   1.643   3.981
   97OSM   H18T 9598   7.808   1.483   4.004
   97OSM   H18U 9599   7.979   1.509   4.055
   97OSM    C1F 9600   7.105   1.299   5.801
   97OSM     OF 9601   7.009   1.340   5.863
   97OSM    C2F 9602   7.102   1.162   5.742
   97OSM    H2F 9603   7.146   1.096   5.821
   97OSM    H2G 9604   7.167   1.159   5.653
   97OSM    C3F 9605   6.961   1.105   5.709
   97OSM    H3F 9606   6.900   1.103   5.803
   97OSM    H3G 9607   6.974   0.998   5.680
   97OSM    C4F 9608   6.876   1.177   5.600
   97OSM    H4F 9609   6.843   1.273   5.643
   97OSM    H4G 9610   6.785   1.117   5.577
   97OSM    C5F 9611   6.945   1.213   5.467
   97OSM    H5F 9612   6.953   1.128   5.398
   97OSM    H5G 9613   7.052   1.225   5.499
   97OSM    C6F 9614   6.919   1.358   5.415
   97OSM    H6F 9615   7.016   1.379   5.373
   97OSM    H6G 9616   6.912   1.415   5.510
   97OSM    C7F 9617   6.818   1.429   5.314
   97OSM    H7F 9618   6.831   1.532   5.353
   97OSM    H7G 9619   6.712   1.410   5.331
   97OSM    C8F 9620   6.861   1.476   5.166
   97OSM    H8F 9621   6.940   1.408   5.146
   97OSM    H8G 9622   6.910   1.572   5.164
   97OSM    C9F 9623   6.789   1.488   5.034
   97OSM    H9F 9624   6.685   1.520   5.042
   97OSM   C10F 9625   6.849   1.475   4.912
   97OSM   H10F 9626   6.787   1.487   4.822
   97OSM   C11F 9627   6.996   1.446   4.886
   97OSM   H11F 9628   7.050   1.448   4.982
   97OSM   H11G 9629   7.045   1.529   4.832
   97OSM   C12F 9630   7.039   1.312   4.819
   97OSM   H12F 9631   6.966   1.231   4.839
   97OSM   H12G 9632   7.133   1.280   4.870
   97OSM   C13F 9633   7.072   1.313   4.668
   97OSM   H13F 9634   6.981   1.337   4.608
   97OSM   H13G 9635   7.102   1.209   4.642
   97OSM   C14F 9636   7.188   1.407   4.632
   97OSM   H14F 9637   7.270   1.388   4.706
   97OSM   H14G 9638   7.157   1.512   4.645
   97OSM   C15F 9639   7.250   1.386   4.493
   97OSM   H15F 9640   7.289   1.283   4.490
   97OSM   H15G 9641   7.336   1.456   4.481
   97OSM   C16F 9642   7.157   1.406   4.371
   97OSM   H16F 9643   7.151   1.515   4.347
   97OSM   H16G 9644   7.055   1.371   4.395
   97OSM   C17F 9645   7.209   1.330   4.248
   97OSM   H17F 9646   7.208   1.222   4.269
   97OSM   H17G 9647   7.316   1.356   4.232
   97OSM   C18F 9648   7.132   1.354   4.119
   97OSM   H18F 9649   7.029   1.392   4.140
   97OSM   H18G 9650   7.122   1.263   4.058
   97OSM   H18H 9651   7.188   1.428   4.059
   98OSM      N 9652   0.720   6.816   6.500
   98OSM    C15 9653   0.828   6.733   6.437
   98OSM   H15A 9654   0.856   6.649   6.497
   98OSM   H15B 9655   0.914   6.799   6.418
   98OSM   H15C 9656   0.797   6.696   6.340
   98OSM    C14 9657   0.594   6.736   6.505
   98OSM   H14A 9658   0.515   6.794   6.550
   98OSM   H14B 9659   0.604   6.648   6.569
   98OSM   H14C 9660   0.562   6.696   6.409
   98OSM    C13 9661   0.757   6.852   6.642
   98OSM   H13A 9662   0.845   6.916   6.642
   98OSM   H13B 9663   0.779   6.764   6.701
   98OSM   H13C 9664   0.677   6.903   6.694
   98OSM    C12 9665   0.708   6.945   6.419
   98OSM   H12A 9666   0.627   7.007   6.457
   98OSM   H12B 9667   0.685   6.922   6.315
   98OSM    C11 9668   0.830   7.041   6.415
   98OSM   H11A 9669   0.860   7.071   6.518
   98OSM   H11B 9670   0.797   7.136   6.365
   98OSM      P 9671   0.983   7.031   6.203
   98OSM    O13 9672   0.985   7.179   6.192
   98OSM    O14 9673   1.103   6.955   6.162
   98OSM    O11 9674   0.854   6.979   6.125
   98OSM    O12 9675   0.943   6.983   6.350
   98OSM    C1S 9676   0.838   6.844   6.081
   98OSM    H1S 9677   0.750   6.799   6.132
   98OSM    H1T 9678   0.927   6.781   6.105
   98OSM     NF 9679   0.931   6.906   5.870
   98OSM    HNF 9680   0.921   7.004   5.858
   98OSM    C2S 9681   0.817   6.840   5.928
   98OSM    H2S 9682   0.816   6.734   5.894
   98OSM    C3S 9683   0.684   6.907   5.886
   98OSM    H3S 9684   0.675   7.008   5.933
   98OSM     O3 9685   0.566   6.835   5.923
   98OSM    HO3 9686   0.599   6.750   5.953
   98OSM    C4S 9687   0.678   6.923   5.736
   98OSM    H4S 9688   0.680   6.827   5.683
   98OSM    C5S 9689   0.673   7.037   5.664
   98OSM    H5S 9690   0.676   7.135   5.714
   98OSM    C6S 9691   0.668   7.037   5.513
   98OSM    H6S 9692   0.568   7.070   5.477
   98OSM    H6T 9693   0.676   6.934   5.476
   98OSM    C7S 9694   0.775   7.123   5.441
   98OSM    H7S 9695   0.862   7.140   5.508
   98OSM    H7T 9696   0.732   7.223   5.420
   98OSM    C8S 9697   0.827   7.061   5.310
   98OSM    H8S 9698   0.779   6.962   5.292
   98OSM    H8T 9699   0.938   7.047   5.310
   98OSM    C9S 9700   0.808   7.147   5.188
   98OSM    H9S 9701   0.887   7.226   5.189
   98OSM    H9T 9702   0.708   7.196   5.195
   98OSM   C10S 9703   0.818   7.068   5.057
   98OSM   H10S 9704   0.736   6.994   5.053
   98OSM   H10T 9705   0.915   7.014   5.050
   98OSM   C11S 9706   0.805   7.171   4.946
   98OSM   H11S 9707   0.904   7.209   4.913
   98OSM   H11T 9708   0.751   7.252   4.998
   98OSM   C12S 9709   0.707   7.145   4.833
   98OSM   H12S 9710   0.696   7.234   4.768
   98OSM   H12T 9711   0.606   7.128   4.878
   98OSM   C13S 9712   0.745   7.027   4.748
   98OSM   H13S 9713   0.763   6.941   4.816
   98OSM   H13T 9714   0.838   7.047   4.690
   98OSM   C14S 9715   0.630   6.993   4.654
   98OSM   H14S 9716   0.534   7.009   4.707
   98OSM   H14T 9717   0.636   6.885   4.629
   98OSM   C15S 9718   0.634   7.077   4.525
   98OSM   H15S 9719   0.738   7.110   4.503
   98OSM   H15T 9720   0.574   7.170   4.540
   98OSM   C16S 9721   0.582   6.997   4.406
   98OSM   H16S 9722   0.560   7.067   4.322
   98OSM   H16T 9723   0.488   6.946   4.434
   98OSM   C17S 9724   0.683   6.891   4.358
   98OSM   H17S 9725   0.702   6.819   4.440
   98OSM   H17T 9726   0.779   6.942   4.336
   98OSM   C18S 9727   0.635   6.815   4.235
   98OSM   H18S 9728   0.713   6.745   4.200
   98OSM   H18T 9729   0.614   6.886   4.152
   98OSM   H18U 9730   0.542   6.759   4.257
   98OSM    C1F 9731   1.052   6.854   5.863
   98OSM     OF 9732   1.068   6.733   5.876
   98OSM    C2F 9733   1.161   6.954   5.843
   98OSM    H2F 9734   1.234   6.942   5.926
   98OSM    H2G 9735   1.118   7.056   5.851
   98OSM    C3F 9736   1.235   6.940   5.707
   98OSM    H3F 9737   1.278   6.839   5.704
   98OSM    H3G 9738   1.322   7.009   5.710
   98OSM    C4F 9739   1.155   6.968   5.577
   98OSM    H4F 9740   1.218   6.939   5.491
   98OSM    H4G 9741   1.145   7.079   5.569
   98OSM    C5F 9742   1.014   6.907   5.555
   98OSM    H5F 9743   0.979   6.962   5.468
   98OSM    H5G 9744   0.942   6.932   5.633
   98OSM    C6F 9745   1.000   6.761   5.509
   98OSM    H6F 9746   1.003   6.693   5.597
   98OSM    H6G 9747   1.088   6.744   5.444
   98OSM    C7F 9748   0.879   6.723   5.419
   98OSM    H7F 9749   0.799   6.796   5.433
   98OSM    H7G 9750   0.838   6.624   5.450
   98OSM    C8F 9751   0.913   6.719   5.269
   98OSM    H8F 9752   0.939   6.823   5.242
   98OSM    H8G 9753   0.822   6.695   5.209
   98OSM    C9F 9754   1.024   6.622   5.236
   98OSM    H9F 9755   1.016   6.523   5.284
   98OSM   C10F 9756   1.132   6.651   5.162
   98OSM   H10F 9757   1.209   6.573   5.148
   98OSM   C11F 9758   1.162   6.785   5.099
   98OSM   H11F 9759   1.266   6.815   5.125
   98OSM   H11G 9760   1.098   6.867   5.137
   98OSM   C12F 9761   1.145   6.783   4.946
   98OSM   H12F 9762   1.217   6.713   4.899
   98OSM   H12G 9763   1.171   6.885   4.912
   98OSM   C13F 9764   1.003   6.758   4.895
   98OSM   H13F 9765   0.932   6.815   4.959
   98OSM   H13G 9766   0.977   6.650   4.905
   98OSM   C14F 9767   0.980   6.805   4.750
   98OSM   H14F 9768   1.000   6.914   4.746
   98OSM   H14G 9769   0.873   6.787   4.723
   98OSM   C15F 9770   1.065   6.737   4.642
   98OSM   H15F 9771   1.051   6.627   4.648
   98OSM   H15G 9772   1.171   6.760   4.663
   98OSM   C16F 9773   1.031   6.784   4.499
   98OSM   H16F 9774   0.925   6.759   4.475
   98OSM   H16G 9775   1.095   6.728   4.428
   98OSM   C17F 9776   1.055   6.933   4.471
   98OSM   H17F 9777   1.147   6.965   4.523
   98OSM   H17G 9778   0.971   6.993   4.512
   98OSM   C18F 9779   1.072   6.963   4.322
   98OSM   H18F 9780   1.085   7.072   4.305
   98OSM   H18G 9781   0.983   6.928   4.265
   98OSM   H18H 9782   1.161   6.911   4.282
   99OSM      N 9783   3.353   3.573   2.103
   99OSM    C15 9784   3.403   3.681   2.014
   99OSM   H15A 9785   3.387   3.655   1.909
   99OSM   H15B 9786   3.511   3.693   2.022
   99OSM   H15C 9787   3.353   3.775   2.032
   99OSM    C14 9788   3.438   3.453   2.076
   99OSM   H14A 9789   3.394   3.364   2.121
   99OSM   H14B 9790   3.539   3.466   2.110
   99OSM   H14C 9791   3.442   3.433   1.969
   99OSM    C13 9792   3.375   3.620   2.243
   99OSM   H13A 9793   3.333   3.549   2.313
   99OSM   H13B 9794   3.329   3.717   2.258
   99OSM   H13C 9795   3.481   3.630   2.261
   99OSM    C12 9796   3.205   3.539   2.081
   99OSM   H12A 9797   3.188   3.522   1.975
   99OSM   H12B 9798   3.142   3.623   2.109
   99OSM    C11 9799   3.151   3.412   2.154
   99OSM   H11A 9800   3.040   3.408   2.144
   99OSM   H11B 9801   3.175   3.420   2.262
   99OSM      P 9802   3.218   3.152   2.153
   99OSM    O13 9803   3.096   3.080   2.110
   99OSM    O14 9804   3.347   3.095   2.108
   99OSM    O11 9805   3.223   3.171   2.309
   99OSM    O12 9806   3.209   3.298   2.094
   99OSM    C1S 9807   3.146   3.085   2.394
   99OSM    H1S 9808   3.163   2.977   2.372
   99OSM    H1T 9809   3.037   3.105   2.382
   99OSM     NF 9810   3.197   3.254   2.569
   99OSM    HNF 9811   3.259   3.274   2.643
   99OSM    C2S 9812   3.178   3.112   2.544
   99OSM    H2S 9813   3.091   3.079   2.604
   99OSM    C3S 9814   3.304   3.035   2.598
   99OSM    H3S 9815   3.393   3.071   2.542
   99OSM     O3 9816   3.307   2.892   2.590
   99OSM    HO3 9817   3.225   2.860   2.551
   99OSM    C4S 9818   3.322   3.080   2.742
   99OSM    H4S 9819   3.405   3.151   2.755
   99OSM    C5S 9820   3.251   3.041   2.850
   99OSM    H5S 9821   3.172   2.966   2.839
   99OSM    C6S 9822   3.273   3.091   2.991
   99OSM    H6S 9823   3.176   3.130   3.031
   99OSM    H6T 9824   3.345   3.176   2.995
   99OSM    C7S 9825   3.325   2.981   3.083
   99OSM    H7S 9826   3.427   2.951   3.052
   99OSM    H7T 9827   3.259   2.893   3.074
   99OSM    C8S 9828   3.324   3.020   3.231
   99OSM    H8S 9829   3.375   3.118   3.240
   99OSM    H8T 9830   3.385   2.945   3.287
   99OSM    C9S 9831   3.183   3.021   3.291
   99OSM    H9S 9832   3.137   2.921   3.275
   99OSM    H9T 9833   3.119   3.096   3.240
   99OSM   C10S 9834   3.183   3.051   3.441
   99OSM   H10S 9835   3.247   2.975   3.492
   99OSM   H10T 9836   3.080   3.042   3.483
   99OSM   C11S 9837   3.238   3.191   3.471
   99OSM   H11S 9838   3.160   3.268   3.450
   99OSM   H11T 9839   3.324   3.214   3.406
   99OSM   C12S 9840   3.289   3.206   3.613
   99OSM   H12S 9841   3.344   3.303   3.622
   99OSM   H12T 9842   3.361   3.125   3.635
   99OSM   C13S 9843   3.178   3.206   3.716
   99OSM   H13S 9844   3.111   3.117   3.704
   99OSM   H13T 9845   3.117   3.297   3.698
   99OSM   C14S 9846   3.235   3.210   3.857
   99OSM   H14S 9847   3.186   3.292   3.912
   99OSM   H14T 9848   3.343   3.237   3.849
   99OSM   C15S 9849   3.220   3.079   3.933
   99OSM   H15S 9850   3.292   3.003   3.894
   99OSM   H15T 9851   3.120   3.035   3.915
   99OSM   C16S 9852   3.238   3.093   4.085
   99OSM   H16S 9853   3.303   3.009   4.118
   99OSM   H16T 9854   3.139   3.079   4.133
   99OSM   C17S 9855   3.297   3.225   4.140
   99OSM   H17S 9856   3.299   3.220   4.251
   99OSM   H17T 9857   3.229   3.310   4.116
   99OSM   C18S 9858   3.438   3.257   4.094
   99OSM   H18S 9859   3.488   3.164   4.059
   99OSM   H18T 9860   3.497   3.303   4.176
   99OSM   H18U 9861   3.438   3.326   4.007
   99OSM    C1F 9862   3.125   3.358   2.533
   99OSM     OF 9863   3.021   3.353   2.469
   99OSM    C2F 9864   3.175   3.482   2.597
   99OSM    H2F 9865   3.150   3.570   2.534
   99OSM    H2G 9866   3.285   3.479   2.612
   99OSM    C3F 9867   3.104   3.488   2.734
   99OSM    H3F 9868   2.996   3.466   2.716
   99OSM    H3G 9869   3.111   3.591   2.776
   99OSM    C4F 9870   3.145   3.388   2.841
   99OSM    H4F 9871   3.171   3.288   2.803
   99OSM    H4G 9872   3.054   3.367   2.901
   99OSM    C5F 9873   3.254   3.443   2.931
   99OSM    H5F 9874   3.285   3.544   2.895
   99OSM    H5G 9875   3.345   3.379   2.930
   99OSM    C6F 9876   3.196   3.452   3.071
   99OSM    H6F 9877   3.203   3.351   3.118
   99OSM    H6G 9878   3.088   3.478   3.068
   99OSM    C7F 9879   3.260   3.559   3.157
   99OSM    H7F 9880   3.223   3.660   3.128
   99OSM    H7G 9881   3.370   3.558   3.137
   99OSM    C8F 9882   3.224   3.531   3.303
   99OSM    H8F 9883   3.164   3.438   3.310
   99OSM    H8G 9884   3.160   3.613   3.342
   99OSM    C9F 9885   3.352   3.510   3.377
   99OSM    H9F 9886   3.404   3.417   3.348
   99OSM   C10F 9887   3.393   3.576   3.484
   99OSM   H10F 9888   3.494   3.556   3.523
   99OSM   C11F 9889   3.318   3.684   3.555
   99OSM   H11F 9890   3.219   3.707   3.512
   99OSM   H11G 9891   3.373   3.780   3.567
   99OSM   C12F 9892   3.302   3.619   3.691
   99OSM   H12F 9893   3.401   3.604   3.741
   99OSM   H12G 9894   3.254   3.518   3.679
   99OSM   C13F 9895   3.214   3.700   3.782
   99OSM   H13F 9896   3.164   3.784   3.727
   99OSM   H13G 9897   3.277   3.744   3.862
   99OSM   C14F 9898   3.108   3.609   3.842
   99OSM   H14F 9899   3.151   3.509   3.864
   99OSM   H14G 9900   3.025   3.595   3.769
   99OSM   C15F 9901   3.057   3.669   3.971
   99OSM   H15F 9902   2.949   3.647   3.984
   99OSM   H15G 9903   3.070   3.777   3.953
   99OSM   C16F 9904   3.141   3.629   4.092
   99OSM   H16F 9905   3.239   3.681   4.085
   99OSM   H16G 9906   3.161   3.520   4.090
   99OSM   C17F 9907   3.078   3.664   4.227
   99OSM   H17F 9908   3.063   3.774   4.231
   99OSM   H17G 9909   3.154   3.639   4.304
   99OSM   C18F 9910   2.946   3.593   4.263
   99OSM   H18F 9911   2.911   3.625   4.363
   99OSM   H18G 9912   2.959   3.482   4.264
   99OSM   H18H 9913   2.866   3.618   4.190
  100OSM      N 9914   3.559   2.471   2.142
  100OSM    C15 9915   3.454   2.373   2.099
  100OSM   H15A 9916   3.502   2.277   2.077
  100OSM   H15B 9917   3.402   2.402   2.009
  100OSM   H15C 9918   3.379   2.357   2.176
  100OSM    C14 9919   3.646   2.402   2.242
  100OSM   H14A 9920   3.684   2.309   2.199
  100OSM   H14B 9921   3.592   2.374   2.332
  100OSM   H14C 9922   3.732   2.463   2.268
  100OSM    C13 9923   3.642   2.500   2.022
  100OSM   H13A 9924   3.684   2.409   1.983
  100OSM   H13B 9925   3.721   2.572   2.046
  100OSM   H13C 9926   3.583   2.547   1.945
  100OSM    C12 9927   3.500   2.602   2.194
  100OSM   H12A 9928   3.448   2.584   2.287
  100OSM   H12B 9929   3.427   2.636   2.122
  100OSM    C11 9930   3.593   2.727   2.211
  100OSM   H11A 9931   3.680   2.697   2.273
  100OSM   H11B 9932   3.537   2.804   2.269
  100OSM      P 9933   3.764   2.870   2.066
  100OSM    O13 9934   3.824   2.847   1.932
  100OSM    O14 9935   3.743   3.012   2.104
  100OSM    O11 9936   3.863   2.797   2.168
  100OSM    O12 9937   3.630   2.784   2.085
  100OSM    C1S 9938   3.941   2.870   2.261
  100OSM    H1S 9939   3.900   2.973   2.280
  100OSM    H1T 9940   4.045   2.882   2.225
  100OSM     NF 9941   4.028   2.861   2.491
  100OSM    HNF 9942   4.111   2.812   2.519
  100OSM    C2S 9943   3.941   2.795   2.396
  100OSM    H2S 9944   3.836   2.798   2.435
  100OSM    C3S 9945   3.984   2.646   2.381
  100OSM    H3S 9946   4.090   2.643   2.347
  100OSM     O3 9947   3.913   2.571   2.283
  100OSM    HO3 9948   3.876   2.641   2.227
  100OSM    C4S 9949   3.967   2.580   2.515
  100OSM    H4S 9950   3.868   2.537   2.534
  100OSM    C5S 9951   4.063   2.571   2.609
  100OSM    H5S 9952   4.162   2.615   2.588
  100OSM    C6S 9953   4.052   2.506   2.745
  100OSM    H6S 9954   4.149   2.457   2.767
  100OSM    H6T 9955   3.974   2.427   2.746
  100OSM    C7S 9956   4.022   2.606   2.859
  100OSM    H7S 9957   3.913   2.628   2.860
  100OSM    H7T 9958   4.075   2.703   2.842
  100OSM    C8S 9959   4.066   2.553   2.998
  100OSM    H8S 9960   4.167   2.595   3.019
  100OSM    H8T 9961   4.076   2.442   2.993
  100OSM    C9S 9962   3.971   2.586   3.114
  100OSM    H9S 9963   3.932   2.689   3.102
  100OSM    H9T 9964   4.030   2.583   3.209
  100OSM   C10S 9965   3.855   2.486   3.125
  100OSM   H10S 9966   3.898   2.384   3.141
  100OSM   H10T 9967   3.802   2.485   3.027
  100OSM   C11S 9968   3.753   2.515   3.236
  100OSM   H11S 9969   3.671   2.440   3.229
  100OSM   H11T 9970   3.708   2.615   3.218
  100OSM   C12S 9971   3.809   2.509   3.379
  100OSM   H12S 9972   3.896   2.578   3.387
  100OSM   H12T 9973   3.847   2.407   3.402
  100OSM   C13S 9974   3.703   2.551   3.482
  100OSM   H13S 9975   3.619   2.479   3.482
  100OSM   H13T 9976   3.662   2.649   3.450
  100OSM   C14S 9977   3.758   2.568   3.625
  100OSM   H14S 9978   3.689   2.637   3.678
  100OSM   H14T 9979   3.858   2.616   3.623
  100OSM   C15S 9980   3.767   2.436   3.703
  100OSM   H15S 9981   3.844   2.372   3.656
  100OSM   H15T 9982   3.670   2.383   3.695
  100OSM   C16S 9983   3.799   2.457   3.852
  100OSM   H16S 9984   3.889   2.521   3.862
  100OSM   H16T 9985   3.822   2.358   3.897
  100OSM   C17S 9986   3.681   2.520   3.927
  100OSM   H17S 9987   3.589   2.462   3.907
  100OSM   H17T 9988   3.666   2.623   3.888
  100OSM   C18S 9989   3.703   2.531   4.077
  100OSM   H18S 9990   3.614   2.572   4.129
  100OSM   H18T 9991   3.787   2.602   4.095
  100OSM   H18U 9992   3.728   2.432   4.122
  100OSM    C1F 9993   4.003   2.979   2.545
  100OSM     OF 9994   3.910   3.050   2.509
  100OSM    C2F 9995   4.098   3.019   2.652
  100OSM    H2F 9996   4.142   3.117   2.626
  100OSM    H2G 9997   4.181   2.944   2.656
  100OSM    C3F 9998   4.027   3.023   2.788
  100OSM    H3F 9999   3.971   2.929   2.806
  100OSM    H3G10000   3.952   3.106   2.786
  100OSM    C4F10001   4.125   3.046   2.903
  100OSM    H4F10002   4.190   3.132   2.875
  100OSM    H4G10003   4.191   2.957   2.915
  100OSM    C5F10004   4.054   3.078   3.034
  100OSM    H5F10005   3.977   3.154   3.011
  100OSM    H5G10006   4.125   3.123   3.108
  100OSM    C6F10007   3.979   2.962   3.099
  100OSM    H6F10008   4.047   2.913   3.172
  100OSM    H6G10009   3.952   2.887   3.021
  100OSM    C7F10010   3.848   3.009   3.166
  100OSM    H7F10011   3.781   3.049   3.086
  100OSM    H7G10012   3.871   3.093   3.235
  100OSM    C8F10013   3.773   2.899   3.242
  100OSM    H8F10014   3.747   2.818   3.170
  100OSM    H8G10015   3.677   2.940   3.280
  100OSM    C9F10016   3.861   2.847   3.353
  100OSM    H9F10017   3.945   2.785   3.318
  100OSM   C10F10018   3.843   2.861   3.485
  100OSM   H10F10019   3.915   2.812   3.552
  100OSM   C11F10020   3.729   2.931   3.554
  100OSM   H11F10021   3.670   2.853   3.606
  100OSM   H11G10022   3.660   2.982   3.483
  100OSM   C12F10023   3.774   3.034   3.658
  100OSM   H12F10024   3.832   3.115   3.607
  100OSM   H12G10025   3.843   2.986   3.731
  100OSM   C13F10026   3.656   3.098   3.732
  100OSM   H13F10027   3.600   3.166   3.664
  100OSM   H13G10028   3.695   3.165   3.812
  100OSM   C14F10029   3.553   2.999   3.792
  100OSM   H14F10030   3.495   2.959   3.706
  100OSM   H14G10031   3.483   3.057   3.856
  100OSM   C15F10032   3.607   2.879   3.872
  100OSM   H15F10033   3.705   2.845   3.832
  100OSM   H15G10034   3.535   2.795   3.856
  100OSM   C16F10035   3.619   2.902   4.024
  100OSM   H16F10036   3.639   2.805   4.075
  100OSM   H16G10037   3.521   2.939   4.062
  100OSM   C17F10038   3.732   2.999   4.057
  100OSM   H17F10039   3.740   3.071   3.974
  100OSM   H17G10040   3.830   2.946   4.059
  100OSM   C18F10041   3.713   3.085   4.183
  100OSM   H18F10042   3.752   3.036   4.273
  100OSM   H18G10043   3.607   3.105   4.204
  100OSM   H18H10044   3.763   3.183   4.167
  101OSM      N10045   4.661   3.426   2.157
  101OSM    C1510046   4.698   3.439   2.012
  101OSM   H15A10047   4.615   3.471   1.951
  101OSM   H15B10048   4.739   3.346   1.973
  101OSM   H15C10049   4.779   3.512   2.003
  101OSM    C1410050   4.603   3.559   2.196
  101OSM   H14A10051   4.512   3.577   2.139
  101OSM   H14B10052   4.671   3.639   2.171
  101OSM   H14C10053   4.575   3.564   2.300
  101OSM    C1310054   4.557   3.321   2.175
  101OSM   H13A10055   4.594   3.224   2.144
  101OSM   H13B10056   4.467   3.344   2.118
  101OSM   H13C10057   4.525   3.315   2.279
  101OSM    C1210058   4.785   3.399   2.240
  101OSM   H12A10059   4.757   3.391   2.344
  101OSM   H12B10060   4.850   3.485   2.232
  101OSM    C1110061   4.874   3.277   2.203
  101OSM   H11A10062   4.811   3.188   2.182
  101OSM   H11B10063   4.935   3.251   2.292
  101OSM      P10064   5.053   3.432   2.086
  101OSM    O1310065   5.165   3.407   1.994
  101OSM    O1410066   4.963   3.546   2.050
  101OSM    O1110067   5.102   3.452   2.237
  101OSM    O1210068   4.961   3.302   2.093
  101OSM    C1S10069   5.196   3.360   2.291
  101OSM    H1S10070   5.297   3.385   2.252
  101OSM    H1T10071   5.175   3.255   2.261
  101OSM     NF10072   5.089   3.304   2.514
  101OSM    HNF10073   5.030   3.369   2.561
  101OSM    C2S10074   5.205   3.364   2.448
  101OSM    H2S10075   5.294   3.305   2.478
  101OSM    C3S10076   5.226   3.511   2.495
  101OSM    H3S10077   5.144   3.577   2.459
  101OSM     O310078   5.350   3.567   2.453
  101OSM    HO310079   5.391   3.498   2.401
  101OSM    C4S10080   5.222   3.507   2.644
  101OSM    H4S10081   5.257   3.412   2.686
  101OSM    C5S10082   5.182   3.600   2.731
  101OSM    H5S10083   5.149   3.700   2.698
  101OSM    C6S10084   5.188   3.572   2.879
  101OSM    H6S10085   5.224   3.661   2.936
  101OSM    H6T10086   5.257   3.487   2.904
  101OSM    C7S10087   5.051   3.532   2.927
  101OSM    H7S10088   5.069   3.490   3.028
  101OSM    H7T10089   5.006   3.449   2.867
  101OSM    C8S10090   4.958   3.653   2.927
  101OSM    H8S10091   4.934   3.684   2.823
  101OSM    H8T10092   5.010   3.738   2.977
  101OSM    C9S10093   4.831   3.623   3.003
  101OSM    H9S10094   4.781   3.534   2.960
  101OSM    H9T10095   4.761   3.710   2.996
  101OSM   C10S10096   4.865   3.600   3.149
  101OSM   H10S10097   4.900   3.697   3.192
  101OSM   H10T10098   4.946   3.526   3.168
  101OSM   C11S10099   4.747   3.546   3.224
  101OSM   H11S10100   4.742   3.435   3.211
  101OSM   H11T10101   4.652   3.590   3.186
  101OSM   C12S10102   4.769   3.582   3.368
  101OSM   H12S10103   4.768   3.693   3.378
  101OSM   H12T10104   4.868   3.546   3.402
  101OSM   C13S10105   4.660   3.523   3.453
  101OSM   H13S10106   4.657   3.412   3.440
  101OSM   H13T10107   4.561   3.565   3.421
  101OSM   C14S10108   4.690   3.558   3.596
  101OSM   H14S10109   4.711   3.667   3.605
  101OSM   H14T10110   4.783   3.504   3.627
  101OSM   C15S10111   4.576   3.522   3.689
  101OSM   H15S10112   4.546   3.416   3.672
  101OSM   H15T10113   4.488   3.586   3.667
  101OSM   C16S10114   4.627   3.543   3.830
  101OSM   H16S10115   4.647   3.651   3.848
  101OSM   H16T10116   4.725   3.490   3.836
  101OSM   C17S10117   4.537   3.486   3.938
  101OSM   H17S10118   4.442   3.446   3.896
  101OSM   H17T10119   4.506   3.568   4.005
  101OSM   C18S10120   4.611   3.380   4.017
  101OSM   H18S10121   4.721   3.396   4.017
  101OSM   H18T10122   4.590   3.278   3.978
  101OSM   H18U10123   4.581   3.386   4.123
  101OSM    C1F10124   5.051   3.176   2.500
  101OSM     OF10125   5.110   3.101   2.423
  101OSM    C2F10126   4.925   3.130   2.569
  101OSM    H2F10127   4.874   3.060   2.500
  101OSM    H2G10128   4.857   3.217   2.585
  101OSM    C3F10129   4.946   3.056   2.704
  101OSM    H3F10130   5.035   2.989   2.698
  101OSM    H3G10131   4.857   2.991   2.723
  101OSM    C4F10132   4.958   3.152   2.825
  101OSM    H4F10133   4.869   3.217   2.831
  101OSM    H4G10134   5.046   3.217   2.806
  101OSM    C5F10135   4.979   3.082   2.961
  101OSM    H5F10136   5.038   3.153   3.023
  101OSM    H5G10137   5.039   2.990   2.948
  101OSM    C6F10138   4.852   3.051   3.043
  101OSM    H6F10139   4.781   2.992   2.981
  101OSM    H6G10140   4.804   3.147   3.071
  101OSM    C7F10141   4.880   2.970   3.172
  101OSM    H7F10142   4.899   2.864   3.144
  101OSM    H7G10143   4.787   2.971   3.234
  101OSM    C8F10144   4.998   3.018   3.259
  101OSM    H8F10145   5.092   3.004   3.202
  101OSM    H8G10146   5.007   2.952   3.348
  101OSM    C9F10147   4.984   3.162   3.300
  101OSM    H9F10148   5.044   3.234   3.243
  101OSM   C10F10149   4.907   3.208   3.400
  101OSM   H10F10150   4.901   3.317   3.417
  101OSM   C11F10151   4.819   3.124   3.488
  101OSM   H11F10152   4.832   3.015   3.471
  101OSM   H11G10153   4.712   3.146   3.463
  101OSM   C12F10154   4.838   3.153   3.639
  101OSM   H12F10155   4.758   3.096   3.691
  101OSM   H12G10156   4.819   3.261   3.659
  101OSM   C13F10157   4.974   3.112   3.701
  101OSM   H13F10158   5.048   3.193   3.681
  101OSM   H13G10159   5.011   3.019   3.653
  101OSM   C14F10160   4.960   3.094   3.854
  101OSM   H14F10161   4.889   3.010   3.873
  101OSM   H14G10162   4.912   3.186   3.893
  101OSM   C15F10163   5.088   3.066   3.937
  101OSM   H15F10164   5.103   2.956   3.942
  101OSM   H15G10165   5.068   3.100   4.040
  101OSM   C16F10166   5.221   3.130   3.892
  101OSM   H16F10167   5.231   3.125   3.782
  101OSM   H16G10168   5.303   3.068   3.935
  101OSM   C17F10169   5.248   3.274   3.940
  101OSM   H17F10170   5.349   3.303   3.902
  101OSM   H17G10171   5.255   3.272   4.052
  101OSM   C18F10172   5.148   3.382   3.899
  101OSM   H18F10173   5.107   3.432   3.989
  101OSM   H18G10174   5.063   3.340   3.841
  101OSM   H18H10175   5.198   3.459   3.836
  102OSM      N10176   2.930   2.779   1.981
  102OSM    C1510177   2.966   2.846   1.852
  102OSM   H15A10178   3.021   2.938   1.875
  102OSM   H15B10179   2.876   2.876   1.798
  102OSM   H15C10180   3.030   2.785   1.789
  102OSM    C1410181   3.057   2.767   2.058
  102OSM   H14A10182   3.094   2.868   2.080
  102OSM   H14B10183   3.136   2.722   1.996
  102OSM   H14C10184   3.044   2.714   2.150
  102OSM    C1310185   2.844   2.876   2.056
  102OSM   H13A10186   2.894   2.972   2.066
  102OSM   H13B10187   2.826   2.837   2.155
  102OSM   H13C10188   2.748   2.888   2.006
  102OSM    C1210189   2.857   2.647   1.959
  102OSM   H12A10190   2.914   2.587   1.888
  102OSM   H12B10191   2.761   2.669   1.913
  102OSM    C1110192   2.826   2.553   2.080
  102OSM   H11A10193   2.924   2.525   2.125
  102OSM   H11B10194   2.780   2.460   2.038
  102OSM      P10195   2.737   2.548   2.325
  102OSM    O1310196   2.660   2.639   2.413
  102OSM    O1410197   2.693   2.407   2.323
  102OSM    O1110198   2.892   2.557   2.359
  102OSM    O1210199   2.734   2.608   2.176
  102OSM    C1S10200   2.948   2.460   2.449
  102OSM    H1S10201   3.048   2.430   2.410
  102OSM    H1T10202   2.890   2.366   2.457
  102OSM     NF10203   2.848   2.520   2.666
  102OSM    HNF10204   2.790   2.600   2.654
  102OSM    C2S10205   2.972   2.518   2.591
  102OSM    H2S10206   3.043   2.448   2.641
  102OSM    C3S10207   3.035   2.658   2.587
  102OSM    H3S10208   2.957   2.733   2.561
  102OSM     O310209   3.136   2.677   2.487
  102OSM    HO310210   3.086   2.662   2.406
  102OSM    C4S10211   3.082   2.686   2.727
  102OSM    H4S10212   3.019   2.757   2.783
  102OSM    C5S10213   3.193   2.635   2.785
  102OSM    H5S10214   3.258   2.568   2.727
  102OSM    C6S10215   3.237   2.662   2.926
  102OSM    H6S10216   3.310   2.746   2.926
  102OSM    H6T10217   3.291   2.574   2.966
  102OSM    C7S10218   3.121   2.693   3.023
  102OSM    H7S10219   3.068   2.783   2.986
  102OSM    H7T10220   3.163   2.719   3.122
  102OSM    C8S10221   3.022   2.577   3.046
  102OSM    H8S10222   3.048   2.528   3.142
  102OSM    H8T10223   3.034   2.500   2.967
  102OSM    C9S10224   2.874   2.618   3.049
  102OSM    H9S10225   2.821   2.541   3.108
  102OSM    H9T10226   2.833   2.615   2.945
  102OSM   C10S10227   2.837   2.754   3.111
  102OSM   H10S10228   2.726   2.763   3.114
  102OSM   H10T10229   2.874   2.836   3.046
  102OSM   C11S10230   2.890   2.775   3.254
  102OSM   H11S10231   2.878   2.883   3.279
  102OSM   H11T10232   2.998   2.751   3.260
  102OSM   C12S10233   2.815   2.693   3.359
  102OSM   H12S10234   2.833   2.584   3.343
  102OSM   H12T10235   2.706   2.711   3.344
  102OSM   C13S10236   2.852   2.732   3.502
  102OSM   H13S10237   2.851   2.843   3.509
  102OSM   H13T10238   2.955   2.697   3.525
  102OSM   C14S10239   2.752   2.676   3.603
  102OSM   H14S10240   2.761   2.565   3.609
  102OSM   H14T10241   2.650   2.699   3.566
  102OSM   C15S10242   2.765   2.736   3.744
  102OSM   H15S10243   2.798   2.842   3.739
  102OSM   H15T10244   2.841   2.678   3.801
  102OSM   C16S10245   2.630   2.729   3.815
  102OSM   H16S10246   2.588   2.627   3.801
  102OSM   H16T10247   2.559   2.801   3.769
  102OSM   C17S10248   2.637   2.755   3.965
  102OSM   H17S10249   2.671   2.860   3.984
  102OSM   H17T10250   2.709   2.686   4.012
  102OSM   C18S10251   2.499   2.736   4.027
  102OSM   H18S10252   2.445   2.833   4.022
  102OSM   H18T10253   2.504   2.703   4.132
  102OSM   H18U10254   2.442   2.660   3.971
  102OSM    C1F10255   2.799   2.408   2.716
  102OSM     OF10256   2.863   2.304   2.714
  102OSM    C2F10257   2.660   2.419   2.770
  102OSM    H2F10258   2.591   2.360   2.705
  102OSM    H2G10259   2.628   2.525   2.767
  102OSM    C3F10260   2.654   2.369   2.915
  102OSM    H3F10261   2.745   2.399   2.971
  102OSM    H3G10262   2.655   2.258   2.915
  102OSM    C4F10263   2.530   2.420   2.988
  102OSM    H4F10264   2.441   2.398   2.925
  102OSM    H4G10265   2.536   2.531   3.001
  102OSM    C5F10266   2.511   2.353   3.124
  102OSM    H5F10267   2.520   2.243   3.108
  102OSM    H5G10268   2.409   2.373   3.162
  102OSM    C6F10269   2.612   2.394   3.232
  102OSM    H6F10270   2.587   2.495   3.271
  102OSM    H6G10271   2.715   2.397   3.191
  102OSM    C7F10272   2.613   2.289   3.343
  102OSM    H7F10273   2.688   2.212   3.316
  102OSM    H7G10274   2.512   2.242   3.340
  102OSM    C8F10275   2.642   2.340   3.484
  102OSM    H8F10276   2.578   2.428   3.507
  102OSM    H8G10277   2.748   2.372   3.492
  102OSM    C9F10278   2.607   2.222   3.571
  102OSM    H9F10279   2.499   2.197   3.572
  102OSM   C10F10280   2.690   2.144   3.641
  102OSM   H10F10281   2.648   2.058   3.695
  102OSM   C11F10282   2.840   2.157   3.650
  102OSM   H11F10283   2.883   2.218   3.569
  102OSM   H11G10284   2.889   2.057   3.646
  102OSM   C12F10285   2.871   2.224   3.785
  102OSM   H12F10286   2.823   2.325   3.787
  102OSM   H12G10287   2.981   2.241   3.791
  102OSM   C13F10288   2.826   2.144   3.908
  102OSM   H13F10289   2.895   2.059   3.923
  102OSM   H13G10290   2.724   2.102   3.895
  102OSM   C14F10291   2.823   2.232   4.033
  102OSM   H14F10292   2.795   2.169   4.121
  102OSM   H14G10293   2.745   2.311   4.022
  102OSM   C15F10294   2.959   2.298   4.058
  102OSM   H15F10295   2.987   2.367   3.976
  102OSM   H15G10296   3.034   2.216   4.061
  102OSM   C16F10297   2.964   2.372   4.191
  102OSM   H16F10298   3.070   2.377   4.224
  102OSM   H16G10299   2.905   2.312   4.264
  102OSM   C17F10300   2.909   2.515   4.190
  102OSM   H17F10301   2.886   2.538   4.296
  102OSM   H17G10302   2.814   2.519   4.133
  102OSM   C18F10303   3.008   2.620   4.138
  102OSM   H18F10304   3.041   2.595   4.035
  102OSM   H18G10305   3.096   2.626   4.205
  102OSM   H18H10306   2.960   2.721   4.135
  103OSM      N10307   5.071   4.093   2.047
  103OSM    C1510308   4.937   4.160   2.053
  103OSM   H15A10309   4.919   4.205   2.150
  103OSM   H15B10310   4.857   4.092   2.027
  103OSM   H15C10311   4.938   4.244   1.983
  103OSM    C1410312   5.077   3.980   2.143
  103OSM   H14A10313   5.047   4.012   2.242
  103OSM   H14B10314   5.180   3.946   2.152
  103OSM   H14C10315   5.016   3.896   2.111
  103OSM    C1310316   5.091   4.038   1.909
  103OSM   H13A10317   5.019   3.960   1.888
  103OSM   H13B10318   5.189   3.992   1.902
  103OSM   H13C10319   5.082   4.115   1.833
  103OSM    C1210320   5.180   4.197   2.075
  103OSM   H12A10321   5.162   4.246   2.170
  103OSM   H12B10322   5.168   4.275   1.999
  103OSM    C1110323   5.329   4.153   2.072
  103OSM   H11A10324   5.391   4.246   2.071
  103OSM   H11B10325   5.350   4.104   1.974
  103OSM      P10326   5.444   4.118   2.306
  103OSM    O1310327   5.498   4.001   2.378
  103OSM    O1410328   5.545   4.217   2.265
  103OSM    O1110329   5.334   4.180   2.400
  103OSM    O1210330   5.365   4.064   2.179
  103OSM    C1S10331   5.204   4.122   2.402
  103OSM    H1S10332   5.203   4.017   2.366
  103OSM    H1T10333   5.139   4.181   2.334
  103OSM     NF10334   5.129   4.253   2.597
  103OSM    HNF10335   5.200   4.285   2.659
  103OSM    C2S10336   5.142   4.119   2.544
  103OSM    H2S10337   5.040   4.074   2.537
  103OSM    C3S10338   5.230   4.027   2.633
  103OSM    H3S10339   5.332   4.069   2.644
  103OSM     O310340   5.245   3.898   2.575
  103OSM    HO310341   5.317   3.909   2.511
  103OSM    C4S10342   5.170   4.006   2.769
  103OSM    H4S10343   5.079   3.944   2.768
  103OSM    C5S10344   5.217   4.052   2.886
  103OSM    H5S10345   5.310   4.112   2.889
  103OSM    C6S10346   5.152   4.025   3.019
  103OSM    H6S10347   5.229   3.986   3.090
  103OSM    H6T10348   5.076   3.945   3.010
  103OSM    C7S10349   5.085   4.148   3.083
  103OSM    H7S10350   4.994   4.176   3.026
  103OSM    H7T10351   5.155   4.234   3.081
  103OSM    C8S10352   5.047   4.123   3.231
  103OSM    H8S10353   5.002   4.216   3.272
  103OSM    H8T10354   5.141   4.103   3.287
  103OSM    C9S10355   4.951   4.005   3.256
  103OSM    H9S10356   4.984   3.917   3.198
  103OSM    H9T10357   4.849   4.033   3.221
  103OSM   C10S10358   4.947   3.961   3.403
  103OSM   H10S10359   5.046   3.918   3.429
  103OSM   H10T10360   4.872   3.879   3.416
  103OSM   C11S10361   4.915   4.073   3.503
  103OSM   H11S10362   4.813   4.114   3.483
  103OSM   H11T10363   4.988   4.156   3.486
  103OSM   C12S10364   4.928   4.029   3.649
  103OSM   H12S10365   5.011   3.955   3.657
  103OSM   H12T10366   4.835   3.979   3.683
  103OSM   C13S10367   4.962   4.148   3.739
  103OSM   H13S10368   4.881   4.224   3.732
  103OSM   H13T10369   5.055   4.195   3.701
  103OSM   C14S10370   4.983   4.113   3.887
  103OSM   H14S10371   5.055   4.029   3.898
  103OSM   H14T10372   4.889   4.076   3.932
  103OSM   C15S10373   5.033   4.236   3.963
  103OSM   H15S10374   4.958   4.317   3.944
  103OSM   H15T10375   5.130   4.270   3.921
  103OSM   C16S10376   5.046   4.216   4.114
  103OSM   H16S10377   5.147   4.185   4.144
  103OSM   H16T10378   4.979   4.132   4.140
  103OSM   C17S10379   5.002   4.338   4.196
  103OSM   H17S10380   4.956   4.305   4.292
  103OSM   H17T10381   4.927   4.394   4.137
  103OSM   C18S10382   5.108   4.440   4.228
  103OSM   H18S10383   5.162   4.465   4.136
  103OSM   H18T10384   5.178   4.410   4.308
  103OSM   H18U10385   5.055   4.532   4.260
  103OSM    C1F10386   5.060   4.344   2.529
  103OSM     OF10387   4.977   4.308   2.445
  103OSM    C2F10388   5.090   4.491   2.553
  103OSM    H2F10389   5.022   4.529   2.631
  103OSM    H2G10390   5.067   4.546   2.459
  103OSM    C3F10391   5.236   4.525   2.596
  103OSM    H3F10392   5.244   4.637   2.594
  103OSM    H3G10393   5.307   4.486   2.520
  103OSM    C4F10394   5.275   4.479   2.737
  103OSM    H4F10395   5.294   4.370   2.736
  103OSM    H4G10396   5.190   4.499   2.807
  103OSM    C5F10397   5.401   4.541   2.796
  103OSM    H5F10398   5.378   4.644   2.833
  103OSM    H5G10399   5.481   4.550   2.720
  103OSM    C6F10400   5.448   4.452   2.912
  103OSM    H6F10401   5.488   4.355   2.874
  103OSM    H6G10402   5.357   4.430   2.972
  103OSM    C7F10403   5.551   4.519   3.004
  103OSM    H7F10404   5.507   4.619   3.020
  103OSM    H7G10405   5.649   4.530   2.953
  103OSM    C8F10406   5.570   4.454   3.142
  103OSM    H8F10407   5.645   4.511   3.200
  103OSM    H8G10408   5.612   4.352   3.130
  103OSM    C9F10409   5.437   4.458   3.212
  103OSM    H9F10410   5.391   4.558   3.220
  103OSM   C10F10411   5.373   4.355   3.268
  103OSM   H10F10412   5.275   4.372   3.315
  103OSM   C11F10413   5.422   4.213   3.275
  103OSM   H11F10414   5.529   4.201   3.246
  103OSM   H11G10415   5.363   4.150   3.205
  103OSM   C12F10416   5.405   4.164   3.420
  103OSM   H12F10417   5.317   4.212   3.468
  103OSM   H12G10418   5.495   4.192   3.480
  103OSM   C13F10419   5.383   4.014   3.429
  103OSM   H13F10420   5.482   3.964   3.434
  103OSM   H13G10421   5.331   3.979   3.336
  103OSM   C14F10422   5.295   3.974   3.548
  103OSM   H14F10423   5.255   3.871   3.531
  103OSM   H14G10424   5.208   4.042   3.554
  103OSM   C15F10425   5.373   3.974   3.679
  103OSM   H15F10426   5.423   4.072   3.696
  103OSM   H15G10427   5.452   3.895   3.673
  103OSM   C16F10428   5.285   3.943   3.800
  103OSM   H16F10429   5.202   3.874   3.772
  103OSM   H16G10430   5.242   4.038   3.837
  103OSM   C17F10431   5.366   3.876   3.910
  103OSM   H17F10432   5.448   3.944   3.942
  103OSM   H17G10433   5.413   3.785   3.868
  103OSM   C18F10434   5.283   3.839   4.030
  103OSM   H18F10435   5.236   3.930   4.073
  103OSM   H18G10436   5.343   3.790   4.110
  103OSM   H18H10437   5.203   3.769   3.998
  104OSM      N10438   4.770   2.233   2.142
  104OSM    C1510439   4.661   2.333   2.122
  104OSM   H15A10440   4.578   2.283   2.073
  104OSM   H15B10441   4.693   2.413   2.056
  104OSM   H15C10442   4.626   2.374   2.216
  104OSM    C1410443   4.722   2.128   2.237
  104OSM   H14A10444   4.626   2.087   2.205
  104OSM   H14B10445   4.715   2.161   2.339
  104OSM   H14C10446   4.790   2.042   2.236
  104OSM    C1310447   4.797   2.163   2.012
  104OSM   H13A10448   4.709   2.111   1.976
  104OSM   H13B10449   4.879   2.092   2.023
  104OSM   H13C10450   4.829   2.233   1.937
  104OSM    C1210451   4.899   2.298   2.191
  104OSM   H12A10452   4.877   2.353   2.282
  104OSM   H12B10453   4.931   2.370   2.117
  104OSM    C1110454   5.023   2.208   2.219
  104OSM   H11A10455   4.991   2.123   2.284
  104OSM   H11B10456   5.094   2.270   2.280
  104OSM      P10457   5.214   2.067   2.127
  104OSM    O1310458   5.311   2.063   2.016
  104OSM    O1410459   5.269   2.097   2.261
  104OSM    O1110460   5.140   1.926   2.134
  104OSM    O1210461   5.088   2.164   2.098
  104OSM    C1S10462   5.184   1.831   2.233
  104OSM    H1S10463   5.295   1.829   2.243
  104OSM    H1T10464   5.154   1.728   2.201
  104OSM     NF10465   5.196   1.802   2.479
  104OSM    HNF10466   5.158   1.725   2.530
  104OSM    C2S10467   5.119   1.862   2.371
  104OSM    H2S10468   5.120   1.971   2.389
  104OSM    C3S10469   4.971   1.813   2.371
  104OSM    H3S10470   4.966   1.704   2.349
  104OSM     O310471   4.892   1.882   2.276
  104OSM    HO310472   4.956   1.912   2.210
  104OSM    C4S10473   4.913   1.843   2.505
  104OSM    H4S10474   4.870   1.944   2.516
  104OSM    C5S10475   4.911   1.758   2.609
  104OSM    H5S10476   4.958   1.659   2.598
  104OSM    C6S10477   4.854   1.787   2.744
  104OSM    H6S10478   4.788   1.703   2.773
  104OSM    H6T10479   4.789   1.878   2.744
  104OSM    C7S10480   4.964   1.805   2.850
  104OSM    H7S10481   4.997   1.911   2.851
  104OSM    H7T10482   5.053   1.742   2.825
  104OSM    C8S10483   4.917   1.761   2.989
  104OSM    H8S10484   4.971   1.666   3.013
  104OSM    H8T10485   4.808   1.740   2.987
  104OSM    C9S10486   4.941   1.861   3.103
  104OSM    H9S10487   5.035   1.918   3.085
  104OSM    H9T10488   4.955   1.801   3.196
  104OSM   C10S10489   4.821   1.955   3.123
  104OSM   H10S10490   4.729   1.894   3.140
  104OSM   H10T10491   4.806   2.013   3.029
  104OSM   C11S10492   4.838   2.053   3.239
  104OSM   H11S10493   4.752   2.123   3.241
  104OSM   H11T10494   4.930   2.113   3.221
  104OSM   C12S10495   4.849   1.986   3.377
  104OSM   H12S10496   4.929   1.908   3.374
  104OSM   H12T10497   4.754   1.936   3.403
  104OSM   C13S10498   4.889   2.086   3.486
  104OSM   H13S10499   4.810   2.164   3.498
  104OSM   H13T10500   4.982   2.138   3.452
  104OSM   C14S10501   4.919   2.021   3.622
  104OSM   H14S10502   4.975   2.098   3.681
  104OSM   H14T10503   4.986   1.934   3.609
  104OSM   C15S10504   4.794   1.978   3.700
  104OSM   H15S10505   4.745   1.892   3.648
  104OSM   H15T10506   4.721   2.063   3.699
  104OSM   C16S10507   4.821   1.940   3.846
  104OSM   H16S10508   4.875   1.842   3.850
  104OSM   H16T10509   4.723   1.926   3.896
  104OSM   C17S10510   4.902   2.044   3.925
  104OSM   H17S10511   4.863   2.146   3.899
  104OSM   H17T10512   5.009   2.041   3.893
  104OSM   C18S10513   4.894   2.025   4.077
  104OSM   H18S10514   4.940   2.111   4.130
  104OSM   H18T10515   4.947   1.933   4.108
  104OSM   H18U10516   4.788   2.017   4.108
  104OSM    C1F10517   5.312   1.847   2.524
  104OSM     OF10518   5.394   1.907   2.456
  104OSM    C2F10519   5.340   1.806   2.664
  104OSM    H2F10520   5.402   1.715   2.656
  104OSM    H2G10521   5.243   1.782   2.712
  104OSM    C3F10522   5.420   1.892   2.764
  104OSM    H3F10523   5.357   1.977   2.799
  104OSM    H3G10524   5.511   1.932   2.717
  104OSM    C4F10525   5.453   1.794   2.880
  104OSM    H4F10526   5.540   1.731   2.849
  104OSM    H4G10527   5.367   1.722   2.892
  104OSM    C5F10528   5.477   1.855   3.017
  104OSM    H5F10529   5.546   1.941   3.004
  104OSM    H5G10530   5.528   1.779   3.082
  104OSM    C6F10531   5.351   1.903   3.089
  104OSM    H6F10532   5.298   1.815   3.132
  104OSM    H6G10533   5.283   1.950   3.016
  104OSM    C7F10534   5.389   2.005   3.198
  104OSM    H7F10535   5.447   2.087   3.150
  104OSM    H7G10536   5.459   1.956   3.271
  104OSM    C8F10537   5.268   2.067   3.269
  104OSM    H8F10538   5.183   2.073   3.197
  104OSM    H8G10539   5.291   2.169   3.304
  104OSM    C9F10540   5.231   1.976   3.381
  104OSM    H9F10541   5.183   1.889   3.341
  104OSM   C10F10542   5.250   1.988   3.513
  104OSM   H10F10543   5.214   1.909   3.581
  104OSM   C11F10544   5.318   2.103   3.581
  104OSM   H11F10545   5.243   2.153   3.646
  104OSM   H11G10546   5.354   2.179   3.508
  104OSM   C12F10547   5.438   2.058   3.665
  104OSM   H12F10548   5.513   2.007   3.600
  104OSM   H12G10549   5.406   1.985   3.743
  104OSM   C13F10550   5.506   2.178   3.734
  104OSM   H13F10551   5.551   2.242   3.655
  104OSM   H13G10552   5.590   2.142   3.798
  104OSM   C14F10553   5.408   2.264   3.816
  104OSM   H14F10554   5.336   2.311   3.746
  104OSM   H14G10555   5.463   2.348   3.862
  104OSM   C15F10556   5.330   2.192   3.927
  104OSM   H15F10557   5.276   2.104   3.887
  104OSM   H15G10558   5.252   2.264   3.962
  104OSM   C16F10559   5.413   2.152   4.050
  104OSM   H16F10560   5.344   2.147   4.137
  104OSM   H16G10561   5.489   2.231   4.073
  104OSM   C17F10562   5.481   2.016   4.039
  104OSM   H17F10563   5.565   2.021   3.965
  104OSM   H17G10564   5.408   1.942   3.999
  104OSM   C18F10565   5.535   1.965   4.172
  104OSM   H18F10566   5.454   1.957   4.248
  104OSM   H18G10567   5.613   2.034   4.211
  104OSM   H18H10568   5.581   1.864   4.159
  105OSM      N10569   1.558   2.050   2.047
  105OSM    C1510570   1.502   1.911   2.039
  105OSM   H15A10571   1.405   1.900   2.085
  105OSM   H15B10572   1.569   1.838   2.085
  105OSM   H15C10573   1.493   1.882   1.934
  105OSM    C1410574   1.690   2.050   1.977
  105OSM   H14A10575   1.679   2.041   1.870
  105OSM   H14B10576   1.754   1.971   2.012
  105OSM   H14C10577   1.739   2.146   1.992
  105OSM    C1310578   1.470   2.148   1.976
  105OSM   H13A10579   1.370   2.155   2.015
  105OSM   H13B10580   1.464   2.124   1.870
  105OSM   H13C10581   1.515   2.247   1.985
  105OSM    C1210582   1.578   2.094   2.191
  105OSM   H12A10583   1.654   2.028   2.233
  105OSM   H12B10584   1.487   2.076   2.246
  105OSM    C1110585   1.626   2.240   2.218
  105OSM   H11A10586   1.646   2.251   2.327
  105OSM   H11B10587   1.542   2.311   2.196
  105OSM      P10588   1.886   2.236   2.193
  105OSM    O1310589   1.978   2.221   2.079
  105OSM    O1410590   1.925   2.329   2.299
  105OSM    O1110591   1.869   2.092   2.260
  105OSM    O1210592   1.740   2.275   2.140
  105OSM    C1S10593   1.973   2.051   2.353
  105OSM    H1S10594   2.060   2.121   2.356
  105OSM    H1T10595   2.011   1.952   2.322
  105OSM     NF10596   2.030   2.016   2.594
  105OSM    HNF10597   2.052   1.922   2.618
  105OSM    C2S10598   1.920   2.039   2.500
  105OSM    H2S10599   1.870   2.135   2.525
  105OSM    C3S10600   1.816   1.924   2.508
  105OSM    H3S10601   1.870   1.827   2.519
  105OSM     O310602   1.737   1.910   2.390
  105OSM    HO310603   1.777   1.977   2.333
  105OSM    C4S10604   1.728   1.947   2.629
  105OSM    H4S10605   1.622   1.965   2.607
  105OSM    C5S10606   1.774   1.945   2.757
  105OSM    H5S10607   1.880   1.921   2.772
  105OSM    C6S10608   1.700   1.965   2.887
  105OSM    H6S10609   1.704   1.865   2.930
  105OSM    H6T10610   1.593   1.990   2.871
  105OSM    C7S10611   1.759   2.046   3.006
  105OSM    H7S10612   1.755   2.154   2.980
  105OSM    H7T10613   1.865   2.018   3.019
  105OSM    C8S10614   1.686   2.022   3.142
  105OSM    H8S10615   1.589   1.971   3.125
  105OSM    H8T10616   1.663   2.122   3.185
  105OSM    C9S10617   1.767   1.945   3.250
  105OSM    H9S10618   1.850   2.013   3.280
  105OSM    H9T10619   1.813   1.854   3.205
  105OSM   C10S10620   1.696   1.904   3.382
  105OSM   H10S10621   1.652   1.803   3.372
  105OSM   H10T10622   1.615   1.976   3.404
  105OSM   C11S10623   1.792   1.899   3.503
  105OSM   H11S10624   1.830   2.002   3.520
  105OSM   H11T10625   1.879   1.834   3.476
  105OSM   C12S10626   1.734   1.845   3.635
  105OSM   H12S10627   1.732   1.734   3.631
  105OSM   H12T10628   1.629   1.880   3.645
  105OSM   C13S10629   1.811   1.889   3.762
  105OSM   H13S10630   1.766   1.843   3.853
  105OSM   H13T10631   1.793   1.998   3.771
  105OSM   C14S10632   1.963   1.860   3.759
  105OSM   H14S10633   2.002   1.898   3.662
  105OSM   H14T10634   1.979   1.750   3.761
  105OSM   C15S10635   2.051   1.928   3.867
  105OSM   H15S10636   2.157   1.903   3.842
  105OSM   H15T10637   2.031   1.886   3.968
  105OSM   C16S10638   2.039   2.081   3.865
  105OSM   H16S10639   1.936   2.113   3.842
  105OSM   H16T10640   2.106   2.116   3.785
  105OSM   C17S10641   2.084   2.163   3.987
  105OSM   H17S10642   2.002   2.166   4.062
  105OSM   H17T10643   2.098   2.268   3.950
  105OSM   C18S10644   2.212   2.116   4.053
  105OSM   H18S10645   2.290   2.093   3.977
  105OSM   H18T10646   2.192   2.024   4.113
  105OSM   H18U10647   2.251   2.194   4.122
  105OSM    C1F10648   2.101   2.117   2.646
  105OSM     OF10649   2.087   2.232   2.610
  105OSM    C2F10650   2.199   2.084   2.753
  105OSM    H2F10651   2.270   2.169   2.763
  105OSM    H2G10652   2.257   1.993   2.725
  105OSM    C3F10653   2.131   2.062   2.889
  105OSM    H3F10654   2.049   1.988   2.884
  105OSM    H3G10655   2.088   2.159   2.924
  105OSM    C4F10656   2.235   2.013   2.990
  105OSM    H4F10657   2.336   2.042   2.953
  105OSM    H4G10658   2.231   1.902   2.994
  105OSM    C5F10659   2.219   2.069   3.131
  105OSM    H5F10660   2.181   2.174   3.126
  105OSM    H5G10661   2.318   2.072   3.182
  105OSM    C6F10662   2.125   1.979   3.210
  105OSM    H6F10663   2.152   1.872   3.196
  105OSM    H6G10664   2.022   1.993   3.169
  105OSM    C7F10665   2.125   2.009   3.360
  105OSM    H7F10666   2.223   1.981   3.405
  105OSM    H7G10667   2.048   1.944   3.407
  105OSM    C8F10668   2.095   2.157   3.387
  105OSM    H8F10669   2.022   2.192   3.311
  105OSM    H8G10670   2.189   2.214   3.371
  105OSM    C9F10671   2.045   2.181   3.526
  105OSM    H9F10672   2.100   2.122   3.600
  105OSM   C10F10673   1.937   2.253   3.563
  105OSM   H10F10674   1.913   2.264   3.670
  105OSM   C11F10675   1.844   2.325   3.469
  105OSM   H11F10676   1.842   2.274   3.370
  105OSM   H11G10677   1.882   2.428   3.449
  105OSM   C12F10678   1.696   2.330   3.514
  105OSM   H12F10679   1.650   2.230   3.501
  105OSM   H12G10680   1.646   2.398   3.441
  105OSM   C13F10681   1.668   2.383   3.656
  105OSM   H13F10682   1.588   2.461   3.649
  105OSM   H13G10683   1.759   2.434   3.695
  105OSM   C14F10684   1.621   2.279   3.761
  105OSM   H14F10685   1.693   2.195   3.763
  105OSM   H14G10686   1.522   2.239   3.731
  105OSM   C15F10687   1.612   2.345   3.900
  105OSM   H15F10688   1.523   2.411   3.902
  105OSM   H15G10689   1.701   2.410   3.909
  105OSM   C16F10690   1.613   2.256   4.026
  105OSM   H16F10691   1.682   2.170   4.011
  105OSM   H16G10692   1.511   2.215   4.045
  105OSM   C17F10693   1.660   2.335   4.152
  105OSM   H17F10694   1.623   2.282   4.243
  105OSM   H17G10695   1.614   2.436   4.153
  105OSM   C18F10696   1.812   2.347   4.163
  105OSM   H18F10697   1.856   2.246   4.179
  105OSM   H18G10698   1.843   2.410   4.249
  105OSM   H18H10699   1.856   2.391   4.071
  106OSM      N10700   6.292   2.830   1.965
  106OSM    C1510701   6.406   2.863   1.876
  106OSM   H15A10702   6.384   2.951   1.817
  106OSM   H15B10703   6.428   2.781   1.809
  106OSM   H15C10704   6.495   2.886   1.933
  106OSM    C1410705   6.163   2.838   1.890
  106OSM   H14A10706   6.079   2.825   1.959
  106OSM   H14B10707   6.158   2.756   1.818
  106OSM   H14C10708   6.150   2.931   1.838
  106OSM    C1310709   6.304   2.687   2.011
  106OSM   H13A10710   6.398   2.666   2.059
  106OSM   H13B10711   6.286   2.617   1.930
  106OSM   H13C10712   6.224   2.668   2.082
  106OSM    C1210713   6.286   2.921   2.088
  106OSM   H12A10714   6.306   3.024   2.061
  106OSM   H12B10715   6.366   2.891   2.155
  106OSM    C1110716   6.157   2.915   2.172
  106OSM   H11A10717   6.070   2.953   2.113
  106OSM   H11B10718   6.169   2.981   2.261
  106OSM      P10719   6.013   2.727   2.291
  106OSM    O1310720   5.906   2.827   2.281
  106OSM    O1410721   5.981   2.590   2.247
  106OSM    O1110722   6.070   2.734   2.435
  106OSM    O1210723   6.136   2.780   2.210
  106OSM    C1S10724   6.059   2.627   2.526
  106OSM    H1S10725   6.111   2.537   2.487
  106OSM    H1T10726   5.952   2.602   2.548
  106OSM     NF10727   6.052   2.749   2.741
  106OSM    HNF10728   6.072   2.846   2.743
  106OSM    C2S10729   6.133   2.672   2.652
  106OSM    H2S10730   6.165   2.579   2.704
  106OSM    C3S10731   6.253   2.761   2.619
  106OSM    H3S10732   6.213   2.863   2.596
  106OSM     O310733   6.333   2.725   2.507
  106OSM    HO310734   6.267   2.729   2.436
  106OSM    C4S10735   6.325   2.769   2.748
  106OSM    H4S10736   6.295   2.689   2.817
  106OSM    C5S10737   6.418   2.853   2.792
  106OSM    H5S10738   6.458   2.935   2.730
  106OSM    C6S10739   6.471   2.837   2.930
  106OSM    H6S10740   6.503   2.933   2.974
  106OSM    H6T10741   6.566   2.781   2.920
  106OSM    C7S10742   6.384   2.755   3.030
  106OSM    H7S10743   6.454   2.761   3.112
  106OSM    H7T10744   6.374   2.649   3.001
  106OSM    C8S10745   6.255   2.791   3.106
  106OSM    H8S10746   6.185   2.710   3.078
  106OSM    H8T10747   6.210   2.888   3.080
  106OSM    C9S10748   6.278   2.779   3.258
  106OSM    H9S10749   6.286   2.879   3.307
  106OSM    H9T10750   6.374   2.726   3.272
  106OSM   C10S10751   6.197   2.681   3.343
  106OSM   H10S10752   6.160   2.594   3.283
  106OSM   H10T10753   6.112   2.736   3.381
  106OSM   C11S10754   6.277   2.635   3.466
  106OSM   H11S10755   6.359   2.710   3.480
  106OSM   H11T10756   6.325   2.537   3.447
  106OSM   C12S10757   6.200   2.635   3.598
  106OSM   H12S10758   6.169   2.531   3.623
  106OSM   H12T10759   6.108   2.696   3.595
  106OSM   C13S10760   6.286   2.691   3.711
  106OSM   H13S10761   6.387   2.644   3.707
  106OSM   H13T10762   6.239   2.657   3.806
  106OSM   C14S10763   6.302   2.845   3.721
  106OSM   H14S10764   6.203   2.895   3.715
  106OSM   H14T10765   6.364   2.885   3.638
  106OSM   C15S10766   6.362   2.863   3.860
  106OSM   H15S10767   6.447   2.792   3.867
  106OSM   H15T10768   6.282   2.822   3.922
  106OSM   C16S10769   6.396   2.992   3.936
  106OSM   H16S10770   6.304   3.050   3.957
  106OSM   H16T10771   6.463   3.057   3.877
  106OSM   C17S10772   6.468   2.947   4.067
  106OSM   H17S10773   6.575   2.949   4.043
  106OSM   H17T10774   6.451   2.839   4.082
  106OSM   C18S10775   6.448   3.016   4.203
  106OSM   H18S10776   6.531   2.993   4.274
  106OSM   H18T10777   6.357   2.980   4.255
  106OSM   H18U10778   6.442   3.126   4.193
  106OSM    C1F10779   5.952   2.705   2.810
  106OSM     OF10780   5.930   2.588   2.830
  106OSM    C2F10781   5.870   2.814   2.861
  106OSM    H2F10782   5.774   2.768   2.894
  106OSM    H2G10783   5.856   2.888   2.780
  106OSM    C3F10784   5.935   2.881   2.981
  106OSM    H3F10785   5.877   2.973   3.006
  106OSM    H3G10786   6.040   2.912   2.960
  106OSM    C4F10787   5.922   2.781   3.093
  106OSM    H4F10788   5.990   2.694   3.083
  106OSM    H4G10789   5.820   2.737   3.086
  106OSM    C5F10790   5.929   2.841   3.231
  106OSM    H5F10791   5.870   2.935   3.238
  106OSM    H5G10792   6.033   2.868   3.258
  106OSM    C6F10793   5.870   2.732   3.318
  106OSM    H6F10794   5.925   2.636   3.300
  106OSM    H6G10795   5.764   2.712   3.289
  106OSM    C7F10796   5.875   2.766   3.463
  106OSM    H7F10797   5.813   2.856   3.481
  106OSM    H7G10798   5.976   2.803   3.492
  106OSM    C8F10799   5.835   2.644   3.545
  106OSM    H8F10800   5.908   2.560   3.531
  106OSM    H8G10801   5.733   2.608   3.517
  106OSM    C9F10802   5.842   2.702   3.681
  106OSM    H9F10803   5.865   2.808   3.682
  106OSM   C10F10804   5.827   2.645   3.799
  106OSM   H10F10805   5.828   2.714   3.884
  106OSM   C11F10806   5.798   2.503   3.831
  106OSM   H11F10807   5.874   2.463   3.902
  106OSM   H11G10808   5.798   2.437   3.741
  106OSM   C12F10809   5.660   2.501   3.897
  106OSM   H12F10810   5.645   2.399   3.939
  106OSM   H12G10811   5.584   2.519   3.818
  106OSM   C13F10812   5.634   2.606   4.008
  106OSM   H13F10813   5.542   2.574   4.062
  106OSM   H13G10814   5.609   2.703   3.959
  106OSM   C14F10815   5.744   2.631   4.113
  106OSM   H14F10816   5.841   2.665   4.069
  106OSM   H14G10817   5.766   2.536   4.165
  106OSM   C15F10818   5.694   2.737   4.211
  106OSM   H15F10819   5.596   2.699   4.246
  106OSM   H15G10820   5.678   2.834   4.158
  106OSM   C16F10821   5.783   2.765   4.334
  106OSM   H16F10822   5.860   2.841   4.307
  106OSM   H16G10823   5.837   2.672   4.357
  106OSM   C17F10824   5.710   2.809   4.462
  106OSM   H17F10825   5.765   2.899   4.498
  106OSM   H17G10826   5.723   2.734   4.543
  106OSM   C18F10827   5.561   2.846   4.452
  106OSM   H18F10828   5.531   2.873   4.349
  106OSM   H18G10829   5.536   2.933   4.516
  106OSM   H18H10830   5.500   2.761   4.488
  107OSM      N10831   6.731   3.627   2.028
  107OSM    C1510832   6.769   3.502   2.100
  107OSM   H15A10833   6.817   3.523   2.194
  107OSM   H15B10834   6.828   3.435   2.039
  107OSM   H15C10835   6.678   3.448   2.126
  107OSM    C1410836   6.854   3.695   1.979
  107OSM   H14A10837   6.828   3.783   1.921
  107OSM   H14B10838   6.915   3.627   1.920
  107OSM   H14C10839   6.914   3.728   2.064
  107OSM    C1310840   6.645   3.584   1.914
  107OSM   H13A10841   6.595   3.668   1.869
  107OSM   H13B10842   6.566   3.517   1.951
  107OSM   H13C10843   6.702   3.527   1.841
  107OSM    C1210844   6.651   3.721   2.120
  107OSM   H12A10845   6.596   3.792   2.058
  107OSM   H12B10846   6.721   3.779   2.180
  107OSM    C1110847   6.547   3.663   2.218
  107OSM   H11A10848   6.492   3.748   2.266
  107OSM   H11B10849   6.600   3.608   2.299
  107OSM      P10850   6.418   3.436   2.188
  107OSM    O1310851   6.342   3.382   2.072
  107OSM    O1410852   6.544   3.363   2.217
  107OSM    O1110853   6.334   3.451   2.318
  107OSM    O1210854   6.452   3.584   2.150
  107OSM    C1S10855   6.339   3.347   2.415
  107OSM    H1S10856   6.398   3.256   2.387
  107OSM    H1T10857   6.235   3.311   2.432
  107OSM     NF10858   6.328   3.319   2.651
  107OSM    HNF10859   6.236   3.354   2.669
  107OSM    C2S10860   6.395   3.397   2.550
  107OSM    H2S10861   6.504   3.376   2.556
  107OSM    C3S10862   6.375   3.551   2.571
  107OSM    H3S10863   6.282   3.588   2.525
  107OSM     O310864   6.480   3.634   2.523
  107OSM    HO310865   6.472   3.625   2.428
  107OSM    C4S10866   6.374   3.573   2.718
  107OSM    H4S10867   6.469   3.546   2.765
  107OSM    C5S10868   6.271   3.617   2.791
  107OSM    H5S10869   6.178   3.646   2.739
  107OSM    C6S10870   6.280   3.634   2.940
  107OSM    H6S10871   6.266   3.534   2.988
  107OSM    H6T10872   6.199   3.699   2.977
  107OSM    C7S10873   6.416   3.692   2.981
  107OSM    H7S10874   6.427   3.791   2.934
  107OSM    H7T10875   6.501   3.630   2.944
  107OSM    C8S10876   6.434   3.706   3.132
  107OSM    H8S10877   6.337   3.725   3.183
  107OSM    H8T10878   6.500   3.792   3.152
  107OSM    C9S10879   6.503   3.584   3.190
  107OSM    H9S10880   6.577   3.545   3.117
  107OSM    H9T10881   6.420   3.510   3.200
  107OSM   C10S10882   6.578   3.602   3.323
  107OSM   H10S10883   6.628   3.702   3.326
  107OSM   H10T10884   6.659   3.525   3.325
  107OSM   C11S10885   6.490   3.579   3.446
  107OSM   H11S10886   6.424   3.493   3.422
  107OSM   H11T10887   6.422   3.665   3.462
  107OSM   C12S10888   6.568   3.547   3.574
  107OSM   H12S10889   6.613   3.639   3.616
  107OSM   H12T10890   6.654   3.480   3.549
  107OSM   C13S10891   6.481   3.476   3.680
  107OSM   H13S10892   6.521   3.377   3.707
  107OSM   H13T10893   6.381   3.456   3.636
  107OSM   C14S10894   6.469   3.559   3.806
  107OSM   H14S10895   6.412   3.649   3.773
  107OSM   H14T10896   6.568   3.598   3.833
  107OSM   C15S10897   6.399   3.506   3.933
  107OSM   H15S10898   6.296   3.542   3.922
  107OSM   H15T10899   6.443   3.556   4.021
  107OSM   C16S10900   6.371   3.361   3.971
  107OSM   H16S10901   6.458   3.305   4.007
  107OSM   H16T10902   6.318   3.307   3.889
  107OSM   C17S10903   6.288   3.363   4.100
  107OSM   H17S10904   6.224   3.453   4.101
  107OSM   H17T10905   6.358   3.369   4.187
  107OSM   C18S10906   6.199   3.243   4.113
  107OSM   H18S10907   6.149   3.222   4.016
  107OSM   H18T10908   6.123   3.268   4.191
  107OSM   H18U10909   6.249   3.151   4.143
  107OSM    C1F10910   6.343   3.191   2.670
  107OSM     OF10911   6.427   3.128   2.609
  107OSM    C2F10912   6.245   3.132   2.764
  107OSM    H2F10913   6.214   3.033   2.724
  107OSM    H2G10914   6.155   3.193   2.775
  107OSM    C3F10915   6.314   3.116   2.899
  107OSM    H3F10916   6.420   3.089   2.881
  107OSM    H3G10917   6.264   3.032   2.951
  107OSM    C4F10918   6.322   3.233   2.996
  107OSM    H4F10919   6.223   3.266   3.031
  107OSM    H4G10920   6.377   3.319   2.951
  107OSM    C5F10921   6.398   3.171   3.112
  107OSM    H5F10922   6.494   3.132   3.071
  107OSM    H5G10923   6.340   3.084   3.149
  107OSM    C6F10924   6.434   3.258   3.229
  107OSM    H6F10925   6.344   3.299   3.281
  107OSM    H6G10926   6.502   3.338   3.195
  107OSM    C7F10927   6.516   3.169   3.320
  107OSM    H7F10928   6.601   3.126   3.261
  107OSM    H7G10929   6.445   3.087   3.343
  107OSM    C8F10930   6.574   3.238   3.443
  107OSM    H8F10931   6.506   3.321   3.468
  107OSM    H8G10932   6.676   3.279   3.423
  107OSM    C9F10933   6.569   3.135   3.550
  107OSM    H9F10934   6.506   3.049   3.522
  107OSM   C10F10935   6.628   3.128   3.669
  107OSM   H10F10936   6.609   3.039   3.731
  107OSM   C11F10937   6.721   3.223   3.736
  107OSM   H11F10938   6.722   3.320   3.683
  107OSM   H11G10939   6.823   3.182   3.735
  107OSM   C12F10940   6.671   3.249   3.880
  107OSM   H12F10941   6.562   3.249   3.868
  107OSM   H12G10942   6.696   3.350   3.915
  107OSM   C13F10943   6.703   3.145   3.989
  107OSM   H13F10944   6.702   3.051   3.932
  107OSM   H13G10945   6.619   3.148   4.061
  107OSM   C14F10946   6.827   3.158   4.078
  107OSM   H14F10947   6.871   3.254   4.053
  107OSM   H14G10948   6.899   3.076   4.056
  107OSM   C15F10949   6.808   3.156   4.230
  107OSM   H15F10950   6.903   3.121   4.277
  107OSM   H15G10951   6.728   3.085   4.259
  107OSM   C16F10952   6.782   3.298   4.282
  107OSM   H16F10953   6.871   3.361   4.258
  107OSM   H16G10954   6.772   3.296   4.393
  107OSM   C17F10955   6.662   3.366   4.218
  107OSM   H17F10956   6.569   3.307   4.239
  107OSM   H17G10957   6.673   3.374   4.109
  107OSM   C18F10958   6.650   3.507   4.271
  107OSM   H18F10959   6.732   3.573   4.236
  107OSM   H18G10960   6.664   3.495   4.379
  107OSM   H18H10961   6.552   3.553   4.249
  108OSM      N10962   0.366   3.011   2.080
  108OSM    C1510963   0.431   3.079   1.964
  108OSM   H15A10964   0.380   3.060   1.872
  108OSM   H15B10965   0.534   3.043   1.960
  108OSM   H15C10966   0.435   3.186   1.979
  108OSM    C1410967   0.447   3.045   2.200
  108OSM   H14A10968   0.409   3.003   2.294
  108OSM   H14B10969   0.455   3.152   2.215
  108OSM   H14C10970   0.546   3.002   2.189
  108OSM    C1310971   0.228   3.060   2.102
  108OSM   H13A10972   0.167   3.053   2.013
  108OSM   H13B10973   0.229   3.164   2.133
  108OSM   H13C10974   0.177   3.009   2.184
  108OSM    C1210975   0.357   2.861   2.064
  108OSM   H12A10976   0.284   2.841   1.987
  108OSM   H12B10977   0.316   2.825   2.158
  108OSM    C1110978   0.485   2.778   2.035
  108OSM   H11A10979   0.530   2.809   1.938
  108OSM   H11B10980   0.453   2.671   2.023
  108OSM      P10981   0.650   2.682   2.219
  108OSM    O1310982   0.581   2.651   2.346
  108OSM    O1410983   0.680   2.567   2.129
  108OSM    O1110984   0.786   2.756   2.254
  108OSM    O1210985   0.579   2.796   2.139
  108OSM    C1S10986   0.774   2.892   2.303
  108OSM    H1S10987   0.695   2.951   2.254
  108OSM    H1T10988   0.868   2.946   2.278
  108OSM     NF10989   0.737   3.040   2.498
  108OSM    HNF10990   0.818   3.095   2.516
  108OSM    C2S10991   0.757   2.902   2.457
  108OSM    H2S10992   0.668   2.841   2.488
  108OSM    C3S10993   0.882   2.847   2.524
  108OSM    H3S10994   0.968   2.911   2.495
  108OSM     O310995   0.918   2.714   2.491
  108OSM    HO310996   0.844   2.683   2.437
  108OSM    C4S10997   0.866   2.859   2.674
  108OSM    H4S10998   0.935   2.930   2.719
  108OSM    C5S10999   0.778   2.795   2.752
  108OSM    H5S11000   0.705   2.726   2.705
  108OSM    C6S11001   0.764   2.806   2.901
  108OSM    H6S11002   0.794   2.705   2.937
  108OSM    H6T11003   0.657   2.816   2.927
  108OSM    C7S11004   0.845   2.901   2.994
  108OSM    H7S11005   0.797   3.000   3.003
  108OSM    H7T11006   0.946   2.923   2.956
  108OSM    C8S11007   0.851   2.841   3.135
  108OSM    H8S11008   0.919   2.753   3.135
  108OSM    H8T11009   0.749   2.803   3.160
  108OSM    C9S11010   0.891   2.939   3.246
  108OSM    H9S11011   0.825   3.029   3.240
  108OSM    H9T11012   0.995   2.973   3.228
  108OSM   C10S11013   0.879   2.879   3.388
  108OSM   H10S11014   0.943   2.940   3.453
  108OSM   H10T11015   0.919   2.776   3.393
  108OSM   C11S11016   0.735   2.884   3.442
  108OSM   H11S11017   0.667   2.835   3.369
  108OSM   H11T11018   0.709   2.992   3.445
  108OSM   C12S11019   0.708   2.822   3.581
  108OSM   H12S11020   0.699   2.712   3.571
  108OSM   H12T11021   0.609   2.860   3.616
  108OSM   C13S11022   0.812   2.854   3.689
  108OSM   H13S11023   0.841   2.962   3.679
  108OSM   H13T11024   0.904   2.793   3.672
  108OSM   C14S11025   0.761   2.833   3.832
  108OSM   H14S11026   0.734   2.727   3.851
  108OSM   H14T11027   0.669   2.893   3.845
  108OSM   C15S11028   0.863   2.881   3.937
  108OSM   H15S11029   0.922   2.964   3.895
  108OSM   H15T11030   0.936   2.800   3.957
  108OSM   C16S11031   0.799   2.926   4.068
  108OSM   H16S11032   0.688   2.922   4.060
  108OSM   H16T11033   0.826   3.031   4.091
  108OSM   C17S11034   0.845   2.834   4.182
  108OSM   H17S11035   0.954   2.846   4.196
  108OSM   H17T11036   0.827   2.730   4.147
  108OSM   C18S11037   0.772   2.857   4.314
  108OSM   H18S11038   0.786   2.961   4.348
  108OSM   H18T11039   0.811   2.789   4.392
  108OSM   H18U11040   0.663   2.839   4.302
  108OSM    C1F11041   0.615   3.086   2.521
  108OSM     OF11042   0.519   3.033   2.471
  108OSM    C2F11043   0.604   3.201   2.614
  108OSM    H2F11044   0.572   3.289   2.553
  108OSM    H2G11045   0.703   3.222   2.660
  108OSM    C3F11046   0.497   3.184   2.725
  108OSM    H3F11047   0.401   3.202   2.672
  108OSM    H3G11048   0.510   3.266   2.799
  108OSM    C4F11049   0.486   3.049   2.798
  108OSM    H4F11050   0.550   2.970   2.753
  108OSM    H4G11051   0.381   3.014   2.782
  108OSM    C5F11052   0.508   3.055   2.951
  108OSM    H5F11053   0.491   3.158   2.990
  108OSM    H5G11054   0.613   3.032   2.972
  108OSM    C6F11055   0.416   2.959   3.029
  108OSM    H6F11056   0.368   2.888   2.958
  108OSM    H6G11057   0.336   3.023   3.071
  108OSM    C7F11058   0.481   2.875   3.141
  108OSM    H7F11059   0.551   2.939   3.199
  108OSM    H7G11060   0.542   2.793   3.097
  108OSM    C8F11061   0.379   2.807   3.237
  108OSM    H8F11062   0.433   2.769   3.326
  108OSM    H8G11063   0.338   2.718   3.185
  108OSM    C9F11064   0.263   2.895   3.280
  108OSM    H9F11065   0.164   2.866   3.241
  108OSM   C10F11066   0.274   3.005   3.355
  108OSM   H10F11067   0.184   3.063   3.380
  108OSM   C11F11068   0.402   3.059   3.411
  108OSM   H11F11069   0.424   3.158   3.366
  108OSM   H11G11070   0.490   2.995   3.387
  108OSM   C12F11071   0.395   3.070   3.563
  108OSM   H12F11072   0.394   2.968   3.607
  108OSM   H12G11073   0.301   3.120   3.595
  108OSM   C13F11074   0.515   3.149   3.613
  108OSM   H13F11075   0.506   3.256   3.583
  108OSM   H13G11076   0.607   3.111   3.566
  108OSM   C14F11077   0.531   3.141   3.764
  108OSM   H14F11078   0.631   3.183   3.790
  108OSM   H14G11079   0.529   3.035   3.797
  108OSM   C15F11080   0.421   3.221   3.833
  108OSM   H15F11081   0.327   3.163   3.838
  108OSM   H15G11082   0.398   3.308   3.768
  108OSM   C16F11083   0.466   3.276   3.969
  108OSM   H16F11084   0.405   3.366   3.993
  108OSM   H16G11085   0.571   3.313   3.959
  108OSM   C17F11086   0.457   3.177   4.086
  108OSM   H17F11087   0.424   3.234   4.176
  108OSM   H17G11088   0.559   3.139   4.108
  108OSM   C18F11089   0.362   3.058   4.064
  108OSM   H18F11090   0.259   3.094   4.042
  108OSM   H18G11091   0.359   2.992   4.153
  108OSM   H18H11092   0.398   2.997   3.979
  109OSM      N11093   1.648   6.351   1.935
  109OSM    C1511094   1.587   6.337   1.800
  109OSM   H15A11095   1.484   6.306   1.807
  109OSM   H15B11096   1.644   6.264   1.743
  109OSM   H15C11097   1.596   6.430   1.744
  109OSM    C1411098   1.681   6.215   1.989
  109OSM   H14A11099   1.593   6.153   1.998
  109OSM   H14B11100   1.721   6.224   2.091
  109OSM   H14C11101   1.752   6.160   1.929
  109OSM    C1311102   1.775   6.426   1.912
  109OSM   H13A11103   1.839   6.375   1.841
  109OSM   H13B11104   1.830   6.437   2.004
  109OSM   H13C11105   1.755   6.524   1.870
  109OSM    C1211106   1.562   6.427   2.033
  109OSM   H12A11107   1.470   6.372   2.053
  109OSM   H12B11108   1.533   6.524   1.993
  109OSM    C1111109   1.626   6.445   2.171
  109OSM   H11A11110   1.579   6.532   2.223
  109OSM   H11B11111   1.735   6.466   2.167
  109OSM      P11112   1.469   6.300   2.316
  109OSM    O1311113   1.362   6.334   2.218
  109OSM    O1411114   1.463   6.164   2.371
  109OSM    O1111115   1.477   6.409   2.432
  109OSM    O1211116   1.606   6.322   2.240
  109OSM    C1S11117   1.603   6.460   2.481
  109OSM    H1S11118   1.615   6.565   2.449
  109OSM    H1T11119   1.691   6.404   2.442
  109OSM     NF11120   1.575   6.325   2.684
  109OSM    HNF11121   1.479   6.315   2.700
  109OSM    C2S11122   1.619   6.454   2.637
  109OSM    H2S11123   1.726   6.466   2.662
  109OSM    C3S11124   1.541   6.569   2.705
  109OSM    H3S11125   1.435   6.572   2.671
  109OSM     O311126   1.599   6.695   2.672
  109OSM    HO311127   1.667   6.675   2.607
  109OSM    C4S11128   1.545   6.559   2.857
  109OSM    H4S11129   1.642   6.587   2.902
  109OSM    C5S11130   1.442   6.522   2.936
  109OSM    H5S11131   1.347   6.495   2.887
  109OSM    C6S11132   1.439   6.510   3.087
  109OSM    H6S11133   1.445   6.402   3.115
  109OSM    H6T11134   1.340   6.545   3.123
  109OSM    C7S11135   1.546   6.586   3.169
  109OSM    H7S11136   1.539   6.695   3.150
  109OSM    H7T11137   1.646   6.550   3.136
  109OSM    C8S11138   1.538   6.558   3.320
  109OSM    H8S11139   1.632   6.594   3.369
  109OSM    H8T11140   1.533   6.448   3.333
  109OSM    C9S11141   1.420   6.620   3.398
  109OSM    H9S11142   1.333   6.636   3.331
  109OSM    H9T11143   1.449   6.719   3.438
  109OSM   C10S11144   1.374   6.528   3.514
  109OSM   H10S11145   1.328   6.438   3.469
  109OSM   H10T11146   1.297   6.579   3.575
  109OSM   C11S11147   1.489   6.481   3.606
  109OSM   H11S11148   1.529   6.567   3.664
  109OSM   H11T11149   1.573   6.445   3.545
  109OSM   C12S11150   1.450   6.365   3.699
  109OSM   H12S11151   1.534   6.293   3.708
  109OSM   H12T11152   1.364   6.310   3.656
  109OSM   C13S11153   1.416   6.416   3.839
  109OSM   H13S11154   1.344   6.500   3.826
  109OSM   H13T11155   1.508   6.458   3.886
  109OSM   C14S11156   1.352   6.314   3.934
  109OSM   H14S11157   1.425   6.235   3.962
  109OSM   H14T11158   1.267   6.266   3.881
  109OSM   C15S11159   1.300   6.386   4.059
  109OSM   H15S11160   1.280   6.492   4.030
  109OSM   H15T11161   1.378   6.388   4.138
  109OSM   C16S11162   1.166   6.334   4.113
  109OSM   H16S11163   1.184   6.243   4.174
  109OSM   H16T11164   1.100   6.306   4.028
  109OSM   C17S11165   1.095   6.440   4.198
  109OSM   H17S11166   0.997   6.399   4.233
  109OSM   H17T11167   1.074   6.531   4.137
  109OSM   C18S11168   1.178   6.477   4.319
  109OSM   H18S11169   1.268   6.536   4.291
  109OSM   H18T11170   1.211   6.382   4.365
  109OSM   H18U11171   1.120   6.533   4.395
  109OSM    C1F11172   1.651   6.217   2.674
  109OSM     OF11173   1.751   6.217   2.603
  109OSM    C2F11174   1.608   6.099   2.754
  109OSM    H2F11175   1.696   6.036   2.777
  109OSM    H2G11176   1.538   6.039   2.691
  109OSM    C3F11177   1.535   6.137   2.886
  109OSM    H3F11178   1.466   6.053   2.910
  109OSM    H3G11179   1.468   6.224   2.879
  109OSM    C4F11180   1.627   6.155   3.008
  109OSM    H4F11181   1.660   6.260   3.016
  109OSM    H4G11182   1.718   6.092   2.997
  109OSM    C5F11183   1.555   6.109   3.136
  109OSM    H5F11184   1.581   6.002   3.151
  109OSM    H5G11185   1.445   6.115   3.123
  109OSM    C6F11186   1.594   6.184   3.264
  109OSM    H6F11187   1.502   6.199   3.326
  109OSM    H6G11188   1.633   6.283   3.235
  109OSM    C7F11189   1.695   6.105   3.348
  109OSM    H7F11190   1.787   6.087   3.291
  109OSM    H7G11191   1.656   6.003   3.365
  109OSM    C8F11192   1.722   6.172   3.485
  109OSM    H8F11193   1.783   6.104   3.549
  109OSM    H8G11194   1.625   6.184   3.536
  109OSM    C9F11195   1.779   6.310   3.471
  109OSM    H9F11196   1.748   6.362   3.379
  109OSM   C10F11197   1.864   6.373   3.553
  109OSM   H10F11198   1.898   6.474   3.527
  109OSM   C11F11199   1.921   6.314   3.678
  109OSM   H11F11200   2.026   6.347   3.684
  109OSM   H11G11201   1.930   6.204   3.667
  109OSM   C12F11202   1.844   6.343   3.810
  109OSM   H12F11203   1.735   6.329   3.794
  109OSM   H12G11204   1.859   6.449   3.843
  109OSM   C13F11205   1.894   6.249   3.921
  109OSM   H13F11206   1.975   6.301   3.977
  109OSM   H13G11207   1.942   6.161   3.871
  109OSM   C14F11208   1.796   6.187   4.022
  109OSM   H14F11209   1.726   6.119   3.969
  109OSM   H14G11210   1.734   6.265   4.073
  109OSM   C15F11211   1.879   6.109   4.126
  109OSM   H15F11212   1.912   6.182   4.204
  109OSM   H15G11213   1.972   6.072   4.077
  109OSM   C16F11214   1.812   5.988   4.194
  109OSM   H16F11215   1.813   5.901   4.125
  109OSM   H16G11216   1.706   6.012   4.215
  109OSM   C17F11217   1.880   5.947   4.327
  109OSM   H17F11218   1.923   6.037   4.375
  109OSM   H17G11219   1.965   5.878   4.304
  109OSM   C18F11220   1.785   5.881   4.427
  109OSM   H18F11221   1.839   5.844   4.517
  109OSM   H18G11222   1.734   5.794   4.380
  109OSM   H18H11223   1.708   5.953   4.461
  110OSM      N11224   2.701   7.173   2.171
  110OSM    C1511225   2.592   7.273   2.168
  110OSM   H15A11226   2.573   7.316   2.265
  110OSM   H15B11227   2.500   7.226   2.129
  110OSM   H15C11228   2.617   7.354   2.099
  110OSM    C1411229   2.824   7.225   2.237
  110OSM   H14A11230   2.872   7.301   2.177
  110OSM   H14B11231   2.895   7.143   2.248
  110OSM   H14C11232   2.803   7.264   2.336
  110OSM    C1311233   2.654   7.052   2.245
  110OSM   H13A11234   2.659   7.067   2.351
  110OSM   H13B11235   2.716   6.967   2.216
  110OSM   H13C11236   2.552   7.024   2.218
  110OSM    C1211237   2.735   7.129   2.028
  110OSM   H12A11238   2.732   7.216   1.964
  110OSM   H12B11239   2.655   7.064   1.995
  110OSM    C1111240   2.869   7.053   2.004
  110OSM   H11A11241   2.956   7.112   2.038
  110OSM   H11B11242   2.879   7.037   1.894
  110OSM      P11243   2.982   6.843   2.128
  110OSM    O1311244   2.929   6.714   2.173
  110OSM    O1411245   3.096   6.837   2.032
  110OSM    O1111246   3.028   6.934   2.251
  110OSM    O1211247   2.863   6.927   2.066
  110OSM    C1S11248   2.963   6.914   2.378
  110OSM    H1S11249   2.940   6.807   2.399
  110OSM    H1T11250   2.867   6.970   2.382
  110OSM     NF11251   2.968   6.964   2.622
  110OSM    HNF11252   2.942   7.051   2.662
  110OSM    C2S11253   3.048   6.965   2.499
  110OSM    H2S11254   3.134   6.895   2.512
  110OSM    C3S11255   3.104   7.106   2.468
  110OSM    H3S11256   3.021   7.175   2.443
  110OSM     O311257   3.194   7.113   2.358
  110OSM    HO311258   3.167   7.038   2.302
  110OSM    C4S11259   3.183   7.161   2.582
  110OSM    H4S11260   3.288   7.129   2.581
  110OSM    C5S11261   3.138   7.242   2.680
  110OSM    H5S11262   3.031   7.269   2.682
  110OSM    C6S11263   3.218   7.299   2.794
  110OSM    H6S11264   3.228   7.409   2.779
  110OSM    H6T11265   3.323   7.263   2.791
  110OSM    C7S11266   3.162   7.278   2.936
  110OSM    H7S11267   3.104   7.368   2.964
  110OSM    H7T11268   3.248   7.279   3.006
  110OSM    C8S11269   3.079   7.150   2.961
  110OSM    H8S11270   3.126   7.067   2.903
  110OSM    H8T11271   2.975   7.159   2.923
  110OSM    C9S11272   3.080   7.108   3.109
  110OSM    H9S11273   3.167   7.152   3.161
  110OSM    H9T11274   3.089   6.997   3.113
  110OSM   C10S11275   2.955   7.143   3.190
  110OSM   H10S11276   2.876   7.074   3.155
  110OSM   H10T11277   2.927   7.247   3.168
  110OSM   C11S11278   2.969   7.131   3.343
  110OSM   H11S11279   2.874   7.166   3.390
  110OSM   H11T11280   3.048   7.202   3.376
  110OSM   C12S11281   3.002   6.990   3.396
  110OSM   H12S11282   3.101   7.002   3.447
  110OSM   H12T11283   3.012   6.919   3.312
  110OSM   C13S11284   2.910   6.931   3.504
  110OSM   H13S11285   2.938   6.825   3.524
  110OSM   H13T11286   2.804   6.935   3.473
  110OSM   C14S11287   2.930   7.010   3.633
  110OSM   H14S11288   2.899   7.112   3.607
  110OSM   H14T11289   3.038   7.013   3.655
  110OSM   C15S11290   2.851   6.964   3.757
  110OSM   H15S11291   2.811   6.862   3.743
  110OSM   H15T11292   2.766   7.033   3.771
  110OSM   C16S11293   2.941   6.971   3.880
  110OSM   H16S11294   3.027   7.036   3.852
  110OSM   H16T11295   2.980   6.869   3.901
  110OSM   C17S11296   2.887   7.035   4.009
  110OSM   H17S11297   2.831   6.959   4.068
  110OSM   H17T11298   2.816   7.117   3.983
  110OSM   C18S11299   3.003   7.094   4.091
  110OSM   H18S11300   3.101   7.077   4.039
  110OSM   H18T11301   3.012   7.048   4.191
  110OSM   H18U11302   2.990   7.203   4.102
  110OSM    C1F11303   2.933   6.850   2.682
  110OSM     OF11304   2.967   6.743   2.636
  110OSM    C2F11305   2.852   6.860   2.808
  110OSM    H2F11306   2.766   6.927   2.789
  110OSM    H2G11307   2.915   6.904   2.888
  110OSM    C3F11308   2.801   6.720   2.852
  110OSM    H3F11309   2.889   6.651   2.861
  110OSM    H3G11310   2.734   6.680   2.774
  110OSM    C4F11311   2.730   6.724   2.988
  110OSM    H4F11312   2.796   6.779   3.059
  110OSM    H4G11313   2.717   6.621   3.028
  110OSM    C5F11314   2.593   6.793   2.983
  110OSM    H5F11315   2.513   6.716   2.991
  110OSM    H5G11316   2.580   6.845   2.885
  110OSM    C6F11317   2.574   6.897   3.093
  110OSM    H6F11318   2.627   6.863   3.186
  110OSM    H6G11319   2.466   6.906   3.118
  110OSM    C7F11320   2.624   7.038   3.054
  110OSM    H7F11321   2.557   7.080   2.976
  110OSM    H7G11322   2.725   7.028   3.007
  110OSM    C8F11323   2.634   7.134   3.174
  110OSM    H8F11324   2.685   7.227   3.142
  110OSM    H8G11325   2.700   7.086   3.250
  110OSM    C9F11326   2.499   7.164   3.232
  110OSM    H9F11327   2.441   7.241   3.178
  110OSM   C10F11328   2.450   7.109   3.344
  110OSM   H10F11329   2.347   7.131   3.373
  110OSM   C11F11330   2.517   7.008   3.434
  110OSM   H11F11331   2.621   6.985   3.406
  110OSM   H11G11332   2.460   6.912   3.427
  110OSM   C12F11333   2.510   7.055   3.580
  110OSM   H12F11334   2.540   6.970   3.646
  110OSM   H12G11335   2.403   7.078   3.595
  110OSM   C13F11336   2.586   7.182   3.622
  110OSM   H13F11337   2.546   7.267   3.564
  110OSM   H13G11338   2.694   7.171   3.597
  110OSM   C14F11339   2.569   7.218   3.772
  110OSM   H14F11340   2.608   7.138   3.838
  110OSM   H14G11341   2.461   7.222   3.792
  110OSM   C15F11342   2.642   7.349   3.809
  110OSM   H15F11343   2.676   7.398   3.715
  110OSM   H15G11344   2.734   7.319   3.864
  110OSM   C16F11345   2.576   7.457   3.900
  110OSM   H16F11346   2.616   7.555   3.867
  110OSM   H16G11347   2.614   7.442   4.003
  110OSM   C17F11348   2.422   7.467   3.901
  110OSM   H17F11349   2.376   7.367   3.885
  110OSM   H17G11350   2.389   7.530   3.816
  110OSM   C18F11351   2.358   7.519   4.032
  110OSM   H18F11352   2.258   7.562   4.010
  110OSM   H18G11353   2.424   7.592   4.083
  110OSM   H18H11354   2.340   7.440   4.106
  111OSM      N11355   4.518   0.317   2.138
  111OSM    C1511356   4.634   0.405   2.170
  111OSM   H15A11357   4.695   0.420   2.082
  111OSM   H15B11358   4.700   0.358   2.243
  111OSM   H15C11359   4.601   0.503   2.205
  111OSM    C1411360   4.448   0.274   2.264
  111OSM   H14A11361   4.424   0.358   2.328
  111OSM   H14B11362   4.513   0.206   2.318
  111OSM   H14C11363   4.357   0.217   2.242
  111OSM    C1311364   4.422   0.399   2.059
  111OSM   H13A11365   4.463   0.435   1.966
  111OSM   H13B11366   4.398   0.489   2.117
  111OSM   H13C11367   4.328   0.348   2.042
  111OSM    C1211368   4.565   0.189   2.074
  111OSM   H12A11369   4.607   0.205   1.976
  111OSM   H12B11370   4.482   0.119   2.061
  111OSM    C1111371   4.671   0.116   2.159
  111OSM   H11A11372   4.653   0.007   2.138
  111OSM   H11B11373   4.657   0.127   2.268
  111OSM      P11374   4.900   0.054   2.071
  111OSM    O1311375   4.846   0.016   1.939
  111OSM    O1411376   5.042   0.098   2.074
  111OSM    O1111377   4.873  -0.066   2.173
  111OSM    O1211378   4.803   0.163   2.128
  111OSM    C1S11379   4.957  -0.086   2.287
  111OSM    H1S11380   5.049  -0.024   2.282
  111OSM    H1T11381   4.992  -0.190   2.281
  111OSM     NF11382   4.977  -0.064   2.537
  111OSM    HNF11383   4.959  -0.132   2.607
  111OSM    C2S11384   4.886  -0.062   2.425
  111OSM    H2S11385   4.838   0.038   2.420
  111OSM    C3S11386   4.779  -0.168   2.454
  111OSM    H3S11387   4.830  -0.257   2.500
  111OSM     O311388   4.713  -0.210   2.336
  111OSM    HO311389   4.756  -0.149   2.273
  111OSM    C4S11390   4.689  -0.112   2.563
  111OSM    H4S11391   4.740  -0.113   2.659
  111OSM    C5S11392   4.565  -0.058   2.560
  111OSM    H5S11393   4.515  -0.044   2.463
  111OSM    C6S11394   4.493  -0.006   2.683
  111OSM    H6S11395   4.410  -0.075   2.712
  111OSM    H6T11396   4.444   0.090   2.658
  111OSM    C7S11397   4.583   0.020   2.807
  111OSM    H7S11398   4.651   0.105   2.784
  111OSM    H7T11399   4.645  -0.068   2.830
  111OSM    C8S11400   4.509   0.048   2.939
  111OSM    H8S11401   4.457  -0.045   2.970
  111OSM    H8T11402   4.428   0.121   2.921
  111OSM    C9S11403   4.602   0.098   3.053
  111OSM    H9S11404   4.590   0.208   3.064
  111OSM    H9T11405   4.708   0.079   3.024
  111OSM   C10S11406   4.574   0.028   3.188
  111OSM   H10S11407   4.634  -0.065   3.197
  111OSM   H10T11408   4.466  -0.000   3.186
  111OSM   C11S11409   4.596   0.109   3.317
  111OSM   H11S11410   4.528   0.070   3.396
  111OSM   H11T11411   4.567   0.214   3.295
  111OSM   C12S11412   4.741   0.105   3.369
  111OSM   H12S11413   4.765   0.202   3.417
  111OSM   H12T11414   4.803   0.095   3.277
  111OSM   C13S11415   4.782  -0.009   3.466
  111OSM   H13S11416   4.894  -0.010   3.471
  111OSM   H13T11417   4.751  -0.108   3.424
  111OSM   C14S11418   4.731   0.007   3.610
  111OSM   H14S11419   4.620  -0.004   3.607
  111OSM   H14T11420   4.752   0.111   3.644
  111OSM   C15S11421   4.787  -0.093   3.716
  111OSM   H15S11422   4.788  -0.196   3.676
  111OSM   H15T11423   4.717  -0.090   3.803
  111OSM   C16S11424   4.927  -0.059   3.771
  111OSM   H16S11425   4.933   0.050   3.775
  111OSM   H16T11426   5.006  -0.094   3.701
  111OSM   C17S11427   4.956  -0.110   3.914
  111OSM   H17S11428   4.940  -0.220   3.916
  111OSM   H17T11429   4.881  -0.069   3.985
  111OSM   C18S11430   5.097  -0.078   3.968
  111OSM   H18S11431   5.102   0.020   4.018
  111OSM   H18T11432   5.171  -0.080   3.884
  111OSM   H18U11433   5.129  -0.154   4.043
  111OSM    C1F11434   5.089   0.004   2.547
  111OSM     OF11435   5.132   0.082   2.463
  111OSM    C2F11436   5.172  -0.038   2.662
  111OSM    H2F11437   5.268  -0.075   2.621
  111OSM    H2G11438   5.123  -0.119   2.720
  111OSM    C3F11439   5.203   0.076   2.758
  111OSM    H3F11440   5.245   0.163   2.704
  111OSM    H3G11441   5.284   0.036   2.822
  111OSM    C4F11442   5.082   0.119   2.841
  111OSM    H4F11443   5.041   0.032   2.897
  111OSM    H4G11444   5.001   0.157   2.774
  111OSM    C5F11445   5.121   0.229   2.941
  111OSM    H5F11446   5.038   0.247   3.013
  111OSM    H5G11447   5.135   0.322   2.883
  111OSM    C6F11448   5.253   0.197   3.014
  111OSM    H6F11449   5.333   0.250   2.958
  111OSM    H6G11450   5.277   0.088   3.011
  111OSM    C7F11451   5.255   0.235   3.162
  111OSM    H7F11452   5.227   0.342   3.172
  111OSM    H7G11453   5.360   0.226   3.198
  111OSM    C8F11454   5.173   0.141   3.250
  111OSM    H8F11455   5.239   0.104   3.332
  111OSM    H8G11456   5.143   0.051   3.193
  111OSM    C9F11457   5.053   0.209   3.306
  111OSM    H9F11458   4.962   0.203   3.245
  111OSM   C10F11459   5.055   0.291   3.412
  111OSM   H10F11460   4.961   0.337   3.446
  111OSM   C11F11461   5.176   0.330   3.493
  111OSM   H11F11462   5.229   0.415   3.444
  111OSM   H11G11463   5.250   0.246   3.501
  111OSM   C12F11464   5.132   0.371   3.635
  111OSM   H12F11465   5.046   0.441   3.630
  111OSM   H12G11466   5.216   0.425   3.685
  111OSM   C13F11467   5.096   0.246   3.716
  111OSM   H13F11468   5.191   0.190   3.733
  111OSM   H13G11469   5.031   0.181   3.654
  111OSM   C14F11470   5.030   0.270   3.853
  111OSM   H14F11471   5.089   0.344   3.910
  111OSM   H14G11472   5.040   0.175   3.910
  111OSM   C15F11473   4.879   0.302   3.855
  111OSM   H15F11474   4.821   0.222   3.805
  111OSM   H15G11475   4.859   0.394   3.796
  111OSM   C16F11476   4.824   0.317   3.998
  111OSM   H16F11477   4.732   0.378   3.996
  111OSM   H16G11478   4.898   0.371   4.061
  111OSM   C17F11479   4.785   0.184   4.064
  111OSM   H17F11480   4.878   0.123   4.073
  111OSM   H17G11481   4.716   0.130   3.996
  111OSM   C18F11482   4.719   0.198   4.202
  111OSM   H18F11483   4.694   0.097   4.242
  111OSM   H18G11484   4.626   0.258   4.195
  111OSM   H18H11485   4.788   0.248   4.273
  112OSM      N11486   7.420   4.731   2.145
  112OSM    C1511487   7.284   4.708   2.205
  112OSM   H15A11488   7.290   4.709   2.313
  112OSM   H15B11489   7.236   4.620   2.166
  112OSM   H15C11490   7.221   4.793   2.177
  112OSM    C1411491   7.500   4.611   2.170
  112OSM   H14A11492   7.598   4.618   2.125
  112OSM   H14B11493   7.451   4.524   2.126
  112OSM   H14C11494   7.508   4.592   2.277
  112OSM    C1311495   7.404   4.747   1.997
  112OSM   H13A11496   7.341   4.669   1.955
  112OSM   H13B11497   7.498   4.746   1.946
  112OSM   H13C11498   7.353   4.843   1.977
  112OSM    C1211499   7.479   4.856   2.210
  112OSM   H12A11500   7.586   4.859   2.199
  112OSM   H12B11501   7.457   4.851   2.317
  112OSM    C1111502   7.423   4.992   2.165
  112OSM   H11A11503   7.458   5.016   2.062
  112OSM   H11B11504   7.462   5.072   2.232
  112OSM      P11505   7.189   5.106   2.159
  112OSM    O1311506   7.248   5.190   2.053
  112OSM    O1411507   7.052   5.054   2.139
  112OSM    O1111508   7.200   5.171   2.301
  112OSM    O1211509   7.281   4.984   2.169
  112OSM    C1S11510   7.195   5.081   2.413
  112OSM    H1S11511   7.193   4.972   2.388
  112OSM    H1T11512   7.103   5.101   2.473
  112OSM     NF11513   7.325   5.007   2.605
  112OSM    HNF11514   7.320   5.041   2.699
  112OSM    C2S11515   7.318   5.108   2.501
  112OSM    H2S11516   7.411   5.102   2.442
  112OSM    C3S11517   7.297   5.254   2.553
  112OSM    H3S11518   7.189   5.276   2.568
  112OSM     O311519   7.351   5.357   2.468
  112OSM    HO311520   7.378   5.314   2.386
  112OSM    C4S11521   7.368   5.262   2.682
  112OSM    H4S11522   7.473   5.295   2.677
  112OSM    C5S11523   7.308   5.233   2.798
  112OSM    H5S11524   7.202   5.202   2.802
  112OSM    C6S11525   7.383   5.238   2.926
  112OSM    H6S11526   7.356   5.328   2.985
  112OSM    H6T11527   7.492   5.244   2.902
  112OSM    C7S11528   7.368   5.110   3.009
  112OSM    H7S11529   7.357   5.019   2.947
  112OSM    H7T11530   7.279   5.120   3.075
  112OSM    C8S11531   7.496   5.096   3.091
  112OSM    H8S11532   7.527   5.200   3.116
  112OSM    H8T11533   7.577   5.050   3.030
  112OSM    C9S11534   7.485   5.023   3.224
  112OSM    H9S11535   7.585   5.034   3.272
  112OSM    H9T11536   7.467   4.915   3.207
  112OSM   C10S11537   7.379   5.081   3.318
  112OSM   H10S11538   7.280   5.041   3.288
  112OSM   H10T11539   7.375   5.192   3.308
  112OSM   C11S11540   7.407   5.045   3.464
  112OSM   H11S11541   7.312   5.051   3.522
  112OSM   H11T11542   7.477   5.120   3.506
  112OSM   C12S11543   7.470   4.905   3.476
  112OSM   H12S11544   7.572   4.905   3.433
  112OSM   H12T11545   7.409   4.834   3.417
  112OSM   C13S11546   7.485   4.850   3.617
  112OSM   H13S11547   7.544   4.756   3.611
  112OSM   H13T11548   7.387   4.822   3.660
  112OSM   C14S11549   7.548   4.944   3.717
  112OSM   H14S11550   7.508   5.048   3.709
  112OSM   H14T11551   7.658   4.946   3.703
  112OSM   C15S11552   7.509   4.891   3.854
  112OSM   H15S11553   7.502   4.780   3.852
  112OSM   H15T11554   7.407   4.927   3.876
  112OSM   C16S11555   7.606   4.929   3.963
  112OSM   H16S11556   7.609   5.040   3.976
  112OSM   H16T11557   7.708   4.893   3.937
  112OSM   C17S11558   7.559   4.864   4.091
  112OSM   H17S11559   7.642   4.870   4.165
  112OSM   H17T11560   7.540   4.755   4.074
  112OSM   C18S11561   7.432   4.930   4.143
  112OSM   H18S11562   7.351   4.932   4.067
  112OSM   H18T11563   7.450   5.033   4.178
  112OSM   H18U11564   7.390   4.871   4.226
  112OSM    C1F11565   7.342   4.876   2.591
  112OSM     OF11566   7.392   4.824   2.492
  112OSM    C2F11567   7.295   4.798   2.709
  112OSM    H2F11568   7.234   4.868   2.770
  112OSM    H2G11569   7.383   4.768   2.770
  112OSM    C3F11570   7.206   4.677   2.675
  112OSM    H3F11571   7.272   4.588   2.660
  112OSM    H3G11572   7.147   4.692   2.582
  112OSM    C4F11573   7.108   4.648   2.790
  112OSM    H4F11574   7.072   4.543   2.781
  112OSM    H4G11575   7.020   4.715   2.783
  112OSM    C5F11576   7.173   4.670   2.927
  112OSM    H5F11577   7.161   4.776   2.958
  112OSM    H5G11578   7.282   4.648   2.921
  112OSM    C6F11579   7.116   4.577   3.033
  112OSM    H6F11580   7.119   4.477   2.986
  112OSM    H6G11581   7.011   4.604   3.056
  112OSM    C7F11582   7.201   4.566   3.160
  112OSM    H7F11583   7.282   4.492   3.140
  112OSM    H7G11584   7.140   4.523   3.242
  112OSM    C8F11585   7.268   4.698   3.201
  112OSM    H8F11586   7.323   4.745   3.118
  112OSM    H8G11587   7.346   4.674   3.277
  112OSM    C9F11588   7.162   4.790   3.255
  112OSM    H9F11589   7.117   4.860   3.183
  112OSM   C10F11590   7.126   4.794   3.384
  112OSM   H10F11591   7.057   4.873   3.417
  112OSM   C11F11592   7.185   4.709   3.493
  112OSM   H11F11593   7.237   4.785   3.553
  112OSM   H11G11594   7.262   4.637   3.459
  112OSM   C12F11595   7.098   4.635   3.596
  112OSM   H12F11596   7.086   4.529   3.567
  112OSM   H12G11597   6.997   4.679   3.602
  112OSM   C13F11598   7.155   4.651   3.737
  112OSM   H13F11599   7.266   4.657   3.735
  112OSM   H13G11600   7.129   4.559   3.795
  112OSM   C14F11601   7.095   4.772   3.811
  112OSM   H14F11602   7.129   4.764   3.916
  112OSM   H14G11603   6.985   4.762   3.809
  112OSM   C15F11604   7.127   4.915   3.763
  112OSM   H15F11605   7.091   4.929   3.659
  112OSM   H15G11606   7.236   4.931   3.763
  112OSM   C16F11607   7.060   5.019   3.854
  112OSM   H16F11608   7.054   4.980   3.958
  112OSM   H16G11609   6.955   5.031   3.818
  112OSM   C17F11610   7.125   5.158   3.858
  112OSM   H17F11611   7.044   5.226   3.893
  112OSM   H17G11612   7.155   5.190   3.756
  112OSM   C18F11613   7.243   5.177   3.956
  112OSM   H18F11614   7.214   5.144   4.058
  112OSM   H18G11615   7.270   5.285   3.962
  112OSM   H18H11616   7.332   5.122   3.922
  113OSM      N11617   1.080   6.831   2.030
  113OSM    C1511618   1.197   6.736   2.020
  113OSM   H15A11619   1.272   6.767   2.094
  113OSM   H15B11620   1.246   6.745   1.923
  113OSM   H15C11621   1.168   6.633   2.038
  113OSM    C1411622   0.971   6.785   1.938
  113OSM   H14A11623   0.948   6.681   1.961
  113OSM   H14B11624   1.007   6.788   1.836
  113OSM   H14C11625   0.882   6.846   1.948
  113OSM    C1311626   1.033   6.835   2.171
  113OSM   H13A11627   1.018   6.735   2.210
  113OSM   H13B11628   0.946   6.898   2.182
  113OSM   H13C11629   1.112   6.886   2.228
  113OSM    C1211630   1.129   6.968   1.991
  113OSM   H12A11631   1.057   7.044   2.018
  113OSM   H12B11632   1.139   6.970   1.883
  113OSM    C1111633   1.269   7.013   2.042
  113OSM   H11A11634   1.274   7.118   2.005
  113OSM   H11B11635   1.350   6.958   1.991
  113OSM      P11636   1.350   7.132   2.253
  113OSM    O1311637   1.497   7.139   2.239
  113OSM    O1411638   1.273   7.249   2.210
  113OSM    O1111639   1.318   7.097   2.404
  113OSM    O1211640   1.287   7.002   2.183
  113OSM    C1S11641   1.189   7.039   2.428
  113OSM    H1S11642   1.191   6.934   2.393
  113OSM    H1T11643   1.108   7.090   2.370
  113OSM     NF11644   1.198   7.171   2.640
  113OSM    HNF11645   1.220   7.170   2.737
  113OSM    C2S11646   1.144   7.049   2.578
  113OSM    H2S11647   1.033   7.054   2.582
  113OSM    C3S11648   1.189   6.913   2.643
  113OSM    H3S11649   1.298   6.901   2.635
  113OSM     O311650   1.128   6.804   2.572
  113OSM    HO311651   1.079   6.841   2.498
  113OSM    C4S11652   1.149   6.899   2.790
  113OSM    H4S11653   1.189   6.979   2.854
  113OSM    C5S11654   1.076   6.798   2.845
  113OSM    H5S11655   1.041   6.717   2.779
  113OSM    C6S11656   1.035   6.779   2.988
  113OSM    H6S11657   1.084   6.688   3.030
  113OSM    H6T11658   0.925   6.758   2.991
  113OSM    C7S11659   1.067   6.898   3.079
  113OSM    H7S11660   1.034   6.992   3.029
  113OSM    H7T11661   1.177   6.905   3.095
  113OSM    C8S11662   0.995   6.889   3.213
  113OSM    H8S11663   1.037   6.807   3.275
  113OSM    H8T11664   0.888   6.864   3.193
  113OSM    C9S11665   0.997   7.023   3.287
  113OSM    H9S11666   0.920   7.023   3.367
  113OSM    H9T11667   0.970   7.100   3.212
  113OSM   C10S11668   1.133   7.062   3.347
  113OSM   H10S11669   1.131   7.171   3.369
  113OSM   H10T11670   1.213   7.044   3.272
  113OSM   C11S11671   1.162   6.986   3.476
  113OSM   H11S11672   1.136   6.879   3.463
  113OSM   H11T11673   1.097   7.027   3.557
  113OSM   C12S11674   1.309   6.997   3.518
  113OSM   H12S11675   1.335   7.104   3.530
  113OSM   H12T11676   1.372   6.954   3.437
  113OSM   C13S11677   1.335   6.923   3.649
  113OSM   H13S11678   1.298   6.819   3.640
  113OSM   H13T11679   1.277   6.973   3.730
  113OSM   C14S11680   1.483   6.920   3.690
  113OSM   H14S11681   1.529   7.017   3.667
  113OSM   H14T11682   1.537   6.842   3.631
  113OSM   C15S11683   1.502   6.893   3.840
  113OSM   H15S11684   1.458   6.977   3.899
  113OSM   H15T11685   1.611   6.889   3.865
  113OSM   C16S11686   1.436   6.761   3.881
  113OSM   H16S11687   1.494   6.680   3.831
  113OSM   H16T11688   1.331   6.756   3.846
  113OSM   C17S11689   1.436   6.735   4.030
  113OSM   H17S11690   1.524   6.785   4.077
  113OSM   H17T11691   1.448   6.626   4.046
  113OSM   C18S11692   1.307   6.781   4.098
  113OSM   H18S11693   1.301   6.740   4.201
  113OSM   H18T11694   1.218   6.744   4.043
  113OSM   H18U11695   1.303   6.891   4.103
  113OSM    C1F11696   1.188   7.289   2.575
  113OSM     OF11697   1.114   7.302   2.478
  113OSM    C2F11698   1.267   7.408   2.623
  113OSM    H2F11699   1.327   7.442   2.535
  113OSM    H2G11700   1.338   7.382   2.704
  113OSM    C3F11701   1.177   7.529   2.662
  113OSM    H3F11702   1.102   7.546   2.582
  113OSM    H3G11703   1.241   7.620   2.666
  113OSM    C4F11704   1.105   7.517   2.797
  113OSM    H4F11705   1.046   7.424   2.804
  113OSM    H4G11706   1.034   7.602   2.807
  113OSM    C5F11707   1.201   7.519   2.916
  113OSM    H5F11708   1.252   7.616   2.920
  113OSM    H5G11709   1.279   7.440   2.905
  113OSM    C6F11710   1.125   7.497   3.046
  113OSM    H6F11711   1.058   7.409   3.031
  113OSM    H6G11712   1.062   7.587   3.065
  113OSM    C7F11713   1.212   7.470   3.169
  113OSM    H7F11714   1.298   7.406   3.140
  113OSM    H7G11715   1.151   7.414   3.243
  113OSM    C8F11716   1.260   7.601   3.234
  113OSM    H8F11717   1.170   7.660   3.263
  113OSM    H8G11718   1.312   7.662   3.156
  113OSM    C9F11719   1.350   7.578   3.352
  113OSM    H9F11720   1.453   7.554   3.328
  113OSM   C10F11721   1.314   7.567   3.480
  113OSM   H10F11722   1.392   7.552   3.556
  113OSM   C11F11723   1.174   7.576   3.533
  113OSM   H11F11724   1.103   7.529   3.462
  113OSM   H11G11725   1.145   7.681   3.547
  113OSM   C12F11726   1.166   7.504   3.669
  113OSM   H12F11727   1.062   7.511   3.707
  113OSM   H12G11728   1.230   7.559   3.742
  113OSM   C13F11729   1.208   7.356   3.665
  113OSM   H13F11730   1.297   7.342   3.600
  113OSM   H13G11731   1.126   7.296   3.620
  113OSM   C14F11732   1.248   7.299   3.802
  113OSM   H14F11733   1.342   7.350   3.835
  113OSM   H14G11734   1.273   7.191   3.790
  113OSM   C15F11735   1.143   7.317   3.912
  113OSM   H15F11736   1.126   7.425   3.928
  113OSM   H15G11737   1.184   7.276   4.008
  113OSM   C16F11738   1.008   7.250   3.881
  113OSM   H16F11739   0.967   7.291   3.787
  113OSM   H16G11740   0.937   7.279   3.962
  113OSM   C17F11741   1.012   7.096   3.871
  113OSM   H17F11742   1.076   7.065   3.786
  113OSM   H17G11743   0.909   7.061   3.847
  113OSM   C18F11744   1.059   7.026   3.998
  113OSM   H18F11745   1.028   6.919   3.998
  113OSM   H18G11746   1.015   7.076   4.087
  113OSM   H18H11747   1.170   7.031   4.006
  114OSM      N11748   6.495   0.323   1.975
  114OSM    C1511749   6.426   0.447   1.933
  114OSM   H15A11750   6.348   0.474   2.004
  114OSM   H15B11751   6.378   0.434   1.836
  114OSM   H15C11752   6.491   0.533   1.924
  114OSM    C1411753   6.594   0.280   1.870
  114OSM   H14A11754   6.545   0.245   1.780
  114OSM   H14B11755   6.647   0.192   1.907
  114OSM   H14C11756   6.667   0.355   1.846
  114OSM    C1311757   6.571   0.336   2.103
  114OSM   H13A11758   6.610   0.236   2.128
  114OSM   H13B11759   6.505   0.359   2.186
  114OSM   H13C11760   6.655   0.402   2.096
  114OSM    C1211761   6.395   0.210   1.993
  114OSM   H12A11762   6.347   0.187   1.898
  114OSM   H12B11763   6.318   0.243   2.062
  114OSM    C1111764   6.455   0.080   2.052
  114OSM   H11A11765   6.551   0.059   2.002
  114OSM   H11B11766   6.388  -0.005   2.028
  114OSM      P11767   6.532  -0.028   2.275
  114OSM    O1311768   6.469  -0.150   2.219
  114OSM    O1411769   6.678  -0.020   2.286
  114OSM    O1111770   6.457   0.000   2.413
  114OSM    O1211771   6.473   0.093   2.192
  114OSM    C1S11772   6.465  -0.099   2.516
  114OSM    H1S11773   6.564  -0.150   2.512
  114OSM    H1T11774   6.386  -0.176   2.503
  114OSM     NF11775   6.555  -0.118   2.740
  114OSM    HNF11776   6.541  -0.215   2.754
  114OSM    C2S11777   6.454  -0.047   2.664
  114OSM    H2S11778   6.481   0.058   2.665
  114OSM    C3S11779   6.308  -0.069   2.720
  114OSM    H3S11780   6.300  -0.177   2.744
  114OSM     O311781   6.207  -0.039   2.628
  114OSM    HO311782   6.252  -0.001   2.552
  114OSM    C4S11783   6.283   0.011   2.847
  114OSM    H4S11784   6.302  -0.056   2.931
  114OSM    C5S11785   6.240   0.137   2.875
  114OSM    H5S11786   6.208   0.200   2.791
  114OSM    C6S11787   6.218   0.206   3.011
  114OSM    H6S11788   6.231   0.139   3.098
  114OSM    H6T11789   6.113   0.234   3.012
  114OSM    C7S11790   6.301   0.338   3.030
  114OSM    H7S11791   6.274   0.409   2.948
  114OSM    H7T11792   6.403   0.310   3.009
  114OSM    C8S11793   6.321   0.416   3.166
  114OSM    H8S11794   6.230   0.473   3.191
  114OSM    H8T11795   6.403   0.486   3.139
  114OSM    C9S11796   6.377   0.343   3.291
  114OSM    H9S11797   6.465   0.287   3.258
  114OSM    H9T11798   6.294   0.278   3.325
  114OSM   C10S11799   6.425   0.419   3.418
  114OSM   H10S11800   6.331   0.438   3.472
  114OSM   H10T11801   6.471   0.515   3.390
  114OSM   C11S11802   6.515   0.344   3.524
  114OSM   H11S11803   6.593   0.414   3.560
  114OSM   H11T11804   6.573   0.261   3.480
  114OSM   C12S11805   6.434   0.299   3.649
  114OSM   H12S11806   6.337   0.262   3.612
  114OSM   H12T11807   6.401   0.387   3.708
  114OSM   C13S11808   6.494   0.193   3.746
  114OSM   H13S11809   6.549   0.113   3.694
  114OSM   H13T11810   6.407   0.145   3.797
  114OSM   C14S11811   6.576   0.256   3.860
  114OSM   H14S11812   6.517   0.346   3.885
  114OSM   H14T11813   6.676   0.289   3.825
  114OSM   C15S11814   6.587   0.182   3.994
  114OSM   H15S11815   6.672   0.111   3.996
  114OSM   H15T11816   6.494   0.126   4.014
  114OSM   C16S11817   6.595   0.281   4.112
  114OSM   H16S11818   6.631   0.379   4.075
  114OSM   H16T11819   6.671   0.245   4.183
  114OSM   C17S11820   6.457   0.298   4.179
  114OSM   H17S11821   6.435   0.210   4.244
  114OSM   H17T11822   6.382   0.297   4.096
  114OSM   C18S11823   6.436   0.427   4.258
  114OSM   H18S11824   6.328   0.450   4.264
  114OSM   H18T11825   6.486   0.513   4.208
  114OSM   H18U11826   6.475   0.419   4.361
  114OSM    C1F11827   6.682  -0.081   2.759
  114OSM     OF11828   6.725   0.023   2.713
  114OSM    C2F11829   6.752  -0.173   2.857
  114OSM    H2F11830   6.775  -0.264   2.799
  114OSM    H2G11831   6.673  -0.197   2.933
  114OSM    C3F11832   6.882  -0.146   2.940
  114OSM    H3F11833   6.970  -0.150   2.875
  114OSM    H3G11834   6.891  -0.233   3.007
  114OSM    C4F11835   6.894  -0.021   3.027
  114OSM    H4F11836   6.861   0.066   2.966
  114OSM    H4G11837   6.999  -0.001   3.057
  114OSM    C5F11838   6.808  -0.028   3.152
  114OSM    H5F11839   6.726  -0.101   3.137
  114OSM    H5G11840   6.771   0.075   3.163
  114OSM    C6F11841   6.876  -0.048   3.285
  114OSM    H6F11842   6.965   0.017   3.281
  114OSM    H6G11843   6.909  -0.154   3.290
  114OSM    C7F11844   6.789  -0.001   3.404
  114OSM    H7F11845   6.690  -0.053   3.404
  114OSM    H7G11846   6.767   0.107   3.393
  114OSM    C8F11847   6.851  -0.024   3.542
  114OSM    H8F11848   6.779   0.002   3.622
  114OSM    H8G11849   6.939   0.043   3.555
  114OSM    C9F11850   6.888  -0.170   3.535
  114OSM    H9F11851   6.981  -0.188   3.480
  114OSM   C10F11852   6.824  -0.277   3.580
  114OSM   H10F11853   6.869  -0.376   3.565
  114OSM   C11F11854   6.693  -0.274   3.651
  114OSM   H11F11855   6.654  -0.378   3.660
  114OSM   H11G11856   6.618  -0.214   3.595
  114OSM   C12F11857   6.715  -0.217   3.792
  114OSM   H12F11858   6.629  -0.248   3.856
  114OSM   H12G11859   6.711  -0.105   3.789
  114OSM   C13F11860   6.849  -0.258   3.856
  114OSM   H13F11861   6.923  -0.175   3.842
  114OSM   H13G11862   6.892  -0.348   3.808
  114OSM   C14F11863   6.837  -0.292   4.004
  114OSM   H14F11864   6.935  -0.330   4.040
  114OSM   H14G11865   6.765  -0.376   4.013
  114OSM   C15F11866   6.788  -0.175   4.087
  114OSM   H15F11867   6.697  -0.134   4.037
  114OSM   H15G11868   6.863  -0.093   4.088
  114OSM   C16F11869   6.749  -0.217   4.229
  114OSM   H16F11870   6.838  -0.239   4.291
  114OSM   H16G11871   6.688  -0.309   4.224
  114OSM   C17F11872   6.671  -0.107   4.301
  114OSM   H17F11873   6.727  -0.012   4.293
  114OSM   H17G11874   6.666  -0.136   4.408
  114OSM   C18F11875   6.529  -0.090   4.251
  114OSM   H18F11876   6.531  -0.070   4.142
  114OSM   H18G11877   6.479  -0.005   4.301
  114OSM   H18H11878   6.471  -0.183   4.269
  115OSM      N11879   6.697   6.557   2.028
  115OSM    C1511880   6.580   6.623   2.091
  115OSM   H15A11881   6.522   6.552   2.148
  115OSM   H15B11882   6.519   6.673   2.017
  115OSM   H15C11883   6.618   6.698   2.160
  115OSM    C1411884   6.781   6.487   2.131
  115OSM   H14A11885   6.816   6.559   2.205
  115OSM   H14B11886   6.868   6.441   2.086
  115OSM   H14C11887   6.725   6.412   2.185
  115OSM    C1311888   6.639   6.456   1.936
  115OSM   H13A11889   6.589   6.499   1.850
  115OSM   H13B11890   6.568   6.392   1.988
  115OSM   H13C11891   6.716   6.388   1.902
  115OSM    C1211892   6.787   6.652   1.953
  115OSM   H12A11893   6.730   6.700   1.875
  115OSM   H12B11894   6.869   6.596   1.910
  115OSM    C1111895   6.851   6.766   2.032
  115OSM   H11A11896   6.930   6.814   1.968
  115OSM   H11B11897   6.901   6.730   2.125
  115OSM      P11898   6.784   6.993   2.129
  115OSM    O1311899   6.930   7.013   2.120
  115OSM    O1411900   6.697   7.089   2.056
  115OSM    O1111901   6.739   6.965   2.280
  115OSM    O1211902   6.747   6.858   2.060
  115OSM    C1S11903   6.677   6.842   2.316
  115OSM    H1S11904   6.735   6.756   2.274
  115OSM    H1T11905   6.573   6.840   2.276
  115OSM     NF11906   6.563   6.712   2.491
  115OSM    HNF11907   6.493   6.737   2.556
  115OSM    C2S11908   6.668   6.807   2.468
  115OSM    H2S11909   6.765   6.759   2.497
  115OSM    C3S11910   6.646   6.927   2.560
  115OSM    H3S11911   6.551   6.977   2.531
  115OSM     O311912   6.750   7.021   2.551
  115OSM    HO311913   6.795   6.999   2.468
  115OSM    C4S11914   6.639   6.890   2.707
  115OSM    H4S11915   6.721   6.826   2.745
  115OSM    C5S11916   6.540   6.934   2.789
  115OSM    H5S11917   6.460   6.991   2.740
  115OSM    C6S11918   6.511   6.916   2.936
  115OSM    H6S11919   6.416   6.862   2.950
  115OSM    H6T11920   6.491   7.018   2.978
  115OSM    C7S11921   6.621   6.860   3.028
  115OSM    H7S11922   6.715   6.915   3.007
  115OSM    H7T11923   6.639   6.753   3.004
  115OSM    C8S11924   6.590   6.871   3.180
  115OSM    H8S11925   6.582   6.768   3.221
  115OSM    H8T11926   6.491   6.919   3.196
  115OSM    C9S11927   6.694   6.948   3.265
  115OSM    H9S11928   6.673   6.927   3.372
  115OSM    H9T11929   6.679   7.058   3.252
  115OSM   C10S11930   6.842   6.917   3.236
  115OSM   H10S11931   6.905   6.968   3.313
  115OSM   H10T11932   6.872   6.959   3.139
  115OSM   C11S11933   6.877   6.768   3.238
  115OSM   H11S11934   6.986   6.757   3.219
  115OSM   H11T11935   6.825   6.713   3.156
  115OSM   C12S11936   6.841   6.706   3.374
  115OSM   H12S11937   6.736   6.671   3.374
  115OSM   H12T11938   6.851   6.788   3.450
  115OSM   C13S11939   6.937   6.595   3.416
  115OSM   H13S11940   7.039   6.639   3.426
  115OSM   H13T11941   6.943   6.520   3.334
  115OSM   C14S11942   6.899   6.522   3.546
  115OSM   H14S11943   6.990   6.481   3.589
  115OSM   H14T11944   6.839   6.433   3.517
  115OSM   C15S11945   6.825   6.601   3.655
  115OSM   H15S11946   6.738   6.540   3.687
  115OSM   H15T11947   6.786   6.698   3.620
  115OSM   C16S11948   6.903   6.626   3.785
  115OSM   H16S11949   6.990   6.691   3.762
  115OSM   H16T11950   6.941   6.530   3.826
  115OSM   C17S11951   6.809   6.692   3.888
  115OSM   H17S11952   6.709   6.652   3.865
  115OSM   H17T11953   6.806   6.802   3.872
  115OSM   C18S11954   6.826   6.657   4.036
  115OSM   H18S11955   6.930   6.667   4.072
  115OSM   H18T11956   6.788   6.554   4.051
  115OSM   H18U11957   6.766   6.720   4.102
  115OSM    C1F11958   6.555   6.594   2.440
  115OSM     OF11959   6.638   6.548   2.364
  115OSM    C2F11960   6.440   6.520   2.491
  115OSM    H2F11961   6.454   6.420   2.446
  115OSM    H2G11962   6.344   6.562   2.458
  115OSM    C3F11963   6.451   6.519   2.646
  115OSM    H3F11964   6.557   6.500   2.674
  115OSM    H3G11965   6.393   6.430   2.677
  115OSM    C4F11966   6.402   6.636   2.735
  115OSM    H4F11967   6.338   6.709   2.687
  115OSM    H4G11968   6.492   6.688   2.773
  115OSM    C5F11969   6.334   6.572   2.856
  115OSM    H5F11970   6.413   6.500   2.888
  115OSM    H5G11971   6.243   6.517   2.823
  115OSM    C6F11972   6.304   6.643   2.988
  115OSM    H6F11973   6.239   6.732   2.978
  115OSM    H6G11974   6.402   6.674   3.031
  115OSM    C7F11975   6.241   6.543   3.086
  115OSM    H7F11976   6.274   6.441   3.057
  115OSM    H7G11977   6.130   6.541   3.075
  115OSM    C8F11978   6.291   6.561   3.229
  115OSM    H8F11979   6.397   6.597   3.226
  115OSM    H8G11980   6.287   6.469   3.288
  115OSM    C9F11981   6.202   6.657   3.295
  115OSM    H9F11982   6.133   6.705   3.225
  115OSM   C10F11983   6.184   6.676   3.425
  115OSM   H10F11984   6.117   6.758   3.451
  115OSM   C11F11985   6.243   6.608   3.545
  115OSM   H11F11986   6.286   6.510   3.519
  115OSM   H11G11987   6.160   6.589   3.615
  115OSM   C12F11988   6.345   6.694   3.619
  115OSM   H12F11989   6.335   6.798   3.590
  115OSM   H12G11990   6.449   6.668   3.591
  115OSM   C13F11991   6.330   6.694   3.771
  115OSM   H13F11992   6.307   6.592   3.807
  115OSM   H13G11993   6.243   6.757   3.797
  115OSM   C14F11994   6.459   6.745   3.837
  115OSM   H14F11995   6.474   6.852   3.815
  115OSM   H14G11996   6.543   6.697   3.784
  115OSM   C15F11997   6.465   6.716   3.987
  115OSM   H15F11998   6.529   6.627   4.006
  115OSM   H15G11999   6.362   6.688   4.020
  115OSM   C16F12000   6.513   6.833   4.073
  115OSM   H16F12001   6.498   6.930   4.025
  115OSM   H16G12002   6.622   6.833   4.082
  115OSM   C17F12003   6.457   6.825   4.215
  115OSM   H17F12004   6.524   6.882   4.283
  115OSM   H17G12005   6.463   6.717   4.241
  115OSM   C18F12006   6.313   6.871   4.237
  115OSM   H18F12007   6.268   6.817   4.323
  115OSM   H18G12008   6.251   6.852   4.147
  115OSM   H18H12009   6.311   6.980   4.260
  116OSM      N12010  -0.111   0.842   2.127
  116OSM    C1512011  -0.050   0.714   2.176
  116OSM   H15A12012  -0.090   0.627   2.126
  116OSM   H15B12013  -0.050   0.705   2.283
  116OSM   H15C12014   0.056   0.715   2.145
  116OSM    C1412015  -0.100   0.841   1.976
  116OSM   H14A12016   0.005   0.856   1.951
  116OSM   H14B12017  -0.159   0.920   1.932
  116OSM   H14C12018  -0.127   0.745   1.932
  116OSM    C1312019  -0.254   0.856   2.163
  116OSM   H13A12020  -0.269   0.854   2.270
  116OSM   H13B12021  -0.309   0.779   2.114
  116OSM   H13C12022  -0.291   0.952   2.124
  116OSM    C1212023  -0.032   0.960   2.180
  116OSM   H12A12024  -0.025   0.954   2.287
  116OSM   H12B12025  -0.085   1.052   2.158
  116OSM    C1112026   0.112   0.976   2.127
  116OSM   H11A12027   0.159   1.058   2.187
  116OSM   H11B12028   0.111   1.010   2.021
  116OSM      P12029   0.337   0.856   2.171
  116OSM    O1312030   0.396   0.729   2.124
  116OSM    O1412031   0.389   0.984   2.118
  116OSM    O1112032   0.329   0.855   2.330
  116OSM    O1212033   0.184   0.852   2.135
  116OSM    C1S12034   0.214   0.789   2.388
  116OSM    H1S12035   0.204   0.685   2.350
  116OSM    H1T12036   0.121   0.845   2.366
  116OSM     NF12037   0.092   0.732   2.597
  116OSM    HNF12038   0.060   0.782   2.676
  116OSM    C2S12039   0.217   0.782   2.543
  116OSM    H2S12040   0.298   0.710   2.569
  116OSM    C3S12041   0.245   0.920   2.607
  116OSM    H3S12042   0.149   0.977   2.605
  116OSM     O312043   0.341   1.002   2.544
  116OSM    HO312044   0.360   0.960   2.458
  116OSM    C4S12045   0.288   0.902   2.749
  116OSM    H4S12046   0.353   0.816   2.769
  116OSM    C5S12047   0.254   0.983   2.851
  116OSM    H5S12048   0.188   1.068   2.832
  116OSM    C6S12049   0.300   0.965   2.993
  116OSM    H6S12050   0.224   1.010   3.060
  116OSM    H6T12051   0.395   1.020   3.009
  116OSM    C7S12052   0.322   0.818   3.031
  116OSM    H7S12053   0.409   0.778   2.974
  116OSM    H7T12054   0.234   0.761   2.996
  116OSM    C8S12055   0.351   0.792   3.179
  116OSM    H8S12056   0.456   0.825   3.200
  116OSM    H8T12057   0.344   0.683   3.195
  116OSM    C9S12058   0.261   0.859   3.284
  116OSM    H9S12059   0.161   0.812   3.276
  116OSM    H9T12060   0.251   0.968   3.265
  116OSM   C10S12061   0.307   0.839   3.429
  116OSM   H10S12062   0.225   0.880   3.492
  116OSM   H10T12063   0.398   0.899   3.450
  116OSM   C11S12064   0.328   0.691   3.464
  116OSM   H11S12065   0.425   0.656   3.420
  116OSM   H11T12066   0.246   0.635   3.415
  116OSM   C12S12067   0.324   0.656   3.613
  116OSM   H12S12068   0.414   0.689   3.666
  116OSM   H12T12069   0.329   0.546   3.622
  116OSM   C13S12070   0.206   0.718   3.688
  116OSM   H13S12071   0.113   0.707   3.628
  116OSM   H13T12072   0.228   0.826   3.697
  116OSM   C14S12073   0.180   0.660   3.828
  116OSM   H14S12074   0.225   0.559   3.830
  116OSM   H14T12075   0.071   0.650   3.844
  116OSM   C15S12076   0.237   0.736   3.947
  116OSM   H15S12077   0.212   0.844   3.943
  116OSM   H15T12078   0.348   0.729   3.944
  116OSM   C16S12079   0.185   0.673   4.078
  116OSM   H16S12080   0.185   0.563   4.067
  116OSM   H16T12081   0.078   0.699   4.093
  116OSM   C17S12082   0.266   0.709   4.202
  116OSM   H17S12083   0.194   0.733   4.283
  116OSM   H17T12084   0.325   0.802   4.184
  116OSM   C18S12085   0.359   0.595   4.242
  116OSM   H18S12086   0.305   0.507   4.280
  116OSM   H18T12087   0.437   0.623   4.316
  116OSM   H18U12088   0.413   0.561   4.153
  116OSM    C1F12089   0.014   0.632   2.558
  116OSM     OF12090   0.042   0.545   2.477
  116OSM    C2F12091  -0.124   0.642   2.613
  116OSM    H2F12092  -0.198   0.595   2.544
  116OSM    H2G12093  -0.151   0.750   2.622
  116OSM    C3F12094  -0.132   0.576   2.752
  116OSM    H3F12095  -0.126   0.466   2.743
  116OSM    H3G12096  -0.232   0.603   2.794
  116OSM    C4F12097  -0.026   0.624   2.853
  116OSM    H4F12098  -0.022   0.734   2.841
  116OSM    H4G12099   0.075   0.584   2.828
  116OSM    C5F12100  -0.060   0.587   2.998
  116OSM    H5F12101  -0.029   0.482   3.019
  116OSM    H5G12102  -0.171   0.592   3.010
  116OSM    C6F12103  -0.000   0.684   3.101
  116OSM    H6F12104   0.109   0.665   3.107
  116OSM    H6G12105  -0.038   0.661   3.203
  116OSM    C7F12106  -0.033   0.830   3.065
  116OSM    H7F12107  -0.128   0.831   3.009
  116OSM    H7G12108   0.042   0.869   2.993
  116OSM    C8F12109  -0.043   0.928   3.182
  116OSM    H8F12110   0.049   0.989   3.173
  116OSM    H8G12111  -0.037   0.874   3.279
  116OSM    C9F12112  -0.162   1.020   3.185
  116OSM    H9F12113  -0.255   0.986   3.137
  116OSM   C10F12114  -0.162   1.133   3.254
  116OSM   H10F12115  -0.256   1.185   3.272
  116OSM   C11F12116  -0.045   1.179   3.336
  116OSM   H11F12117  -0.024   1.287   3.328
  116OSM   H11G12118   0.052   1.133   3.307
  116OSM   C12F12119  -0.077   1.142   3.480
  116OSM   H12F12120  -0.136   1.047   3.488
  116OSM   H12G12121  -0.139   1.223   3.526
  116OSM   C13F12122   0.048   1.121   3.563
  116OSM   H13F12123   0.125   1.198   3.541
  116OSM   H13G12124   0.090   1.022   3.535
  116OSM   C14F12125   0.012   1.122   3.710
  116OSM   H14F12126  -0.068   1.047   3.729
  116OSM   H14G12127  -0.026   1.222   3.738
  116OSM   C15F12128   0.133   1.087   3.794
  116OSM   H15F12129   0.223   1.141   3.755
  116OSM   H15G12130   0.152   0.979   3.785
  116OSM   C16F12131   0.116   1.120   3.941
  116OSM   H16F12132   0.125   1.230   3.953
  116OSM   H16G12133   0.201   1.071   3.994
  116OSM   C17F12134  -0.018   1.078   4.005
  116OSM   H17F12135  -0.102   1.127   3.952
  116OSM   H17G12136  -0.018   1.116   4.109
  116OSM   C18F12137  -0.043   0.928   4.012
  116OSM   H18F12138   0.029   0.888   4.085
  116OSM   H18G12139  -0.030   0.878   3.914
  116OSM   H18H12140  -0.145   0.905   4.050
  117SAPC     N12141   4.576   2.554   6.433
  117SAPC   C1212142   4.517   2.631   6.316
  117SAPC  H12A12143   4.512   2.736   6.345
  117SAPC  H12B12144   4.416   2.597   6.296
  117SAPC   C1312145   4.491   2.564   6.556
  117SAPC  H13A12146   4.394   2.519   6.543
  117SAPC  H13B12147   4.542   2.511   6.637
  117SAPC  H13C12148   4.480   2.668   6.587
  117SAPC   C1412149   4.594   2.410   6.398
  117SAPC  H14A12150   4.498   2.357   6.394
  117SAPC  H14B12151   4.644   2.402   6.302
  117SAPC  H14C12152   4.657   2.361   6.472
  117SAPC   C1512153   4.710   2.610   6.469
  117SAPC  H15A12154   4.775   2.607   6.381
  117SAPC  H15B12155   4.702   2.714   6.496
  117SAPC  H15C12156   4.758   2.555   6.549
  117SAPC   C1112157   4.594   2.631   6.181
  117SAPC  H11A12158   4.543   2.700   6.110
  117SAPC  H11B12159   4.587   2.530   6.135
  117SAPC     P12160   4.856   2.606   6.135
  117SAPC   O1312161   4.947   2.710   6.083
  117SAPC   O1412162   4.913   2.518   6.239
  117SAPC   O1212163   4.728   2.675   6.199
  117SAPC   O1112164   4.799   2.507   6.021
  117SAPC    C112165   4.787   2.367   6.057
  117SAPC    HA12166   4.889   2.324   6.073
  117SAPC    HB12167   4.730   2.355   6.151
  117SAPC    C212168   4.719   2.266   5.957
  117SAPC    HS12169   4.727   2.170   6.013
  117SAPC   O2112170   4.788   2.262   5.832
  117SAPC   C2112171   4.848   2.153   5.794
  117SAPC   O2212172   4.864   2.051   5.859
  117SAPC   C2212173   4.907   2.180   5.654
  117SAPC   H2R12174   4.936   2.288   5.654
  117SAPC   H2S12175   4.998   2.119   5.644
  117SAPC    C312176   4.568   2.289   5.922
  117SAPC    HX12177   4.512   2.324   6.012
  117SAPC    HY12178   4.523   2.193   5.890
  117SAPC   O3112179   4.558   2.386   5.819
  117SAPC   C3112180   4.473   2.376   5.721
  117SAPC   O3212181   4.382   2.296   5.710
  117SAPC   C3212182   4.502   2.487   5.620
  117SAPC   H2X12183   4.412   2.497   5.557
  117SAPC   H2Y12184   4.586   2.453   5.555
  117SAPC   C2312185   4.822   2.156   5.527
  117SAPC   H3R12186   4.713   2.144   5.549
  117SAPC   H3S12187   4.863   2.064   5.481
  117SAPC   C2412188   4.842   2.268   5.423
  117SAPC   H4R12189   4.941   2.314   5.445
  117SAPC   H4S12190   4.764   2.344   5.444
  117SAPC   C2512191   4.841   2.230   5.278
  117SAPC   H5R12192   4.934   2.253   5.223
  117SAPC   C2612193   4.739   2.178   5.207
  117SAPC   H6R12194   4.755   2.158   5.100
  117SAPC   C2712195   4.600   2.147   5.259
  117SAPC   H7R12196   4.557   2.236   5.309
  117SAPC   H7S12197   4.605   2.072   5.341
  117SAPC   C2812198   4.511   2.095   5.148
  117SAPC   H8R12199   4.526   1.991   5.119
  117SAPC   C2912200   4.419   2.166   5.081
  117SAPC   H9R12201   4.363   2.119   4.999
  117SAPC  C21012202   4.391   2.310   5.106
  117SAPC  H10R12203   4.397   2.335   5.215
  117SAPC  H10S12204   4.287   2.337   5.075
  117SAPC  C21112205   4.493   2.384   5.026
  117SAPC  H11R12206   4.520   2.340   4.928
  117SAPC  C21212207   4.545   2.502   5.057
  117SAPC  H12R12208   4.612   2.548   4.983
  117SAPC  C21312209   4.515   2.589   5.176
  117SAPC  H13R12210   4.589   2.572   5.256
  117SAPC  H13S12211   4.420   2.558   5.222
  117SAPC  C21412212   4.509   2.734   5.133
  117SAPC  H14R12213   4.589   2.800   5.167
  117SAPC  C21512214   4.420   2.785   5.047
  117SAPC  H15R12215   4.429   2.890   5.016
  117SAPC  C21612216   4.312   2.702   4.983
  117SAPC  H16R12217   4.222   2.765   4.965
  117SAPC  H16S12218   4.280   2.618   5.047
  117SAPC  C21712219   4.358   2.636   4.853
  117SAPC  H17R12220   4.347   2.526   4.860
  117SAPC  H17S12221   4.465   2.657   4.830
  117SAPC  C21812222   4.269   2.686   4.743
  117SAPC  H18R12223   4.276   2.797   4.743
  117SAPC  H18S12224   4.163   2.659   4.764
  117SAPC  C21912225   4.313   2.633   4.609
  117SAPC  H19R12226   4.267   2.533   4.590
  117SAPC  H19S12227   4.423   2.619   4.611
  117SAPC  C22012228   4.276   2.731   4.500
  117SAPC  H20R12229   4.220   2.677   4.423
  117SAPC  H20S12230   4.366   2.770   4.450
  117SAPC  H20T12231   4.217   2.816   4.539
  117SAPC   C3312232   4.537   2.620   5.691
  117SAPC   H3X12233   4.590   2.602   5.788
  117SAPC   H3Y12234   4.442   2.673   5.717
  117SAPC   C3412235   4.631   2.716   5.617
  117SAPC   H4X12236   4.638   2.805   5.685
  117SAPC   H4Y12237   4.585   2.751   5.523
  117SAPC   C3512238   4.776   2.664   5.598
  117SAPC   H5X12239   4.789   2.572   5.660
  117SAPC   H5Y12240   4.844   2.740   5.643
  117SAPC   C3612241   4.823   2.637   5.453
  117SAPC   H6X12242   4.778   2.542   5.419
  117SAPC   H6Y12243   4.933   2.626   5.454
  117SAPC   C3712244   4.783   2.744   5.350
  117SAPC   H7X12245   4.803   2.846   5.388
  117SAPC   H7Y12246   4.673   2.739   5.340
  117SAPC   C3812247   4.845   2.731   5.209
  117SAPC   H8X12248   4.946   2.773   5.210
  117SAPC   H8Y12249   4.790   2.797   5.139
  117SAPC   C3912250   4.855   2.590   5.148
  117SAPC   H9X12251   4.768   2.529   5.176
  117SAPC   H9Y12252   4.941   2.536   5.191
  117SAPC  C31012253   4.865   2.597   4.995
  117SAPC  H10X12254   4.959   2.650   4.968
  117SAPC  H10Y12255   4.783   2.660   4.954
  117SAPC  C31112256   4.863   2.460   4.926
  117SAPC  H11X12257   4.761   2.417   4.925
  117SAPC  H11Y12258   4.928   2.389   4.980
  117SAPC  C31212259   4.912   2.473   4.782
  117SAPC  H12X12260   5.021   2.449   4.785
  117SAPC  H12Y12261   4.901   2.578   4.746
  117SAPC  C31312262   4.845   2.379   4.682
  117SAPC  H13X12263   4.739   2.404   4.664
  117SAPC  H13Y12264   4.848   2.277   4.725
  117SAPC  C31412265   4.926   2.378   4.552
  117SAPC  H14X12266   5.033   2.395   4.579
  117SAPC  H14Y12267   4.896   2.461   4.484
  117SAPC  C31512268   4.924   2.242   4.482
  117SAPC  H15X12269   4.966   2.167   4.550
  117SAPC  H15Y12270   4.987   2.245   4.391
  117SAPC  C31612271   4.784   2.190   4.454
  117SAPC  H16X12272   4.726   2.179   4.549
  117SAPC  H16Y12273   4.794   2.089   4.408
  117SAPC  C31712274   4.708   2.281   4.362
  117SAPC  H17X12275   4.781   2.331   4.295
  117SAPC  H17Y12276   4.662   2.362   4.423
  117SAPC  C31812277   4.604   2.206   4.281
  117SAPC  H18X12278   4.569   2.271   4.199
  117SAPC  H18Y12279   4.518   2.177   4.345
  117SAPC  H18Z12280   4.648   2.114   4.236
  118SAPC     N12281   5.250   4.638   6.302
  118SAPC   C1212282   5.403   4.644   6.295
  118SAPC  H12A12283   5.442   4.545   6.307
  118SAPC  H12B12284   5.439   4.704   6.379
  118SAPC   C1312285   5.202   4.570   6.426
  118SAPC  H13A12286   5.251   4.608   6.515
  118SAPC  H13B12287   5.096   4.593   6.437
  118SAPC  H13C12288   5.214   4.463   6.420
  118SAPC   C1412289   5.199   4.780   6.307
  118SAPC  H14A12290   5.249   4.838   6.229
  118SAPC  H14B12291   5.093   4.784   6.288
  118SAPC  H14C12292   5.224   4.828   6.400
  118SAPC   C1512293   5.191   4.570   6.181
  118SAPC  H15A12294   5.211   4.629   6.093
  118SAPC  H15B12295   5.232   4.471   6.163
  118SAPC  H15C12296   5.083   4.561   6.191
  118SAPC   C1112297   5.464   4.707   6.168
  118SAPC  H11A12298   5.422   4.658   6.077
  118SAPC  H11B12299   5.574   4.690   6.164
  118SAPC     P12300   5.519   4.961   6.220
  118SAPC   O1312301   5.521   5.069   6.119
  118SAPC   O1412302   5.472   4.996   6.355
  118SAPC   O1212303   5.432   4.844   6.162
  118SAPC   O1112304   5.666   4.901   6.232
  118SAPC    C112305   5.775   4.982   6.184
  118SAPC    HA12306   5.748   5.089   6.165
  118SAPC    HB12307   5.855   4.984   6.261
  118SAPC    C212308   5.841   4.937   6.050
  118SAPC    HS12309   5.926   5.006   6.034
  118SAPC   O2112310   5.748   4.946   5.940
  118SAPC   C2112311   5.732   5.069   5.892
  118SAPC   O2212312   5.793   5.169   5.926
  118SAPC   C2212313   5.640   5.062   5.769
  118SAPC   H2R12314   5.635   5.165   5.729
  118SAPC   H2S12315   5.691   4.999   5.693
  118SAPC    C312316   5.899   4.792   6.056
  118SAPC    HX12317   5.937   4.773   6.158
  118SAPC    HY12318   5.991   4.792   5.992
  118SAPC   O3112319   5.805   4.688   6.021
  118SAPC   C3112320   5.817   4.644   5.895
  118SAPC   O3212321   5.911   4.670   5.822
  118SAPC   C3212322   5.692   4.567   5.853
  118SAPC   H2X12323   5.604   4.632   5.867
  118SAPC   H2Y12324   5.680   4.479   5.919
  118SAPC   C2312325   5.500   5.004   5.804
  118SAPC   H3R12326   5.451   5.070   5.878
  118SAPC   H3S12327   5.516   4.906   5.855
  118SAPC   C2412328   5.403   4.979   5.686
  118SAPC   H4R12329   5.349   5.071   5.656
  118SAPC   H4S12330   5.322   4.913   5.726
  118SAPC   C2512331   5.465   4.910   5.567
  118SAPC   H5R12332   5.475   4.804   5.588
  118SAPC   C2612333   5.509   4.954   5.447
  118SAPC   H6R12334   5.550   4.879   5.376
  118SAPC   C2712335   5.507   5.094   5.394
  118SAPC   H7R12336   5.602   5.145   5.423
  118SAPC   H7S12337   5.425   5.149   5.444
  118SAPC   C2812338   5.483   5.113   5.246
  118SAPC   H8R12339   5.378   5.136   5.225
  118SAPC   C2912340   5.567   5.113   5.140
  118SAPC   H9R12341   5.524   5.135   5.042
  118SAPC  C21012342   5.716   5.092   5.130
  118SAPC  H10R12343   5.739   5.069   5.023
  118SAPC  H10S12344   5.768   5.188   5.148
  118SAPC  C21112345   5.780   4.983   5.212
  118SAPC  H11R12346   5.811   5.014   5.312
  118SAPC  C21212347   5.768   4.852   5.188
  118SAPC  H12R12348   5.822   4.779   5.250
  118SAPC  C21312349   5.687   4.802   5.073
  118SAPC  H13R12350   5.657   4.882   5.002
  118SAPC  H13S12351   5.595   4.769   5.122
  118SAPC  C21412352   5.728   4.680   4.999
  118SAPC  H14R12353   5.820   4.629   5.034
  118SAPC  C21512354   5.668   4.640   4.887
  118SAPC  H15R12355   5.714   4.558   4.833
  118SAPC  C21612356   5.552   4.702   4.811
  118SAPC  H16R12357   5.530   4.806   4.845
  118SAPC  H16S12358   5.460   4.643   4.830
  118SAPC  C21712359   5.584   4.709   4.659
  118SAPC  H17R12360   5.684   4.665   4.649
  118SAPC  H17S12361   5.517   4.646   4.597
  118SAPC  C21812362   5.602   4.852   4.601
  118SAPC  H18R12363   5.608   4.922   4.687
  118SAPC  H18S12364   5.508   4.873   4.547
  118SAPC  C21912365   5.722   4.871   4.501
  118SAPC  H19R12366   5.684   4.861   4.399
  118SAPC  H19S12367   5.789   4.784   4.513
  118SAPC  C22012368   5.810   4.999   4.500
  118SAPC  H20R12369   5.859   5.006   4.400
  118SAPC  H20S12370   5.896   4.995   4.569
  118SAPC  H20T12371   5.755   5.093   4.518
  118SAPC   C3312372   5.699   4.520   5.705
  118SAPC   H3X12373   5.635   4.429   5.694
  118SAPC   H3Y12374   5.802   4.492   5.674
  118SAPC   C3412375   5.642   4.628   5.614
  118SAPC   H4X12376   5.701   4.722   5.626
  118SAPC   H4Y12377   5.540   4.643   5.655
  118SAPC   C3512378   5.629   4.592   5.464
  118SAPC   H5X12379   5.675   4.492   5.446
  118SAPC   H5Y12380   5.685   4.667   5.403
  118SAPC   C3612381   5.482   4.591   5.419
  118SAPC   H6X12382   5.437   4.692   5.426
  118SAPC   H6Y12383   5.424   4.526   5.489
  118SAPC   C3712384   5.462   4.544   5.275
  118SAPC   H7X12385   5.502   4.441   5.272
  118SAPC   H7Y12386   5.526   4.601   5.205
  118SAPC   C3812387   5.314   4.549   5.229
  118SAPC   H8X12388   5.253   4.498   5.306
  118SAPC   H8Y12389   5.305   4.490   5.135
  118SAPC   C3912390   5.254   4.690   5.204
  118SAPC   H9X12391   5.262   4.750   5.298
  118SAPC   H9Y12392   5.146   4.679   5.180
  118SAPC  C31012393   5.321   4.771   5.092
  118SAPC  H10X12394   5.338   4.708   5.002
  118SAPC  H10Y12395   5.417   4.803   5.134
  118SAPC  C31112396   5.255   4.905   5.053
  118SAPC  H11X12397   5.256   4.966   5.146
  118SAPC  H11Y12398   5.150   4.892   5.021
  118SAPC  C31212399   5.335   4.982   4.946
  118SAPC  H12X12400   5.443   4.958   4.955
  118SAPC  H12Y12401   5.324   5.091   4.965
  118SAPC  C31312402   5.291   4.955   4.802
  118SAPC  H13X12403   5.180   4.953   4.797
  118SAPC  H13Y12404   5.328   4.855   4.771
  118SAPC  C31412405   5.343   5.061   4.703
  118SAPC  H14X12406   5.454   5.067   4.711
  118SAPC  H14Y12407   5.302   5.161   4.729
  118SAPC  C31512408   5.304   5.026   4.559
  118SAPC  H15X12409   5.200   5.058   4.539
  118SAPC  H15Y12410   5.306   4.915   4.550
  118SAPC  C31612411   5.399   5.085   4.453
  118SAPC  H16X12412   5.505   5.069   4.480
  118SAPC  H16Y12413   5.383   5.195   4.449
  118SAPC  C31712414   5.374   5.024   4.314
  118SAPC  H17X12415   5.411   5.092   4.235
  118SAPC  H17Y12416   5.264   5.019   4.304
  118SAPC  C31812417   5.433   4.884   4.287
  118SAPC  H18X12418   5.542   4.889   4.280
  118SAPC  H18Y12419   5.398   4.844   4.190
  118SAPC  H18Z12420   5.404   4.812   4.367
  119SAPC     N12421   5.716   5.300   6.431
  119SAPC   C1212422   5.750   5.437   6.489
  119SAPC  H12A12423   5.831   5.426   6.559
  119SAPC  H12B12424   5.664   5.473   6.545
  119SAPC   C1312425   5.831   5.257   6.346
  119SAPC  H13A12426   5.922   5.248   6.404
  119SAPC  H13B12427   5.811   5.159   6.304
  119SAPC  H13C12428   5.848   5.328   6.266
  119SAPC   C1412429   5.688   5.194   6.531
  119SAPC  H14A12430   5.773   5.170   6.594
  119SAPC  H14B12431   5.609   5.223   6.599
  119SAPC  H14C12432   5.653   5.103   6.482
  119SAPC   C1512433   5.591   5.310   6.349
  119SAPC  H15A12434   5.507   5.337   6.412
  119SAPC  H15B12435   5.602   5.386   6.273
  119SAPC  H15C12436   5.565   5.217   6.299
  119SAPC   C1112437   5.789   5.549   6.388
  119SAPC  H11A12438   5.889   5.528   6.343
  119SAPC  H11B12439   5.796   5.646   6.443
  119SAPC     P12440   5.703   5.626   6.148
  119SAPC   O1312441   5.687   5.770   6.181
  119SAPC   O1412442   5.818   5.577   6.072
  119SAPC   O1212443   5.689   5.556   6.288
  119SAPC   O1112444   5.569   5.579   6.082
  119SAPC    C112445   5.453   5.574   6.164
  119SAPC    HA12446   5.432   5.467   6.186
  119SAPC    HB12447   5.463   5.624   6.263
  119SAPC    C212448   5.334   5.640   6.091
  119SAPC    HS12449   5.244   5.630   6.157
  119SAPC   O2112450   5.309   5.578   5.966
  119SAPC   C2112451   5.287   5.451   5.964
  119SAPC   O2212452   5.252   5.381   6.058
  119SAPC   C2212453   5.305   5.402   5.822
  119SAPC   H2R12454   5.247   5.308   5.811
  119SAPC   H2S12455   5.264   5.479   5.753
  119SAPC    C312456   5.353   5.791   6.065
  119SAPC    HX12457   5.393   5.835   6.159
  119SAPC    HY12458   5.253   5.833   6.046
  119SAPC   O3112459   5.443   5.828   5.959
  119SAPC   C3112460   5.402   5.818   5.833
  119SAPC   O3212461   5.301   5.763   5.792
  119SAPC   C3212462   5.489   5.907   5.748
  119SAPC   H2X12463   5.566   5.955   5.810
  119SAPC   H2Y12464   5.424   5.989   5.712
  119SAPC   C2312465   5.451   5.380   5.779
  119SAPC   H3R12466   5.501   5.305   5.845
  119SAPC   H3S12467   5.509   5.473   5.792
  119SAPC   C2412468   5.447   5.331   5.633
  119SAPC   H4R12469   5.344   5.345   5.593
  119SAPC   H4S12470   5.464   5.223   5.639
  119SAPC   C2512471   5.550   5.386   5.539
  119SAPC   H5R12472   5.651   5.393   5.580
  119SAPC   C2612473   5.527   5.430   5.414
  119SAPC   H6R12474   5.613   5.473   5.361
  119SAPC   C2712475   5.397   5.435   5.337
  119SAPC   H7R12476   5.341   5.526   5.368
  119SAPC   H7S12477   5.331   5.349   5.363
  119SAPC   C2812478   5.419   5.440   5.188
  119SAPC   H8R12479   5.393   5.349   5.131
  119SAPC   C2912480   5.470   5.545   5.121
  119SAPC   H9R12481   5.483   5.538   5.012
  119SAPC  C21012482   5.512   5.677   5.183
  119SAPC  H10R12483   5.608   5.709   5.136
  119SAPC  H10S12484   5.534   5.668   5.291
  119SAPC  C21112485   5.404   5.779   5.163
  119SAPC  H11R12486   5.331   5.790   5.244
  119SAPC  C21212487   5.395   5.857   5.054
  119SAPC  H12R12488   5.307   5.922   5.040
  119SAPC  C21312489   5.493   5.850   4.939
  119SAPC  H13R12490   5.509   5.744   4.912
  119SAPC  H13S12491   5.592   5.888   4.972
  119SAPC  C21412492   5.452   5.927   4.815
  119SAPC  H14R12493   5.478   6.034   4.814
  119SAPC  C21512494   5.384   5.874   4.712
  119SAPC  H15R12495   5.362   5.937   4.625
  119SAPC  C21612496   5.337   5.731   4.703
  119SAPC  H16R12497   5.316   5.687   4.804
  119SAPC  H16S12498   5.416   5.669   4.656
  119SAPC  C21712499   5.208   5.718   4.619
  119SAPC  H17R12500   5.213   5.619   4.569
  119SAPC  H17S12501   5.205   5.796   4.541
  119SAPC  C21812502   5.079   5.728   4.700
  119SAPC  H18R12503   5.076   5.827   4.751
  119SAPC  H18S12504   5.078   5.649   4.778
  119SAPC  C21912505   4.955   5.715   4.610
  119SAPC  H19R12506   4.959   5.794   4.533
  119SAPC  H19S12507   4.864   5.732   4.672
  119SAPC  C22012508   4.944   5.578   4.542
  119SAPC  H20R12509   4.850   5.571   4.482
  119SAPC  H20S12510   4.943   5.498   4.619
  119SAPC  H20T12511   5.029   5.560   4.473
  119SAPC   C3312512   5.546   5.833   5.626
  119SAPC   H3X12513   5.639   5.884   5.594
  119SAPC   H3Y12514   5.472   5.841   5.543
  119SAPC   C3412515   5.578   5.685   5.642
  119SAPC   H4X12516   5.589   5.646   5.539
  119SAPC   H4Y12517   5.489   5.633   5.683
  119SAPC   C3512518   5.706   5.648   5.718
  119SAPC   H5X12519   5.713   5.537   5.725
  119SAPC   H5Y12520   5.701   5.683   5.823
  119SAPC   C3612521   5.836   5.698   5.652
  119SAPC   H6X12522   5.924   5.642   5.693
  119SAPC   H6Y12523   5.850   5.803   5.684
  119SAPC   C3712524   5.842   5.709   5.500
  119SAPC   H7X12525   5.921   5.784   5.481
  119SAPC   H7Y12526   5.749   5.751   5.457
  119SAPC   C3812527   5.879   5.580   5.428
  119SAPC   H8X12528   5.806   5.500   5.453
  119SAPC   H8Y12529   5.979   5.546   5.462
  119SAPC   C3912530   5.880   5.604   5.278
  119SAPC   H9X12531   5.977   5.651   5.249
  119SAPC   H9Y12532   5.800   5.677   5.251
  119SAPC  C31012533   5.857   5.478   5.196
  119SAPC  H10X12534   5.751   5.446   5.206
  119SAPC  H10Y12535   5.921   5.395   5.233
  119SAPC  C31112536   5.885   5.506   5.049
  119SAPC  H11X12537   5.991   5.539   5.035
  119SAPC  H11Y12538   5.820   5.590   5.015
  119SAPC  C31212539   5.858   5.385   4.961
  119SAPC  H12X12540   5.754   5.350   4.978
  119SAPC  H12Y12541   5.924   5.302   4.990
  119SAPC  C31312542   5.881   5.420   4.815
  119SAPC  H13X12543   5.987   5.404   4.784
  119SAPC  H13Y12544   5.861   5.529   4.809
  119SAPC  C31412545   5.785   5.346   4.722
  119SAPC  H14X12546   5.683   5.347   4.768
  119SAPC  H14Y12547   5.815   5.239   4.711
  119SAPC  C31512548   5.774   5.413   4.585
  119SAPC  H15X12549   5.690   5.364   4.532
  119SAPC  H15Y12550   5.865   5.395   4.525
  119SAPC  C31612551   5.750   5.564   4.594
  119SAPC  H16X12552   5.843   5.616   4.626
  119SAPC  H16Y12553   5.671   5.586   4.669
  119SAPC  C31712554   5.710   5.625   4.461
  119SAPC  H17X12555   5.791   5.608   4.387
  119SAPC  H17Y12556   5.698   5.735   4.475
  119SAPC  C31812557   5.582   5.569   4.403
  119SAPC  H18X12558   5.557   5.624   4.310
  119SAPC  H18Y12559   5.499   5.580   4.476
  119SAPC  H18Z12560   5.588   5.463   4.376
  120SAPC     N12561   0.681   3.845   6.114
  120SAPC   C1212562   0.760   3.972   6.141
  120SAPC  H12A12563   0.726   4.053   6.078
  120SAPC  H12B12564   0.866   3.957   6.119
  120SAPC   C1312565   0.536   3.869   6.140
  120SAPC  H13A12566   0.522   3.913   6.238
  120SAPC  H13B12567   0.493   3.940   6.069
  120SAPC  H13C12568   0.478   3.778   6.137
  120SAPC   C1412569   0.702   3.796   5.975
  120SAPC  H14A12570   0.806   3.768   5.959
  120SAPC  H14B12571   0.642   3.708   5.956
  120SAPC  H14C12572   0.676   3.871   5.903
  120SAPC   C1512573   0.727   3.740   6.212
  120SAPC  H15A12574   0.831   3.713   6.197
  120SAPC  H15B12575   0.729   3.786   6.311
  120SAPC  H15C12576   0.663   3.653   6.217
  120SAPC   C1112577   0.757   4.022   6.287
  120SAPC  H11A12578   0.653   4.026   6.324
  120SAPC  H11B12579   0.793   4.126   6.289
  120SAPC     P12580   0.946   3.974   6.473
  120SAPC   O1312581   0.885   4.049   6.583
  120SAPC   O1412582   1.023   3.853   6.515
  120SAPC   O1212583   0.834   3.934   6.368
  120SAPC   O1112584   1.042   4.071   6.395
  120SAPC    C112585   1.020   4.209   6.362
  120SAPC    HA12586   0.917   4.245   6.381
  120SAPC    HB12587   1.084   4.269   6.430
  120SAPC    C212588   1.066   4.240   6.216
  120SAPC    HS12589   1.091   4.348   6.211
  120SAPC   O2112590   0.962   4.209   6.119
  120SAPC   C2112591   0.964   4.274   6.001
  120SAPC   O2212592   1.042   4.360   5.970
  120SAPC   C2212593   0.847   4.220   5.916
  120SAPC   H2R12594   0.860   4.110   5.908
  120SAPC   H2S12595   0.754   4.243   5.971
  120SAPC    C312596   1.198   4.158   6.192
  120SAPC    HX12597   1.257   4.173   6.285
  120SAPC    HY12598   1.256   4.206   6.111
  120SAPC   O3112599   1.186   4.015   6.173
  120SAPC   C3112600   1.141   3.975   6.056
  120SAPC   O3212601   1.114   4.046   5.960
  120SAPC   C3212602   1.123   3.825   6.060
  120SAPC   H2X12603   1.059   3.803   6.149
  120SAPC   H2Y12604   1.222   3.779   6.079
  120SAPC   C2312605   0.837   4.279   5.773
  120SAPC   H3R12606   0.920   4.240   5.710
  120SAPC   H3S12607   0.848   4.389   5.780
  120SAPC   C2412608   0.700   4.254   5.706
  120SAPC   H4R12609   0.701   4.307   5.608
  120SAPC   H4S12610   0.622   4.304   5.768
  120SAPC   C2512611   0.663   4.109   5.690
  120SAPC   H5R12612   0.662   4.051   5.784
  120SAPC   C2612613   0.628   4.046   5.577
  120SAPC   H6R12614   0.602   3.939   5.583
  120SAPC   C2712615   0.618   4.103   5.438
  120SAPC   H7R12616   0.624   4.214   5.437
  120SAPC   H7S12617   0.519   4.077   5.394
  120SAPC   C2812618   0.727   4.039   5.355
  120SAPC   H8R12619   0.715   3.930   5.346
  120SAPC   C2912620   0.829   4.097   5.290
  120SAPC   H9R12621   0.899   4.033   5.234
  120SAPC  C21012622   0.864   4.243   5.279
  120SAPC  H10R12623   0.771   4.303   5.290
  120SAPC  H10S12624   0.896   4.262   5.175
  120SAPC  C21112625   0.966   4.302   5.375
  120SAPC  H11R12626   0.928   4.314   5.478
  120SAPC  C21212627   1.091   4.344   5.346
  120SAPC  H12R12628   1.150   4.390   5.427
  120SAPC  C21312629   1.160   4.340   5.211
  120SAPC  H13R12630   1.112   4.256   5.157
  120SAPC  H13S12631   1.264   4.306   5.230
  120SAPC  C21412632   1.173   4.456   5.116
  120SAPC  H14R12633   1.190   4.554   5.164
  120SAPC  C21512634   1.152   4.453   4.983
  120SAPC  H15R12635   1.155   4.548   4.927
  120SAPC  C21612636   1.111   4.334   4.898
  120SAPC  H16R12637   1.096   4.241   4.957
  120SAPC  H16S12638   1.188   4.311   4.821
  120SAPC  C21712639   0.978   4.371   4.831
  120SAPC  H17R12640   1.001   4.444   4.752
  120SAPC  H17S12641   0.912   4.419   4.907
  120SAPC  C21812642   0.894   4.256   4.772
  120SAPC  H18R12643   0.794   4.298   4.745
  120SAPC  H18S12644   0.876   4.180   4.851
  120SAPC  C21912645   0.955   4.191   4.648
  120SAPC  H19R12646   0.899   4.099   4.623
  120SAPC  H19S12647   1.059   4.159   4.673
  120SAPC  C22012648   0.956   4.281   4.524
  120SAPC  H20R12649   1.007   4.230   4.440
  120SAPC  H20S12650   1.010   4.375   4.547
  120SAPC  H20T12651   0.853   4.308   4.492
  120SAPC   C3312652   1.060   3.769   5.931
  120SAPC   H3X12653   0.968   3.825   5.904
  120SAPC   H3Y12654   1.032   3.663   5.954
  120SAPC   C3412655   1.155   3.769   5.811
  120SAPC   H4X12656   1.253   3.728   5.847
  120SAPC   H4Y12657   1.176   3.872   5.774
  120SAPC   C3512658   1.107   3.679   5.697
  120SAPC   H5X12659   1.063   3.586   5.739
  120SAPC   H5Y12660   1.199   3.648   5.642
  120SAPC   C3612661   1.011   3.738   5.592
  120SAPC   H6X12662   0.983   3.842   5.617
  120SAPC   H6Y12663   0.918   3.677   5.589
  120SAPC   C3712664   1.077   3.735   5.452
  120SAPC   H7X12665   1.126   3.637   5.437
  120SAPC   H7Y12666   1.158   3.812   5.456
  120SAPC   C3812667   0.985   3.760   5.331
  120SAPC   H8X12668   0.916   3.843   5.356
  120SAPC   H8Y12669   0.924   3.670   5.313
  120SAPC   C3912670   1.065   3.797   5.204
  120SAPC   H9X12671   1.172   3.778   5.227
  120SAPC   H9Y12672   1.050   3.905   5.183
  120SAPC  C31012673   1.040   3.715   5.078
  120SAPC  H10X12674   0.934   3.682   5.079
  120SAPC  H10Y12675   1.107   3.626   5.084
  120SAPC  C31112676   1.075   3.776   4.941
  120SAPC  H11X12677   1.061   3.695   4.865
  120SAPC  H11Y12678   1.183   3.802   4.938
  120SAPC  C31212679   0.990   3.896   4.900
  120SAPC  H12X12680   0.999   3.912   4.790
  120SAPC  H12Y12681   1.034   3.986   4.949
  120SAPC  C31312682   0.841   3.888   4.941
  120SAPC  H13X12683   0.796   3.988   4.926
  120SAPC  H13Y12684   0.836   3.870   5.051
  120SAPC  C31412685   0.754   3.782   4.870
  120SAPC  H14X12686   0.699   3.724   4.947
  120SAPC  H14Y12687   0.818   3.710   4.814
  120SAPC  C31512688   0.651   3.845   4.775
  120SAPC  H15X12689   0.592   3.918   4.835
  120SAPC  H15Y12690   0.579   3.770   4.737
  120SAPC  C31612691   0.719   3.922   4.660
  120SAPC  H16X12692   0.827   3.895   4.658
  120SAPC  H16Y12693   0.712   4.029   4.688
  120SAPC  C31712694   0.668   3.906   4.517
  120SAPC  H17X12695   0.563   3.870   4.514
  120SAPC  H17Y12696   0.728   3.828   4.464
  120SAPC  C31812697   0.678   4.038   4.440
  120SAPC  H18X12698   0.619   4.036   4.346
  120SAPC  H18Y12699   0.784   4.059   4.415
  120SAPC  H18Z12700   0.639   4.122   4.503
  121SAPC     N12701   2.046   6.410   6.196
  121SAPC   C1212702   2.176   6.478   6.168
  121SAPC  H12A12703   2.172   6.534   6.077
  121SAPC  H12B12704   2.251   6.401   6.150
  121SAPC   C1312705   1.938   6.510   6.214
  121SAPC  H13A12706   1.959   6.573   6.299
  121SAPC  H13B12707   1.917   6.569   6.126
  121SAPC  H13C12708   1.846   6.455   6.239
  121SAPC   C1412709   2.008   6.319   6.087
  121SAPC  H14A12710   1.993   6.369   5.992
  121SAPC  H14B12711   2.085   6.244   6.075
  121SAPC  H14C12712   1.919   6.262   6.109
  121SAPC   C1512713   2.053   6.325   6.318
  121SAPC  H15A12714   1.953   6.309   6.358
  121SAPC  H15B12715   2.101   6.230   6.297
  121SAPC  H15C12716   2.111   6.375   6.395
  121SAPC   C1112717   2.230   6.567   6.281
  121SAPC  H11A12718   2.152   6.638   6.315
  121SAPC  H11B12719   2.315   6.629   6.242
  121SAPC     P12720   2.419   6.444   6.408
  121SAPC   O1312721   2.483   6.567   6.461
  121SAPC   O1412722   2.432   6.325   6.496
  121SAPC   O1212723   2.268   6.482   6.389
  121SAPC   O1112724   2.458   6.407   6.262
  121SAPC    C112725   2.438   6.285   6.192
  121SAPC    HA12726   2.507   6.207   6.229
  121SAPC    HB12727   2.333   6.249   6.202
  121SAPC    C212728   2.473   6.315   6.044
  121SAPC    HS12729   2.580   6.345   6.046
  121SAPC   O2112730   2.390   6.426   6.005
  121SAPC   C2112731   2.430   6.488   5.899
  121SAPC   O2212732   2.521   6.454   5.825
  121SAPC   C2212733   2.338   6.606   5.880
  121SAPC   H2R12734   2.272   6.614   5.968
  121SAPC   H2S12735   2.394   6.701   5.883
  121SAPC    C312736   2.457   6.198   5.941
  121SAPC    HX12737   2.456   6.101   5.996
  121SAPC    HY12738   2.550   6.199   5.878
  121SAPC   O3112739   2.346   6.211   5.848
  121SAPC   C3112740   2.230   6.179   5.903
  121SAPC   O3212741   2.216   6.138   6.017
  121SAPC   C3212742   2.114   6.202   5.805
  121SAPC   H2X12743   2.136   6.290   5.742
  121SAPC   H2Y12744   2.023   6.225   5.861
  121SAPC   C2312745   2.258   6.586   5.751
  121SAPC   H3R12746   2.221   6.481   5.745
  121SAPC   H3S12747   2.322   6.602   5.662
  121SAPC   C2412748   2.136   6.678   5.747
  121SAPC   H4R12749   2.091   6.666   5.645
  121SAPC   H4S12750   2.173   6.783   5.753
  121SAPC   C2512751   2.039   6.647   5.859
  121SAPC   H5R12752   2.072   6.676   5.960
  121SAPC   C2612753   1.915   6.598   5.846
  121SAPC   H6R12754   1.849   6.600   5.933
  121SAPC   C2712755   1.850   6.565   5.714
  121SAPC   H7R12756   1.927   6.538   5.639
  121SAPC   H7S12757   1.813   6.665   5.688
  121SAPC   C2812758   1.723   6.490   5.687
  121SAPC   H8R12759   1.632   6.533   5.732
  121SAPC   C2912760   1.710   6.383   5.608
  121SAPC   H9R12761   1.610   6.342   5.589
  121SAPC  C21012762   1.825   6.321   5.533
  121SAPC  H10R12763   1.900   6.301   5.612
  121SAPC  H10S12764   1.870   6.396   5.464
  121SAPC  C21112765   1.789   6.192   5.462
  121SAPC  H11R12766   1.723   6.128   5.522
  121SAPC  C21212767   1.830   6.145   5.341
  121SAPC  H12R12768   1.790   6.046   5.312
  121SAPC  C21312769   1.924   6.203   5.236
  121SAPC  H13R12770   1.917   6.140   5.145
  121SAPC  H13S12771   2.027   6.195   5.272
  121SAPC  C21412772   1.900   6.346   5.196
  121SAPC  H14R12773   1.810   6.386   5.241
  121SAPC  C21512774   1.973   6.434   5.125
  121SAPC  H15R12775   1.927   6.533   5.114
  121SAPC  C21612776   2.107   6.431   5.056
  121SAPC  H16R12777   2.178   6.444   5.138
  121SAPC  H16S12778   2.116   6.526   5.001
  121SAPC  C21712779   2.168   6.321   4.965
  121SAPC  H17R12780   2.149   6.219   5.004
  121SAPC  H17S12781   2.279   6.336   4.967
  121SAPC  C21812782   2.133   6.331   4.816
  121SAPC  H18R12783   2.027   6.304   4.806
  121SAPC  H18S12784   2.189   6.251   4.761
  121SAPC  C21912785   2.171   6.466   4.752
  121SAPC  H19R12786   2.220   6.531   4.828
  121SAPC  H19S12787   2.083   6.522   4.716
  121SAPC  C22012788   2.272   6.450   4.639
  121SAPC  H20R12789   2.370   6.429   4.686
  121SAPC  H20S12790   2.280   6.543   4.579
  121SAPC  H20T12791   2.246   6.366   4.572
  121SAPC   C3312792   2.077   6.080   5.719
  121SAPC   H3X12793   1.970   6.054   5.741
  121SAPC   H3Y12794   2.140   5.992   5.745
  121SAPC   C3412795   2.092   6.110   5.571
  121SAPC   H4X12796   2.060   6.214   5.547
  121SAPC   H4Y12797   2.029   6.040   5.511
  121SAPC   C3512798   2.237   6.098   5.529
  121SAPC   H5X12799   2.255   5.989   5.518
  121SAPC   H5Y12800   2.302   6.138   5.610
  121SAPC   C3612801   2.273   6.170   5.400
  121SAPC   H6X12802   2.206   6.141   5.318
  121SAPC   H6Y12803   2.372   6.131   5.369
  121SAPC   C3712804   2.292   6.322   5.410
  121SAPC   H7X12805   2.356   6.348   5.497
  121SAPC   H7Y12806   2.193   6.371   5.424
  121SAPC   C3812807   2.359   6.372   5.280
  121SAPC   H8X12808   2.337   6.480   5.268
  121SAPC   H8Y12809   2.313   6.314   5.197
  121SAPC   C3912810   2.510   6.349   5.272
  121SAPC   H9X12811   2.531   6.240   5.274
  121SAPC   H9Y12812   2.555   6.393   5.364
  121SAPC  C31012813   2.579   6.412   5.149
  121SAPC  H10X12814   2.688   6.399   5.166
  121SAPC  H10Y12815   2.559   6.521   5.149
  121SAPC  C31112816   2.545   6.352   5.010
  121SAPC  H11X12817   2.476   6.420   4.956
  121SAPC  H11Y12818   2.492   6.256   5.025
  121SAPC  C31212819   2.672   6.328   4.924
  121SAPC  H12X12820   2.738   6.267   4.990
  121SAPC  H12Y12821   2.726   6.422   4.903
  121SAPC  C31312822   2.655   6.246   4.794
  121SAPC  H13X12823   2.571   6.174   4.805
  121SAPC  H13Y12824   2.750   6.188   4.785
  121SAPC  C31412825   2.647   6.317   4.658
  121SAPC  H14X12826   2.733   6.386   4.646
  121SAPC  H14Y12827   2.556   6.378   4.658
  121SAPC  C31512828   2.647   6.219   4.539
  121SAPC  H15X12829   2.555   6.156   4.541
  121SAPC  H15Y12830   2.736   6.154   4.549
  121SAPC  C31612831   2.660   6.284   4.402
  121SAPC  H16X12832   2.740   6.362   4.408
  121SAPC  H16Y12833   2.563   6.331   4.380
  121SAPC  C31712834   2.694   6.193   4.283
  121SAPC  H17X12835   2.620   6.112   4.271
  121SAPC  H17Y12836   2.793   6.148   4.306
  121SAPC  C31812837   2.703   6.267   4.149
  121SAPC  H18X12838   2.759   6.212   4.072
  121SAPC  H18Y12839   2.754   6.364   4.165
  121SAPC  H18Z12840   2.602   6.290   4.111
  122SAPC     N12841   1.186   6.376   6.299
  122SAPC   C1212842   1.270   6.347   6.174
  122SAPC  H12A12843   1.326   6.437   6.149
  122SAPC  H12B12844   1.203   6.327   6.091
  122SAPC   C1312845   1.271   6.455   6.394
  122SAPC  H13A12846   1.363   6.397   6.408
  122SAPC  H13B12847   1.303   6.549   6.351
  122SAPC  H13C12848   1.225   6.470   6.490
  122SAPC   C1412849   1.061   6.446   6.260
  122SAPC  H14A12850   1.008   6.388   6.184
  122SAPC  H14B12851   0.994   6.455   6.344
  122SAPC  H14C12852   1.081   6.544   6.220
  122SAPC   C1512853   1.155   6.246   6.365
  122SAPC  H15A12854   1.098   6.256   6.457
  122SAPC  H15B12855   1.099   6.180   6.299
  122SAPC  H15C12856   1.249   6.195   6.388
  122SAPC   C1112857   1.373   6.233   6.184
  122SAPC  H11A12858   1.431   6.230   6.089
  122SAPC  H11B12859   1.325   6.133   6.190
  122SAPC     P12860   1.607   6.214   6.304
  122SAPC   O1312861   1.641   6.180   6.444
  122SAPC   O1412862   1.646   6.115   6.201
  122SAPC   O1212863   1.455   6.254   6.297
  122SAPC   O1112864   1.678   6.352   6.270
  122SAPC    C112865   1.608   6.479   6.271
  122SAPC    HA12866   1.510   6.477   6.321
  122SAPC    HB12867   1.667   6.551   6.331
  122SAPC    C212868   1.597   6.543   6.129
  122SAPC    HS12869   1.659   6.637   6.136
  122SAPC   O2112870   1.462   6.573   6.085
  122SAPC   C2112871   1.466   6.662   5.983
  122SAPC   O2212872   1.550   6.749   5.968
  122SAPC   C2212873   1.382   6.611   5.865
  122SAPC   H2R12874   1.298   6.680   5.850
  122SAPC   H2S12875   1.455   6.626   5.783
  122SAPC    C312876   1.663   6.454   6.020
  122SAPC    HX12877   1.768   6.444   6.051
  122SAPC    HY12878   1.661   6.512   5.927
  122SAPC   O3112879   1.605   6.325   5.994
  122SAPC   C3112880   1.691   6.244   5.931
  122SAPC   O3212881   1.805   6.275   5.903
  122SAPC   C3212882   1.632   6.112   5.886
  122SAPC   H2X12883   1.613   6.045   5.972
  122SAPC   H2Y12884   1.712   6.065   5.825
  122SAPC   C2312885   1.336   6.462   5.853
  122SAPC   H3R12886   1.237   6.452   5.902
  122SAPC   H3S12887   1.406   6.393   5.903
  122SAPC   C2412888   1.325   6.415   5.706
  122SAPC   H4R12889   1.285   6.312   5.697
  122SAPC   H4S12890   1.426   6.414   5.661
  122SAPC   C2512891   1.237   6.514   5.638
  122SAPC   H5R12892   1.128   6.501   5.649
  122SAPC   C2612893   1.282   6.619   5.569
  122SAPC   H6R12894   1.215   6.704   5.570
  122SAPC   C2712895   1.421   6.664   5.540
  122SAPC   H7R12896   1.490   6.577   5.537
  122SAPC   H7S12897   1.458   6.735   5.617
  122SAPC   C2812898   1.407   6.732   5.406
  122SAPC   H8R12899   1.320   6.798   5.391
  122SAPC   C2912900   1.492   6.714   5.305
  122SAPC   H9R12901   1.469   6.762   5.208
  122SAPC  C21012902   1.613   6.625   5.312
  122SAPC  H10R12903   1.657   6.631   5.414
  122SAPC  H10S12904   1.693   6.664   5.247
  122SAPC  C21112905   1.591   6.479   5.281
  122SAPC  H11R12906   1.633   6.410   5.356
  122SAPC  C21212907   1.548   6.425   5.165
  122SAPC  H12R12908   1.549   6.315   5.155
  122SAPC  C21312909   1.512   6.497   5.038
  122SAPC  H13R12910   1.427   6.568   5.053
  122SAPC  H13S12911   1.481   6.423   4.962
  122SAPC  C21412912   1.633   6.566   4.986
  122SAPC  H14R12913   1.626   6.673   5.000
  122SAPC  C21512914   1.735   6.507   4.922
  122SAPC  H15R12915   1.823   6.567   4.894
  122SAPC  C21612916   1.745   6.360   4.891
  122SAPC  H16R12917   1.670   6.299   4.947
  122SAPC  H16S12918   1.844   6.319   4.918
  122SAPC  C21712919   1.719   6.340   4.740
  122SAPC  H17R12920   1.624   6.392   4.716
  122SAPC  H17S12921   1.705   6.232   4.721
  122SAPC  C21812922   1.832   6.392   4.650
  122SAPC  H18R12923   1.873   6.309   4.589
  122SAPC  H18S12924   1.911   6.428   4.718
  122SAPC  C21912925   1.801   6.512   4.560
  122SAPC  H19R12926   1.723   6.484   4.489
  122SAPC  H19S12927   1.893   6.537   4.502
  122SAPC  C22012928   1.759   6.636   4.637
  122SAPC  H20R12929   1.672   6.614   4.702
  122SAPC  H20S12930   1.728   6.717   4.569
  122SAPC  H20T12931   1.844   6.669   4.699
  122SAPC   C3312932   1.508   6.126   5.797
  122SAPC   H3X12933   1.514   6.221   5.739
  122SAPC   H3Y12934   1.416   6.130   5.858
  122SAPC   C3412935   1.504   6.010   5.698
  122SAPC   H4X12936   1.488   5.916   5.756
  122SAPC   H4Y12937   1.602   6.000   5.646
  122SAPC   C3512938   1.394   6.024   5.594
  122SAPC   H5X12939   1.302   6.060   5.645
  122SAPC   H5Y12940   1.371   5.925   5.548
  122SAPC   C3612941   1.429   6.121   5.480
  122SAPC   H6X12942   1.497   6.072   5.407
  122SAPC   H6Y12943   1.480   6.212   5.518
  122SAPC   C3712944   1.300   6.163   5.414
  122SAPC   H7X12945   1.247   6.235   5.481
  122SAPC   H7Y12946   1.236   6.072   5.406
  122SAPC   C3812947   1.310   6.227   5.275
  122SAPC   H8X12948   1.380   6.171   5.210
  122SAPC   H8Y12949   1.344   6.332   5.287
  122SAPC   C3912950   1.168   6.223   5.219
  122SAPC   H9X12951   1.113   6.278   5.298
  122SAPC   H9Y12952   1.136   6.116   5.219
  122SAPC  C31012953   1.127   6.287   5.086
  122SAPC  H10X12954   1.086   6.388   5.106
  122SAPC  H10Y12955   1.044   6.228   5.042
  122SAPC  C31112956   1.240   6.299   4.985
  122SAPC  H11X12957   1.285   6.198   4.968
  122SAPC  H11Y12958   1.313   6.361   5.039
  122SAPC  C31212959   1.205   6.365   4.851
  122SAPC  H12X12960   1.172   6.470   4.867
  122SAPC  H12Y12961   1.120   6.310   4.806
  122SAPC  C31312962   1.326   6.362   4.756
  122SAPC  H13X12963   1.382   6.267   4.774
  122SAPC  H13Y12964   1.394   6.447   4.778
  122SAPC  C31412965   1.290   6.368   4.607
  122SAPC  H14X12966   1.256   6.471   4.585
  122SAPC  H14Y12967   1.206   6.299   4.584
  122SAPC  C31512968   1.409   6.333   4.515
  122SAPC  H15X12969   1.503   6.357   4.568
  122SAPC  H15Y12970   1.410   6.399   4.426
  122SAPC  C31612971   1.413   6.187   4.468
  122SAPC  H16X12972   1.313   6.158   4.427
  122SAPC  H16Y12973   1.434   6.122   4.556
  122SAPC  C31712974   1.519   6.161   4.360
  122SAPC  H17X12975   1.483   6.202   4.263
  122SAPC  H17Y12976   1.530   6.051   4.347
  122SAPC  C31812977   1.655   6.223   4.392
  122SAPC  H18X12978   1.727   6.208   4.310
  122SAPC  H18Y12979   1.697   6.181   4.485
  122SAPC  H18Z12980   1.644   6.332   4.403
  123SAPC     N12981   2.978   0.014   6.117
  123SAPC   C1212982   3.129   0.015   6.093
  123SAPC  H12A12983   3.167   0.117   6.086
  123SAPC  H12B12984   3.152  -0.035   5.999
  123SAPC   C1312985   2.934  -0.128   6.132
  123SAPC  H13A12986   2.997  -0.176   6.206
  123SAPC  H13B12987   2.830  -0.137   6.161
  123SAPC  H13C12988   2.949  -0.184   6.040
  123SAPC   C1412989   2.952   0.097   6.241
  123SAPC  H14A12990   3.023   0.068   6.319
  123SAPC  H14B12991   2.976   0.201   6.222
  123SAPC  H14C12992   2.853   0.092   6.281
  123SAPC   C1512993   2.908   0.077   6.002
  123SAPC  H15A12994   2.929   0.184   5.999
  123SAPC  H15B12995   2.941   0.032   5.909
  123SAPC  H15C12996   2.801   0.064   6.011
  123SAPC   C1112997   3.215  -0.049   6.203
  123SAPC  H11A12998   3.320  -0.048   6.163
  123SAPC  H11B12999   3.191  -0.156   6.219
  123SAPC     P13000   3.317   0.117   6.373
  123SAPC   O1313001   3.279   0.208   6.484
  123SAPC   O1413002   3.435   0.028   6.388
  123SAPC   O1213003   3.200   0.022   6.327
  123SAPC   O1113004   3.330   0.204   6.241
  123SAPC    C113005   3.449   0.280   6.221
  123SAPC    HA13006   3.440   0.377   6.273
  123SAPC    HB13007   3.539   0.229   6.264
  123SAPC    C213008   3.481   0.303   6.070
  123SAPC    HS13009   3.559   0.381   6.063
  123SAPC   O2113010   3.370   0.342   5.988
  123SAPC   C2113011   3.280   0.420   6.040
  123SAPC   O2213012   3.297   0.506   6.125
  123SAPC   C2213013   3.143   0.378   5.983
  123SAPC   H2R13014   3.141   0.267   5.984
  123SAPC   H2S13015   3.067   0.416   6.054
  123SAPC    C313016   3.542   0.175   6.009
  123SAPC    HX13017   3.591   0.118   6.092
  123SAPC    HY13018   3.623   0.207   5.939
  123SAPC   O3113019   3.444   0.088   5.950
  123SAPC   C3113020   3.486   0.028   5.840
  123SAPC   O3213021   3.568   0.071   5.760
  123SAPC   C3213022   3.430  -0.115   5.845
  123SAPC   H2X13023   3.333  -0.114   5.899
  123SAPC   H2Y13024   3.502  -0.172   5.907
  123SAPC   C2313025   3.112   0.428   5.840
  123SAPC   H3R13026   3.107   0.539   5.840
  123SAPC   H3S13027   3.010   0.391   5.812
  123SAPC   C2413028   3.212   0.383   5.731
  123SAPC   H4R13029   3.314   0.403   5.769
  123SAPC   H4S13030   3.199   0.449   5.643
  123SAPC   C2513031   3.211   0.239   5.687
  123SAPC   H5R13032   3.291   0.177   5.729
  123SAPC   C2613033   3.126   0.189   5.596
  123SAPC   H6R13034   3.135   0.084   5.564
  123SAPC   C2713035   3.019   0.269   5.526
  123SAPC   H7R13036   2.985   0.343   5.599
  123SAPC   H7S13037   2.931   0.206   5.503
  123SAPC   C2813038   3.063   0.352   5.409
  123SAPC   H8R13039   3.131   0.434   5.434
  123SAPC   C2913040   3.019   0.340   5.282
  123SAPC   H9R13041   3.053   0.416   5.210
  123SAPC  C21013042   2.917   0.242   5.231
  123SAPC  H10R13043   2.867   0.284   5.140
  123SAPC  H10S13044   2.835   0.226   5.304
  123SAPC  C21113045   2.986   0.111   5.198
  123SAPC  H11R13046   3.009   0.049   5.286
  123SAPC  C21213047   3.025   0.069   5.076
  123SAPC  H12R13048   3.081  -0.026   5.069
  123SAPC  C21313049   3.008   0.142   4.944
  123SAPC  H13R13050   2.900   0.148   4.920
  123SAPC  H13S13051   3.055   0.082   4.863
  123SAPC  C21413052   3.066   0.282   4.940
  123SAPC  H14R13053   3.096   0.323   5.037
  123SAPC  C21513054   3.092   0.356   4.831
  123SAPC  H15R13055   3.130   0.458   4.847
  123SAPC  C21613056   3.068   0.317   4.688
  123SAPC  H16R13057   3.044   0.408   4.629
  123SAPC  H16S13058   2.981   0.248   4.677
  123SAPC  C21713059   3.190   0.253   4.620
  123SAPC  H17R13060   3.205   0.150   4.657
  123SAPC  H17S13061   3.283   0.308   4.647
  123SAPC  C21813062   3.177   0.256   4.466
  123SAPC  H18R13063   3.277   0.236   4.421
  123SAPC  H18S13064   3.147   0.358   4.434
  123SAPC  C21913065   3.078   0.154   4.410
  123SAPC  H19R13066   3.075   0.165   4.299
  123SAPC  H19S13067   2.976   0.176   4.448
  123SAPC  C22013068   3.116   0.009   4.444
  123SAPC  H20R13069   3.056  -0.062   4.383
  123SAPC  H20S13070   3.097  -0.012   4.551
  123SAPC  H20T13071   3.223  -0.007   4.424
  123SAPC   C3313072   3.415  -0.187   5.710
  123SAPC   H3X13073   3.396  -0.295   5.730
  123SAPC   H3Y13074   3.511  -0.181   5.654
  123SAPC   C3413075   3.299  -0.136   5.624
  123SAPC   H4X13076   3.307  -0.025   5.613
  123SAPC   H4Y13077   3.202  -0.159   5.673
  123SAPC   C3513078   3.299  -0.197   5.483
  123SAPC   H5X13079   3.201  -0.180   5.433
  123SAPC   H5Y13080   3.315  -0.307   5.491
  123SAPC   C3613081   3.410  -0.135   5.397
  123SAPC   H6X13082   3.443  -0.206   5.318
  123SAPC   H6Y13083   3.500  -0.113   5.458
  123SAPC   C3713084   3.363  -0.007   5.329
  123SAPC   H7X13085   3.326   0.067   5.403
  123SAPC   H7Y13086   3.280  -0.030   5.259
  123SAPC   C3813087   3.479   0.052   5.250
  123SAPC   H8X13088   3.519  -0.026   5.183
  123SAPC   H8Y13089   3.561   0.083   5.319
  123SAPC   C3913090   3.433   0.172   5.168
  123SAPC   H9X13091   3.407   0.256   5.237
  123SAPC   H9Y13092   3.341   0.147   5.112
  123SAPC  C31013093   3.543   0.217   5.073
  123SAPC  H10X13094   3.637   0.237   5.129
  123SAPC  H10Y13095   3.507   0.312   5.031
  123SAPC  C31113096   3.570   0.123   4.955
  123SAPC  H11X13097   3.605   0.023   4.991
  123SAPC  H11Y13098   3.653   0.166   4.895
  123SAPC  C31213099   3.447   0.104   4.866
  123SAPC  H12X13100   3.412   0.204   4.831
  123SAPC  H12Y13101   3.364   0.059   4.923
  123SAPC  C31313102   3.475   0.016   4.744
  123SAPC  H13X13103   3.379  -0.001   4.690
  123SAPC  H13Y13104   3.513  -0.083   4.776
  123SAPC  C31413105   3.574   0.084   4.648
  123SAPC  H14X13106   3.676   0.084   4.692
  123SAPC  H14Y13107   3.542   0.190   4.638
  123SAPC  C31513108   3.577   0.018   4.510
  123SAPC  H15X13109   3.472   0.005   4.475
  123SAPC  H15Y13110   3.622  -0.083   4.519
  123SAPC  C31613111   3.655   0.100   4.406
  123SAPC  H16X13112   3.659   0.041   4.312
  123SAPC  H16Y13113   3.759   0.115   4.441
  123SAPC  C31713114   3.592   0.236   4.375
  123SAPC  H17X13115   3.612   0.306   4.459
  123SAPC  H17Y13116   3.481   0.225   4.369
  123SAPC  C31813117   3.642   0.296   4.243
  123SAPC  H18X13118   3.753   0.308   4.247
  123SAPC  H18Y13119   3.596   0.395   4.224
  123SAPC  H18Z13120   3.618   0.228   4.159
  124SAPC     N13121   7.136   1.054   6.227
  124SAPC   C1213122   7.161   0.912   6.178
  124SAPC  H12A13123   7.212   0.857   6.256
  124SAPC  H12B13124   7.229   0.915   6.094
  124SAPC   C1313125   7.021   1.058   6.321
  124SAPC  H13A13126   6.943   0.990   6.287
  124SAPC  H13B13127   7.045   1.022   6.421
  124SAPC  H13C13128   6.983   1.160   6.330
  124SAPC   C1413129   7.257   1.108   6.298
  124SAPC  H14A13130   7.296   1.042   6.375
  124SAPC  H14B13131   7.338   1.131   6.231
  124SAPC  H14C13132   7.232   1.204   6.346
  124SAPC   C1513133   7.104   1.151   6.119
  124SAPC  H15A13134   7.085   1.250   6.163
  124SAPC  H15B13135   7.186   1.165   6.051
  124SAPC  H15C13136   7.015   1.126   6.062
  124SAPC   C1113137   7.042   0.820   6.144
  124SAPC  H11A13138   7.080   0.737   6.081
  124SAPC  H11B13139   6.966   0.873   6.083
  124SAPC     P13140   7.018   0.623   6.325
  124SAPC   O1313141   7.042   0.643   6.469
  124SAPC   O1413142   6.913   0.523   6.294
  124SAPC   O1213143   6.984   0.767   6.263
  124SAPC   O1113144   7.156   0.572   6.266
  124SAPC    C113145   7.209   0.441   6.299
  124SAPC    HA13146   7.265   0.444   6.394
  124SAPC    HB13147   7.127   0.366   6.309
  124SAPC    C213148   7.307   0.379   6.190
  124SAPC    HS13149   7.364   0.294   6.235
  124SAPC   O2113150   7.400   0.468   6.129
  124SAPC   C2113151   7.437   0.572   6.200
  124SAPC   O2213152   7.469   0.574   6.318
  124SAPC   C2213153   7.385   0.694   6.120
  124SAPC   H2R13154   7.277   0.670   6.111
  124SAPC   H2S13155   7.393   0.784   6.182
  124SAPC    C313156   7.220   0.323   6.077
  124SAPC    HX13157   7.156   0.241   6.116
  124SAPC    HY13158   7.282   0.278   5.996
  124SAPC   O3113159   7.133   0.429   6.033
  124SAPC   C3113160   7.160   0.480   5.916
  124SAPC   O3213161   7.259   0.455   5.849
  124SAPC   C3213162   7.041   0.562   5.869
  124SAPC   H2X13163   7.043   0.665   5.905
  124SAPC   H2Y13164   6.949   0.516   5.909
  124SAPC   C2313165   7.432   0.708   5.973
  124SAPC   H3R13166   7.462   0.607   5.936
  124SAPC   H3S13167   7.521   0.772   5.963
  124SAPC   C2413168   7.319   0.755   5.879
  124SAPC   H4R13169   7.223   0.744   5.932
  124SAPC   H4S13170   7.317   0.680   5.796
  124SAPC   C2513171   7.320   0.893   5.822
  124SAPC   H5R13172   7.321   0.975   5.896
  124SAPC   C2613173   7.309   0.923   5.691
  124SAPC   H6R13174   7.315   1.028   5.662
  124SAPC   C2713175   7.292   0.830   5.574
  124SAPC   H7R13176   7.206   0.863   5.512
  124SAPC   H7S13177   7.269   0.726   5.605
  124SAPC   C2813178   7.417   0.824   5.492
  124SAPC   H8R13179   7.505   0.871   5.539
  124SAPC   C2913180   7.431   0.762   5.373
  124SAPC   H9R13181   7.526   0.775   5.318
  124SAPC  C21013182   7.325   0.686   5.298
  124SAPC  H10R13183   7.240   0.658   5.364
  124SAPC  H10S13184   7.366   0.591   5.256
  124SAPC  C21113185   7.282   0.784   5.192
  124SAPC  H11R13186   7.219   0.864   5.233
  124SAPC  C21213187   7.302   0.780   5.059
  124SAPC  H12R13188   7.259   0.861   4.999
  124SAPC  C21313189   7.371   0.675   4.976
  124SAPC  H13R13190   7.310   0.664   4.883
  124SAPC  H13S13191   7.366   0.576   5.025
  124SAPC  C21413192   7.512   0.710   4.935
  124SAPC  H14R13193   7.542   0.815   4.945
  124SAPC  C21513194   7.601   0.622   4.886
  124SAPC  H15R13195   7.702   0.657   4.859
  124SAPC  C21613196   7.577   0.475   4.862
  124SAPC  H16R13197   7.499   0.434   4.931
  124SAPC  H16S13198   7.671   0.420   4.883
  124SAPC  C21713199   7.537   0.437   4.719
  124SAPC  H17R13200   7.513   0.329   4.718
  124SAPC  H17S13201   7.624   0.452   4.651
  124SAPC  C21813202   7.416   0.514   4.664
  124SAPC  H18R13203   7.443   0.620   4.642
  124SAPC  H18S13204   7.336   0.515   4.741
  124SAPC  C21913205   7.360   0.447   4.540
  124SAPC  H19R13206   7.258   0.488   4.519
  124SAPC  H19S13207   7.352   0.338   4.561
  124SAPC  C22013208   7.446   0.466   4.417
  124SAPC  H20R13209   7.457   0.574   4.395
  124SAPC  H20S13210   7.403   0.417   4.327
  124SAPC  H20T13211   7.547   0.423   4.435
  124SAPC   C3313212   7.036   0.566   5.715
  124SAPC   H3X13213   7.069   0.469   5.672
  124SAPC   H3Y13214   7.107   0.643   5.677
  124SAPC   C3413215   6.897   0.596   5.663
  124SAPC   H4X13216   6.875   0.704   5.681
  124SAPC   H4Y13217   6.819   0.537   5.718
  124SAPC   C3513218   6.892   0.564   5.514
  124SAPC   H5X13219   6.881   0.454   5.498
  124SAPC   H5Y13220   6.989   0.595   5.470
  124SAPC   C3613221   6.778   0.641   5.449
  124SAPC   H6X13222   6.784   0.746   5.486
  124SAPC   H6Y13223   6.682   0.596   5.484
  124SAPC   C3713224   6.779   0.646   5.297
  124SAPC   H7X13225   6.736   0.745   5.268
  124SAPC   H7Y13226   6.713   0.567   5.256
  124SAPC   C3813227   6.913   0.640   5.226
  124SAPC   H8X13228   6.956   0.537   5.231
  124SAPC   H8Y13229   6.986   0.710   5.272
  124SAPC   C3913230   6.885   0.679   5.081
  124SAPC   H9X13231   6.830   0.776   5.078
  124SAPC   H9Y13232   6.819   0.601   5.037
  124SAPC  C31013233   7.011   0.694   4.998
  124SAPC  H10X13234   7.085   0.617   5.030
  124SAPC  H10Y13235   7.052   0.796   5.016
  124SAPC  C31113236   6.984   0.677   4.850
  124SAPC  H11X13237   6.918   0.589   4.836
  124SAPC  H11Y13238   7.080   0.655   4.798
  124SAPC  C31213239   6.915   0.799   4.788
  124SAPC  H12X13240   6.987   0.883   4.782
  124SAPC  H12Y13241   6.831   0.831   4.853
  124SAPC  C31313242   6.859   0.765   4.650
  124SAPC  H13X13243   6.817   0.856   4.603
  124SAPC  H13Y13244   6.773   0.697   4.667
  124SAPC  C31413245   6.963   0.697   4.559
  124SAPC  H14X13246   6.916   0.670   4.462
  124SAPC  H14Y13247   6.998   0.601   4.603
  124SAPC  C31513248   7.085   0.785   4.529
  124SAPC  H15X13249   7.153   0.729   4.461
  124SAPC  H15Y13250   7.141   0.804   4.624
  124SAPC  C31613251   7.043   0.918   4.466
  124SAPC  H16X13252   6.972   0.972   4.533
  124SAPC  H16Y13253   6.990   0.896   4.371
  124SAPC  C31713254   7.158   1.015   4.438
  124SAPC  H17X13255   7.195   1.058   4.534
  124SAPC  H17Y13256   7.110   1.097   4.380
  124SAPC  C31813257   7.277   0.955   4.364
  124SAPC  H18X13258   7.336   1.035   4.315
  124SAPC  H18Y13259   7.243   0.884   4.286
  124SAPC  H18Z13260   7.344   0.902   4.434
  125SAPC     N13261   2.357   3.635   2.266
  125SAPC   C1213262   2.367   3.500   2.338
  125SAPC  H12A13263   2.279   3.486   2.400
  125SAPC  H12B13264   2.453   3.505   2.405
  125SAPC   C1313265   2.322   3.741   2.365
  125SAPC  H13A13266   2.312   3.836   2.314
  125SAPC  H13B13267   2.228   3.719   2.413
  125SAPC  H13C13268   2.399   3.748   2.442
  125SAPC   C1413269   2.493   3.666   2.210
  125SAPC  H14A13270   2.521   3.587   2.141
  125SAPC  H14B13271   2.496   3.759   2.154
  125SAPC  H14C13272   2.571   3.667   2.286
  125SAPC   C1513273   2.258   3.636   2.152
  125SAPC  H15A13274   2.279   3.552   2.085
  125SAPC  H15B13275   2.155   3.629   2.184
  125SAPC  H15C13276   2.268   3.726   2.091
  125SAPC   C1113277   2.391   3.370   2.256
  125SAPC  H11A13278   2.308   3.355   2.183
  125SAPC  H11B13279   2.388   3.284   2.328
  125SAPC     P13280   2.623   3.259   2.185
  125SAPC   O1313281   2.556   3.135   2.140
  125SAPC   O1413282   2.743   3.304   2.110
  125SAPC   O1213283   2.515   3.377   2.185
  125SAPC   O1113284   2.658   3.247   2.338
  125SAPC    C113285   2.698   3.372   2.396
  125SAPC    HA13286   2.803   3.396   2.366
  125SAPC    HB13287   2.634   3.457   2.364
  125SAPC    C213288   2.690   3.370   2.550
  125SAPC    HS13289   2.585   3.390   2.582
  125SAPC   O2113290   2.777   3.466   2.611
  125SAPC   C2113291   2.771   3.590   2.570
  125SAPC   O2213292   2.701   3.635   2.481
  125SAPC   C2213293   2.871   3.674   2.653
  125SAPC   H2R13294   2.971   3.650   2.617
  125SAPC   H2S13295   2.858   3.778   2.619
  125SAPC    C313296   2.729   3.232   2.606
  125SAPC    HX13297   2.823   3.202   2.555
  125SAPC    HY13298   2.649   3.159   2.578
  125SAPC   O3113299   2.752   3.243   2.747
  125SAPC   C3113300   2.677   3.173   2.829
  125SAPC   O3213301   2.604   3.080   2.800
  125SAPC   C3213302   2.702   3.224   2.972
  125SAPC   H2X13303   2.695   3.334   2.967
  125SAPC   H2Y13304   2.806   3.197   3.000
  125SAPC   C2313305   2.860   3.680   2.810
  125SAPC   H3R13306   2.778   3.750   2.828
  125SAPC   H3S13307   2.950   3.734   2.846
  125SAPC   C2413308   2.839   3.557   2.904
  125SAPC   H4R13309   2.937   3.536   2.950
  125SAPC   H4S13310   2.812   3.467   2.845
  125SAPC   C2513311   2.737   3.580   3.015
  125SAPC   H5R13312   2.635   3.595   2.974
  125SAPC   C2613313   2.752   3.588   3.150
  125SAPC   H6R13314   2.662   3.611   3.209
  125SAPC   C2713315   2.875   3.576   3.237
  125SAPC   H7R13316   2.864   3.641   3.327
  125SAPC   H7S13317   2.964   3.615   3.183
  125SAPC   C2813318   2.901   3.432   3.276
  125SAPC   H8R13319   2.911   3.366   3.189
  125SAPC   C2913320   2.919   3.377   3.398
  125SAPC   H9R13321   2.937   3.269   3.403
  125SAPC  C21013322   2.920   3.445   3.533
  125SAPC  H10R13323   2.888   3.551   3.525
  125SAPC  H10S13324   3.024   3.450   3.571
  125SAPC  C21113325   2.837   3.370   3.634
  125SAPC  H11R13326   2.878   3.273   3.668
  125SAPC  C21213327   2.721   3.412   3.687
  125SAPC  H12R13328   2.670   3.351   3.763
  125SAPC  C21313329   2.654   3.543   3.654
  125SAPC  H13R13330   2.727   3.626   3.651
  125SAPC  H13S13331   2.584   3.568   3.737
  125SAPC  C21413332   2.583   3.530   3.521
  125SAPC  H14R13333   2.650   3.530   3.434
  125SAPC  C21513334   2.452   3.510   3.502
  125SAPC  H15R13335   2.416   3.498   3.399
  125SAPC  C21613336   2.346   3.496   3.609
  125SAPC  H16R13337   2.380   3.421   3.684
  125SAPC  H16S13338   2.253   3.455   3.563
  125SAPC  C21713339   2.311   3.624   3.685
  125SAPC  H17R13340   2.304   3.710   3.615
  125SAPC  H17S13341   2.393   3.645   3.757
  125SAPC  C21813342   2.179   3.617   3.765
  125SAPC  H18R13343   2.095   3.605   3.694
  125SAPC  H18S13344   2.165   3.713   3.819
  125SAPC  C21913345   2.179   3.501   3.865
  125SAPC  H19R13346   2.277   3.500   3.917
  125SAPC  H19S13347   2.169   3.408   3.806
  125SAPC  C22013348   2.069   3.505   3.972
  125SAPC  H20R13349   1.970   3.525   3.926
  125SAPC  H20S13350   2.091   3.583   4.047
  125SAPC  H20T13351   2.064   3.406   4.024
  125SAPC   C3313352   2.603   3.174   3.080
  125SAPC   H3X13353   2.610   3.063   3.087
  125SAPC   H3Y13354   2.499   3.201   3.051
  125SAPC   C3413355   2.637   3.237   3.216
  125SAPC   H4X13356   2.602   3.343   3.219
  125SAPC   H4Y13357   2.747   3.237   3.222
  125SAPC   C3513358   2.590   3.160   3.340
  125SAPC   H5X13359   2.634   3.210   3.430
  125SAPC   H5Y13360   2.632   3.058   3.336
  125SAPC   C3613361   2.438   3.153   3.358
  125SAPC   H6X13362   2.389   3.138   3.259
  125SAPC   H6Y13363   2.401   3.249   3.399
  125SAPC   C3713364   2.394   3.038   3.451
  125SAPC   H7X13365   2.412   2.942   3.399
  125SAPC   H7Y13366   2.284   3.047   3.467
  125SAPC   C3813367   2.464   3.031   3.589
  125SAPC   H8X13368   2.570   2.999   3.577
  125SAPC   H8Y13369   2.412   2.951   3.647
  125SAPC   C3913370   2.458   3.162   3.669
  125SAPC   H9X13371   2.358   3.207   3.649
  125SAPC   H9Y13372   2.532   3.234   3.630
  125SAPC  C31013373   2.475   3.145   3.822
  125SAPC  H10X13374   2.581   3.155   3.851
  125SAPC  H10Y13375   2.442   3.042   3.850
  125SAPC  C31113376   2.389   3.249   3.896
  125SAPC  H11X13377   2.288   3.245   3.848
  125SAPC  H11Y13378   2.432   3.349   3.878
  125SAPC  C31213379   2.364   3.230   4.047
  125SAPC  H12X13380   2.292   3.146   4.058
  125SAPC  H12Y13381   2.312   3.320   4.086
  125SAPC  C31313382   2.486   3.199   4.136
  125SAPC  H13X13383   2.547   3.118   4.092
  125SAPC  H13Y13384   2.439   3.159   4.230
  125SAPC  C31413385   2.570   3.318   4.186
  125SAPC  H14X13386   2.597   3.299   4.293
  125SAPC  H14Y13387   2.508   3.411   4.184
  125SAPC  C31513388   2.701   3.344   4.110
  125SAPC  H15X13389   2.753   3.431   4.155
  125SAPC  H15Y13390   2.672   3.372   4.007
  125SAPC  C31613391   2.802   3.227   4.106
  125SAPC  H16X13392   2.751   3.129   4.118
  125SAPC  H16Y13393   2.874   3.237   4.191
  125SAPC  C31713394   2.879   3.225   3.975
  125SAPC  H17X13395   2.813   3.188   3.893
  125SAPC  H17Y13396   2.963   3.153   3.983
  125SAPC  C31813397   2.934   3.362   3.937
  125SAPC  H18X13398   3.006   3.398   4.013
  125SAPC  H18Y13399   2.855   3.439   3.925
  125SAPC  H18Z13400   2.988   3.359   3.841
  126SAPC     N13401   2.562   4.978   2.417
  126SAPC   C1213402   2.450   5.044   2.338
  126SAPC  H12A13403   2.456   5.151   2.354
  126SAPC  H12B13404   2.354   5.008   2.375
  126SAPC   C1313405   2.551   5.015   2.560
  126SAPC  H13A13406   2.459   4.981   2.604
  126SAPC  H13B13407   2.634   4.973   2.616
  126SAPC  H13C13408   2.560   5.123   2.572
  126SAPC   C1413409   2.556   4.829   2.399
  126SAPC  H14A13410   2.556   4.808   2.291
  126SAPC  H14B13411   2.641   4.780   2.443
  126SAPC  H14C13412   2.465   4.784   2.436
  126SAPC   C1513413   2.696   5.023   2.367
  126SAPC  H15A13414   2.706   5.009   2.260
  126SAPC  H15B13415   2.720   5.129   2.386
  126SAPC  H15C13416   2.778   4.969   2.414
  126SAPC   C1113417   2.446   5.023   2.185
  126SAPC  H11A13418   2.540   5.060   2.137
  126SAPC  H11B13419   2.362   5.088   2.148
  126SAPC     P13420   2.328   4.849   2.033
  126SAPC   O1313421   2.329   4.956   1.931
  126SAPC   O1413422   2.346   4.711   1.981
  126SAPC   O1213423   2.427   4.884   2.153
  126SAPC   O1113424   2.188   4.862   2.104
  126SAPC    C113425   2.147   4.778   2.211
  126SAPC    HA13426   2.095   4.688   2.170
  126SAPC    HB13427   2.232   4.744   2.275
  126SAPC    C213428   2.046   4.852   2.303
  126SAPC    HS13429   1.958   4.879   2.240
  126SAPC   O2113430   2.112   4.968   2.359
  126SAPC   C2113431   2.032   5.073   2.374
  126SAPC   O2213432   1.913   5.076   2.351
  126SAPC   C2213433   2.114   5.192   2.423
  126SAPC   H2R13434   2.221   5.164   2.428
  126SAPC   H2S13435   2.100   5.273   2.349
  126SAPC    C313436   1.999   4.760   2.418
  126SAPC    HX13437   1.947   4.672   2.374
  126SAPC    HY13438   1.924   4.816   2.479
  126SAPC   O3113439   2.116   4.716   2.490
  126SAPC   C3113440   2.115   4.735   2.621
  126SAPC   O3213441   2.024   4.784   2.684
  126SAPC   C3213442   2.247   4.684   2.680
  126SAPC   H2X13443   2.329   4.717   2.614
  126SAPC   H2Y13444   2.241   4.573   2.678
  126SAPC   C2313445   2.064   5.236   2.561
  126SAPC   H3R13446   1.960   5.276   2.548
  126SAPC   H3S13447   2.127   5.320   2.598
  126SAPC   C2413448   2.067   5.124   2.666
  126SAPC   H4R13449   2.171   5.103   2.699
  126SAPC   H4S13450   2.026   5.030   2.624
  126SAPC   C2513451   1.976   5.163   2.778
  126SAPC   H5R13452   1.875   5.190   2.745
  126SAPC   C2613453   2.004   5.171   2.909
  126SAPC   H6R13454   1.922   5.202   2.975
  126SAPC   C2713455   2.134   5.144   2.979
  126SAPC   H7R13456   2.140   5.204   3.073
  126SAPC   H7S13457   2.217   5.182   2.916
  126SAPC   C2813458   2.166   5.001   3.012
  126SAPC   H8R13459   2.274   4.982   3.011
  126SAPC   C2913460   2.086   4.896   3.042
  126SAPC   H9R13461   2.134   4.800   3.063
  126SAPC  C21013462   1.935   4.889   3.052
  126SAPC  H10R13463   1.892   4.844   2.960
  126SAPC  H10S13464   1.889   4.990   3.062
  126SAPC  C21113465   1.901   4.805   3.173
  126SAPC  H11R13466   1.848   4.712   3.151
  126SAPC  C21213467   1.923   4.839   3.302
  126SAPC  H12R13468   1.889   4.771   3.381
  126SAPC  C21313469   1.985   4.968   3.350
  126SAPC  H13R13470   1.922   5.011   3.431
  126SAPC  H13S13471   1.985   5.046   3.271
  126SAPC  C21413472   2.127   4.950   3.399
  126SAPC  H14R13473   2.205   4.983   3.330
  126SAPC  C21513474   2.163   4.901   3.519
  126SAPC  H15R13475   2.270   4.897   3.544
  126SAPC  C21613476   2.071   4.855   3.629
  126SAPC  H16R13477   2.120   4.773   3.687
  126SAPC  H16S13478   1.977   4.812   3.588
  126SAPC  C21713479   2.035   4.971   3.724
  126SAPC  H17R13480   1.973   4.931   3.807
  126SAPC  H17S13481   1.974   5.045   3.669
  126SAPC  C21813482   2.159   5.042   3.782
  126SAPC  H18R13483   2.220   5.081   3.698
  126SAPC  H18S13484   2.222   4.969   3.838
  126SAPC  C21913485   2.125   5.163   3.871
  126SAPC  H19R13486   2.034   5.214   3.831
  126SAPC  H19S13487   2.210   5.235   3.863
  126SAPC  C22013488   2.106   5.127   4.018
  126SAPC  H20R13489   2.092   5.219   4.079
  126SAPC  H20S13490   2.196   5.074   4.056
  126SAPC  H20T13491   2.018   5.061   4.032
  126SAPC   C3313492   2.271   4.737   2.824
  126SAPC   H3X13493   2.192   4.698   2.890
  126SAPC   H3Y13494   2.261   4.848   2.821
  126SAPC   C3413495   2.411   4.706   2.881
  126SAPC   H4X13496   2.484   4.771   2.827
  126SAPC   H4Y13497   2.438   4.601   2.859
  126SAPC   C3513498   2.425   4.729   3.033
  126SAPC   H5X13499   2.382   4.827   3.060
  126SAPC   H5Y13500   2.534   4.735   3.058
  126SAPC   C3613501   2.359   4.621   3.119
  126SAPC   H6X13502   2.402   4.522   3.094
  126SAPC   H6Y13503   2.250   4.619   3.096
  126SAPC   C3713504   2.371   4.643   3.271
  126SAPC   H7X13505   2.335   4.746   3.294
  126SAPC   H7Y13506   2.478   4.636   3.301
  126SAPC   C3813507   2.287   4.544   3.354
  126SAPC   H8X13508   2.314   4.439   3.330
  126SAPC   H8Y13509   2.181   4.559   3.324
  126SAPC   C3913510   2.297   4.565   3.506
  126SAPC   H9X13511   2.199   4.542   3.553
  126SAPC   H9Y13512   2.314   4.673   3.524
  126SAPC  C31013513   2.406   4.481   3.573
  126SAPC  H10X13514   2.502   4.496   3.518
  126SAPC  H10Y13515   2.380   4.374   3.565
  126SAPC  C31113516   2.430   4.515   3.722
  126SAPC  H11X13517   2.518   4.456   3.757
  126SAPC  H11Y13518   2.342   4.481   3.782
  126SAPC  C31213519   2.455   4.664   3.753
  126SAPC  H12X13520   2.491   4.672   3.858
  126SAPC  H12Y13521   2.357   4.717   3.748
  126SAPC  C31313522   2.553   4.735   3.659
  126SAPC  H13X13523   2.524   4.720   3.553
  126SAPC  H13Y13524   2.655   4.691   3.670
  126SAPC  C31413525   2.558   4.887   3.683
  126SAPC  H14X13526   2.458   4.930   3.660
  126SAPC  H14Y13527   2.631   4.933   3.612
  126SAPC  C31513528   2.595   4.928   3.826
  126SAPC  H15X13529   2.510   4.901   3.893
  126SAPC  H15Y13530   2.605   5.039   3.831
  126SAPC  C31613531   2.723   4.861   3.877
  126SAPC  H16X13532   2.809   4.899   3.819
  126SAPC  H16Y13533   2.720   4.751   3.858
  126SAPC  C31713534   2.745   4.876   4.028
  126SAPC  H17X13535   2.733   4.982   4.059
  126SAPC  H17Y13536   2.850   4.846   4.051
  126SAPC  C31813537   2.650   4.786   4.105
  126SAPC  H18X13538   2.655   4.684   4.063
  126SAPC  H18Y13539   2.545   4.820   4.093
  126SAPC  H18Z13540   2.675   4.784   4.213
  127SAPC     N13541   2.252   2.715   2.346
  127SAPC   C1213542   2.152   2.638   2.259
  127SAPC  H12A13543   2.180   2.534   2.252
  127SAPC  H12B13544   2.158   2.675   2.156
  127SAPC   C1313545   2.243   2.861   2.314
  127SAPC  H13A13546   2.298   2.923   2.384
  127SAPC  H13B13547   2.279   2.881   2.213
  127SAPC  H13C13548   2.139   2.893   2.312
  127SAPC   C1413549   2.223   2.689   2.490
  127SAPC  H14A13550   2.244   2.585   2.517
  127SAPC  H14B13551   2.279   2.753   2.557
  127SAPC  H14C13552   2.116   2.703   2.506
  127SAPC   C1513553   2.390   2.668   2.317
  127SAPC  H15A13554   2.422   2.692   2.215
  127SAPC  H15B13555   2.463   2.715   2.382
  127SAPC  H15C13556   2.400   2.561   2.333
  127SAPC   C1113557   2.002   2.641   2.301
  127SAPC  H11A13558   1.992   2.598   2.404
  127SAPC  H11B13559   1.945   2.569   2.237
  127SAPC     P13560   1.905   2.833   2.158
  127SAPC   O1313561   2.015   2.809   2.060
  127SAPC   O1413562   1.770   2.782   2.121
  127SAPC   O1213563   1.947   2.772   2.299
  127SAPC   O1113564   1.900   2.987   2.188
  127SAPC    C113565   1.798   3.068   2.130
  127SAPC    HA13566   1.839   3.119   2.040
  127SAPC    HB13567   1.709   3.011   2.095
  127SAPC    C213568   1.743   3.172   2.234
  127SAPC    HS13569   1.672   3.236   2.177
  127SAPC   O2113570   1.838   3.255   2.301
  127SAPC   C2113571   1.946   3.292   2.238
  127SAPC   O2213572   1.962   3.301   2.118
  127SAPC   C2213573   2.046   3.338   2.342
  127SAPC   H2R13574   2.120   3.403   2.291
  127SAPC   H2S13575   1.990   3.401   2.414
  127SAPC    C313576   1.663   3.102   2.346
  127SAPC    HX13577   1.589   3.033   2.301
  127SAPC    HY13578   1.609   3.185   2.398
  127SAPC   O3113579   1.750   3.030   2.438
  127SAPC   C3113580   1.680   2.989   2.543
  127SAPC   O3213581   1.571   3.035   2.574
  127SAPC   C3213582   1.750   2.873   2.610
  127SAPC   H2X13583   1.805   2.814   2.533
  127SAPC   H2Y13584   1.672   2.809   2.656
  127SAPC   C2313585   2.115   3.224   2.422
  127SAPC   H3R13586   2.202   3.184   2.366
  127SAPC   H3S13587   2.044   3.139   2.434
  127SAPC   C2413588   2.157   3.273   2.562
  127SAPC   H4R13589   2.075   3.338   2.600
  127SAPC   H4S13590   2.245   3.340   2.553
  127SAPC   C2513591   2.187   3.165   2.663
  127SAPC   H5R13592   2.249   3.082   2.624
  127SAPC   C2613593   2.145   3.162   2.791
  127SAPC   H6R13594   2.177   3.078   2.855
  127SAPC   C2713595   2.058   3.265   2.861
  127SAPC   H7R13596   1.996   3.322   2.789
  127SAPC   H7S13597   2.123   3.340   2.911
  127SAPC   C2813598   1.964   3.199   2.959
  127SAPC   H8R13599   1.890   3.135   2.910
  127SAPC   C2913600   1.960   3.211   3.093
  127SAPC   H9R13601   1.882   3.153   3.146
  127SAPC  C21013602   2.048   3.294   3.184
  127SAPC  H10R13603   2.107   3.369   3.127
  127SAPC  H10S13604   2.123   3.226   3.231
  127SAPC  C21113605   1.968   3.364   3.291
  127SAPC  H11R13606   1.947   3.469   3.271
  127SAPC  C21213607   1.928   3.316   3.410
  127SAPC  H12R13608   1.869   3.382   3.476
  127SAPC  C21313609   1.957   3.179   3.462
  127SAPC  H13R13610   2.057   3.183   3.509
  127SAPC  H13S13611   1.966   3.104   3.381
  127SAPC  C21413612   1.851   3.136   3.561
  127SAPC  H14R13613   1.749   3.125   3.520
  127SAPC  C21513614   1.872   3.111   3.692
  127SAPC  H15R13615   1.788   3.079   3.755
  127SAPC  C21613616   2.006   3.123   3.761
  127SAPC  H16R13617   1.991   3.113   3.871
  127SAPC  H16S13618   2.044   3.227   3.745
  127SAPC  C21713619   2.118   3.028   3.714
  127SAPC  H17R13620   2.214   3.082   3.724
  127SAPC  H17S13621   2.106   3.001   3.606
  127SAPC  C21813622   2.135   2.898   3.793
  127SAPC  H18R13623   2.215   2.838   3.744
  127SAPC  H18S13624   2.042   2.839   3.787
  127SAPC  C21913625   2.175   2.921   3.939
  127SAPC  H19R13626   2.102   2.986   3.992
  127SAPC  H19S13627   2.273   2.972   3.941
  127SAPC  C22013628   2.185   2.788   4.013
  127SAPC  H20R13629   2.234   2.713   3.947
  127SAPC  H20S13630   2.085   2.750   4.038
  127SAPC  H20T13631   2.244   2.799   4.106
  127SAPC   C3313632   1.847   2.927   2.717
  127SAPC   H3X13633   1.789   2.988   2.790
  127SAPC   H3Y13634   1.923   2.993   2.670
  127SAPC   C3413635   1.920   2.813   2.789
  127SAPC   H4X13636   2.019   2.850   2.823
  127SAPC   H4Y13637   1.937   2.730   2.717
  127SAPC   C3513638   1.840   2.763   2.910
  127SAPC   H5X13639   1.878   2.663   2.940
  127SAPC   H5Y13640   1.733   2.752   2.881
  127SAPC   C3613641   1.850   2.859   3.029
  127SAPC   H6X13642   1.798   2.955   3.005
  127SAPC   H6Y13643   1.956   2.883   3.052
  127SAPC   C3713644   1.785   2.797   3.152
  127SAPC   H7X13645   1.846   2.710   3.184
  127SAPC   H7Y13646   1.686   2.758   3.121
  127SAPC   C3813647   1.766   2.895   3.268
  127SAPC   H8X13648   1.675   2.957   3.248
  127SAPC   H8Y13649   1.853   2.964   3.273
  127SAPC   C3913650   1.750   2.822   3.402
  127SAPC   H9X13651   1.686   2.734   3.385
  127SAPC   H9Y13652   1.700   2.889   3.475
  127SAPC  C31013653   1.884   2.776   3.460
  127SAPC  H10X13654   1.945   2.864   3.488
  127SAPC  H10Y13655   1.941   2.720   3.382
  127SAPC  C31113656   1.868   2.684   3.582
  127SAPC  H11X13657   1.969   2.650   3.612
  127SAPC  H11Y13658   1.809   2.595   3.553
  127SAPC  C31213659   1.800   2.752   3.702
  127SAPC  H12X13660   1.690   2.760   3.686
  127SAPC  H12Y13661   1.840   2.855   3.708
  127SAPC  C31313662   1.829   2.683   3.836
  127SAPC  H13X13663   1.931   2.638   3.831
  127SAPC  H13Y13664   1.757   2.600   3.850
  127SAPC  C31413665   1.829   2.775   3.959
  127SAPC  H14X13666   1.914   2.846   3.951
  127SAPC  H14Y13667   1.845   2.713   4.050
  127SAPC  C31513668   1.705   2.862   3.982
  127SAPC  H15X13669   1.619   2.796   4.001
  127SAPC  H15Y13670   1.684   2.923   3.891
  127SAPC  C31613671   1.729   2.954   4.103
  127SAPC  H16X13672   1.829   3.002   4.089
  127SAPC  H16Y13673   1.734   2.891   4.195
  127SAPC  C31713674   1.629   3.068   4.126
  127SAPC  H17X13675   1.527   3.027   4.143
  127SAPC  H17Y13676   1.624   3.131   4.034
  127SAPC  C31813677   1.671   3.154   4.245
  127SAPC  H18X13678   1.666   3.094   4.339
  127SAPC  H18Y13679   1.606   3.243   4.257
  127SAPC  H18Z13680   1.776   3.188   4.233
  128SAPC     N13681   3.427   0.474   2.254
  128SAPC   C1213682   3.323   0.585   2.243
  128SAPC  H12A13683   3.372   0.681   2.245
  128SAPC  H12B13684   3.256   0.584   2.328
  128SAPC   C1313685   3.507   0.489   2.380
  128SAPC  H13A13686   3.444   0.503   2.467
  128SAPC  H13B13687   3.569   0.402   2.398
  128SAPC  H13C13688   3.574   0.574   2.373
  128SAPC   C1413689   3.355   0.343   2.252
  128SAPC  H14A13690   3.276   0.348   2.176
  128SAPC  H14B13691   3.419   0.260   2.229
  128SAPC  H14C13692   3.302   0.326   2.345
  128SAPC   C1513693   3.519   0.477   2.135
  128SAPC  H15A13694   3.465   0.442   2.047
  128SAPC  H15B13695   3.554   0.578   2.114
  128SAPC  H15C13696   3.608   0.416   2.145
  128SAPC   C1113697   3.232   0.581   2.118
  128SAPC  H11A13698   3.294   0.572   2.026
  128SAPC  H11B13699   3.180   0.681   2.110
  128SAPC     P13700   2.987   0.497   2.164
  128SAPC   O1313701   2.971   0.632   2.222
  128SAPC   O1413702   2.908   0.470   2.042
  128SAPC   O1213703   3.140   0.472   2.126
  128SAPC   O1113704   2.958   0.391   2.280
  128SAPC    C113705   2.947   0.250   2.265
  128SAPC    HA13706   2.853   0.225   2.211
  128SAPC    HB13707   3.032   0.212   2.204
  128SAPC    C213708   2.946   0.168   2.400
  128SAPC    HS13709   2.945   0.061   2.369
  128SAPC   O2113710   2.835   0.197   2.488
  128SAPC   C2113711   2.801   0.099   2.572
  128SAPC   O2213712   2.831  -0.019   2.559
  128SAPC   C2213713   2.723   0.155   2.690
  128SAPC   H2R13714   2.631   0.202   2.651
  128SAPC   H2S13715   2.696   0.071   2.756
  128SAPC    C313716   3.077   0.185   2.484
  128SAPC    HX13717   3.159   0.159   2.413
  128SAPC    HY13718   3.072   0.107   2.562
  128SAPC   O3113719   3.099   0.310   2.554
  128SAPC   C3113720   3.226   0.328   2.587
  128SAPC   O3213721   3.321   0.267   2.538
  128SAPC   C3213722   3.240   0.430   2.700
  128SAPC   H2X13723   3.170   0.400   2.781
  128SAPC   H2Y13724   3.210   0.529   2.662
  128SAPC   C2313725   2.805   0.261   2.768
  128SAPC   H3R13726   2.737   0.313   2.840
  128SAPC   H3S13727   2.844   0.339   2.699
  128SAPC   C2413728   2.921   0.201   2.849
  128SAPC   H4R13729   2.974   0.285   2.900
  128SAPC   H4S13730   2.995   0.155   2.780
  128SAPC   C2513731   2.870   0.101   2.949
  128SAPC   H5R13732   2.872  -0.004   2.919
  128SAPC   C2613733   2.829   0.133   3.072
  128SAPC   H6R13734   2.806   0.053   3.144
  128SAPC   C2713735   2.827   0.273   3.125
  128SAPC   H7R13736   2.781   0.342   3.052
  128SAPC   H7S13737   2.932   0.307   3.137
  128SAPC   C2813738   2.749   0.279   3.253
  128SAPC   H8R13739   2.645   0.242   3.248
  128SAPC   C2913740   2.796   0.329   3.367
  128SAPC   H9R13741   2.732   0.328   3.457
  128SAPC  C21013742   2.935   0.387   3.386
  128SAPC  H10R13743   2.939   0.436   3.486
  128SAPC  H10S13744   2.952   0.468   3.312
  128SAPC  C21113745   3.047   0.285   3.377
  128SAPC  H11R13746   3.120   0.299   3.296
  128SAPC  C21213747   3.067   0.188   3.468
  128SAPC  H12R13748   3.157   0.124   3.462
  128SAPC  C21313749   2.979   0.171   3.589
  128SAPC  H13R13750   2.880   0.220   3.577
  128SAPC  H13S13751   3.026   0.225   3.674
  128SAPC  C21413752   2.949   0.030   3.624
  128SAPC  H14R13753   2.908  -0.032   3.542
  128SAPC  C21513754   2.960  -0.021   3.747
  128SAPC  H15R13755   2.927  -0.123   3.767
  128SAPC  C21613756   3.003   0.050   3.871
  128SAPC  H16R13757   2.949   0.006   3.958
  128SAPC  H16S13758   2.978   0.159   3.870
  128SAPC  C21713759   3.153   0.029   3.887
  128SAPC  H17R13760   3.209   0.095   3.816
  128SAPC  H17S13761   3.180  -0.076   3.861
  128SAPC  C21813762   3.202   0.053   4.029
  128SAPC  H18R13763   3.129   0.016   4.104
  128SAPC  H18S13764   3.213   0.163   4.046
  128SAPC  C21913765   3.335  -0.020   4.047
  128SAPC  H19R13766   3.399   0.008   3.960
  128SAPC  H19S13767   3.317  -0.130   4.041
  128SAPC  C22013768   3.408   0.012   4.176
  128SAPC  H20R13769   3.406   0.122   4.194
  128SAPC  H20S13770   3.514  -0.021   4.169
  128SAPC  H20T13771   3.361  -0.039   4.263
  128SAPC   C3313772   3.384   0.435   2.755
  128SAPC   H3X13773   3.455   0.464   2.675
  128SAPC   H3Y13774   3.415   0.333   2.790
  128SAPC   C3413775   3.402   0.533   2.871
  128SAPC   H4X13776   3.359   0.632   2.848
  128SAPC   H4Y13777   3.512   0.546   2.886
  128SAPC   C3513778   3.346   0.480   3.004
  128SAPC   H5X13779   3.376   0.373   3.014
  128SAPC   H5Y13780   3.235   0.482   3.005
  128SAPC   C3613781   3.402   0.558   3.124
  128SAPC   H6X13782   3.353   0.657   3.133
  128SAPC   H6Y13783   3.511   0.575   3.105
  128SAPC   C3713784   3.391   0.479   3.254
  128SAPC   H7X13785   3.430   0.376   3.234
  128SAPC   H7Y13786   3.284   0.469   3.284
  128SAPC   C3813787   3.473   0.540   3.368
  128SAPC   H8X13788   3.413   0.621   3.417
  128SAPC   H8Y13789   3.565   0.588   3.327
  128SAPC   C3913790   3.517   0.437   3.473
  128SAPC   H9X13791   3.560   0.490   3.561
  128SAPC   H9Y13792   3.601   0.379   3.430
  128SAPC  C31013793   3.405   0.341   3.518
  128SAPC  H10X13794   3.444   0.266   3.590
  128SAPC  H10Y13795   3.368   0.284   3.430
  128SAPC  C31113796   3.287   0.413   3.586
  128SAPC  H11X13797   3.208   0.339   3.608
  128SAPC  H11Y13798   3.245   0.489   3.517
  128SAPC  C31213799   3.324   0.475   3.721
  128SAPC  H12X13800   3.424   0.523   3.712
  128SAPC  H12Y13801   3.332   0.393   3.796
  128SAPC  C31313802   3.226   0.583   3.769
  128SAPC  H13X13803   3.216   0.662   3.692
  128SAPC  H13Y13804   3.274   0.629   3.859
  128SAPC  C31413805   3.086   0.532   3.809
  128SAPC  H14X13806   3.097   0.432   3.856
  128SAPC  H14Y13807   3.025   0.517   3.718
  128SAPC  C31513808   3.012   0.627   3.905
  128SAPC  H15X13809   2.909   0.589   3.921
  128SAPC  H15Y13810   3.003   0.727   3.858
  128SAPC  C31613811   3.078   0.645   4.044
  128SAPC  H16X13812   3.009   0.705   4.108
  128SAPC  H16Y13813   3.172   0.704   4.034
  128SAPC  C31713814   3.109   0.513   4.117
  128SAPC  H17X13815   3.132   0.537   4.224
  128SAPC  H17Y13816   3.200   0.467   4.073
  128SAPC  C31813817   2.995   0.411   4.114
  128SAPC  H18X13818   2.991   0.356   4.018
  128SAPC  H18Y13819   2.898   0.464   4.128
  128SAPC  H18Z13820   3.007   0.336   4.194
  129SAPC     N13821   0.535   4.407   2.165
  129SAPC   C1213822   0.560   4.275   2.093
  129SAPC  H12A13823   0.654   4.284   2.041
  129SAPC  H12B13824   0.481   4.261   2.020
  129SAPC   C1313825   0.632   4.423   2.278
  129SAPC  H13A13826   0.619   4.337   2.345
  129SAPC  H13B13827   0.735   4.425   2.245
  129SAPC  H13C13828   0.614   4.512   2.336
  129SAPC   C1413829   0.546   4.520   2.067
  129SAPC  H14A13830   0.477   4.508   1.984
  129SAPC  H14B13831   0.531   4.616   2.112
  129SAPC  H14C13832   0.646   4.524   2.022
  129SAPC   C1513833   0.398   4.401   2.224
  129SAPC  H15A13834   0.394   4.314   2.290
  129SAPC  H15B13835   0.374   4.487   2.282
  129SAPC  H15C13836   0.322   4.381   2.149
  129SAPC   C1113837   0.563   4.144   2.177
  129SAPC  H11A13838   0.652   4.147   2.244
  129SAPC  H11B13839   0.577   4.058   2.108
  129SAPC     P13840   0.440   4.056   2.392
  129SAPC   O1313841   0.447   3.909   2.375
  129SAPC   O1413842   0.540   4.122   2.477
  129SAPC   O1213843   0.441   4.127   2.249
  129SAPC   O1113844   0.293   4.094   2.437
  129SAPC    C113845   0.190   4.064   2.342
  129SAPC    HA13846   0.211   4.113   2.244
  129SAPC    HB13847   0.184   3.954   2.323
  129SAPC    C213848   0.049   4.114   2.386
  129SAPC    HS13849  -0.009   4.130   2.292
  129SAPC   O2113850   0.055   4.236   2.462
  129SAPC   C2113851   0.106   4.333   2.389
  129SAPC   O2213852   0.105   4.339   2.267
  129SAPC   C2213853   0.150   4.446   2.480
  129SAPC   H2R13854   0.229   4.503   2.426
  129SAPC   H2S13855   0.064   4.513   2.496
  129SAPC    C313856  -0.032   4.012   2.468
  129SAPC    HX13857  -0.048   3.921   2.407
  129SAPC    HY13858  -0.132   4.057   2.481
  129SAPC   O3113859   0.024   3.986   2.599
  129SAPC   C3113860   0.117   3.892   2.600
  129SAPC   O3213861   0.135   3.810   2.513
  129SAPC   C3213862   0.194   3.896   2.731
  129SAPC   H2X13863   0.136   3.836   2.803
  129SAPC   H2Y13864   0.200   4.001   2.763
  129SAPC   C2313865   0.210   4.397   2.614
  129SAPC   H3R13866   0.278   4.311   2.594
  129SAPC   H3S13867   0.129   4.361   2.681
  129SAPC   C2413868   0.289   4.511   2.680
  129SAPC   H4R13869   0.217   4.588   2.715
  129SAPC   H4S13870   0.354   4.559   2.604
  129SAPC   C2513871   0.375   4.458   2.791
  129SAPC   H5R13872   0.476   4.426   2.762
  129SAPC   C2613873   0.337   4.443   2.919
  129SAPC   H6R13874   0.408   4.397   2.989
  129SAPC   C2713875   0.200   4.476   2.975
  129SAPC   H7R13876   0.133   4.388   2.957
  129SAPC   H7S13877   0.152   4.560   2.921
  129SAPC   C2813878   0.208   4.506   3.123
  129SAPC   H8R13879   0.221   4.612   3.149
  129SAPC   C2913880   0.196   4.414   3.221
  129SAPC   H9R13881   0.201   4.446   3.326
  129SAPC  C21013882   0.174   4.267   3.198
  129SAPC  H10R13883   0.235   4.209   3.271
  129SAPC  H10S13884   0.211   4.235   3.098
  129SAPC  C21113885   0.028   4.229   3.208
  129SAPC  H11R13886  -0.029   4.236   3.114
  129SAPC  C21213887  -0.034   4.184   3.318
  129SAPC  H12R13888  -0.137   4.147   3.309
  129SAPC  C21313889   0.026   4.159   3.453
  129SAPC  H13R13890  -0.048   4.183   3.533
  129SAPC  H13S13891   0.113   4.227   3.471
  129SAPC  C21413892   0.068   4.015   3.463
  129SAPC  H14R13893   0.048   3.950   3.376
  129SAPC  C21513894   0.133   3.961   3.566
  129SAPC  H15R13895   0.157   3.854   3.566
  129SAPC  C21613896   0.174   4.037   3.688
  129SAPC  H16R13897   0.150   4.146   3.682
  129SAPC  H16S13898   0.282   4.029   3.705
  129SAPC  C21713899   0.106   3.978   3.809
  129SAPC  H17R13900   0.021   3.915   3.782
  129SAPC  H17S13901   0.063   4.064   3.863
  129SAPC  C21813902   0.200   3.892   3.892
  129SAPC  H18R13903   0.286   3.954   3.927
  129SAPC  H18S13904   0.238   3.809   3.830
  129SAPC  C21913905   0.127   3.836   4.013
  129SAPC  H19R13906   0.203   3.789   4.078
  129SAPC  H19S13907   0.058   3.754   3.985
  129SAPC  C22013908   0.053   3.943   4.090
  129SAPC  H20R13909   0.002   3.897   4.177
  129SAPC  H20S13910  -0.024   3.996   4.032
  129SAPC  H20T13911   0.127   4.017   4.128
  129SAPC   C3313912   0.334   3.832   2.724
  129SAPC   H3X13913   0.397   3.883   2.648
  129SAPC   H3Y13914   0.324   3.725   2.694
  129SAPC   C3413915   0.402   3.841   2.862
  129SAPC   H4X13916   0.491   3.775   2.863
  129SAPC   H4Y13917   0.330   3.803   2.938
  129SAPC   C3513918   0.445   3.984   2.896
  129SAPC   H5X13919   0.357   4.052   2.894
  129SAPC   H5Y13920   0.514   4.019   2.816
  129SAPC   C3613921   0.515   3.999   3.032
  129SAPC   H6X13922   0.552   4.104   3.039
  129SAPC   H6Y13923   0.603   3.932   3.036
  129SAPC   C3713924   0.426   3.973   3.154
  129SAPC   H7X13925   0.398   3.865   3.159
  129SAPC   H7Y13926   0.332   4.032   3.146
  129SAPC   C3813927   0.498   4.012   3.285
  129SAPC   H8X13928   0.524   4.120   3.281
  129SAPC   H8Y13929   0.592   3.954   3.292
  129SAPC   C3913930   0.414   3.986   3.410
  129SAPC   H9X13931   0.363   3.888   3.398
  129SAPC   H9Y13932   0.336   4.065   3.418
  129SAPC  C31013933   0.497   3.982   3.540
  129SAPC  H10X13934   0.579   3.909   3.526
  129SAPC  H10Y13935   0.435   3.942   3.622
  129SAPC  C31113936   0.556   4.118   3.581
  129SAPC  H11X13937   0.537   4.194   3.502
  129SAPC  H11Y13938   0.666   4.106   3.590
  129SAPC  C31213939   0.503   4.171   3.715
  129SAPC  H12X13940   0.517   4.094   3.794
  129SAPC  H12Y13941   0.394   4.193   3.708
  129SAPC  C31313942   0.571   4.302   3.754
  129SAPC  H13X13943   0.512   4.385   3.708
  129SAPC  H13Y13944   0.673   4.306   3.710
  129SAPC  C31413945   0.584   4.326   3.904
  129SAPC  H14X13946   0.602   4.435   3.916
  129SAPC  H14Y13947   0.672   4.274   3.946
  129SAPC  C31513948   0.464   4.289   3.992
  129SAPC  H15X13949   0.476   4.185   4.030
  129SAPC  H15Y13950   0.368   4.293   3.936
  129SAPC  C31613951   0.459   4.388   4.108
  129SAPC  H16X13952   0.418   4.484   4.070
  129SAPC  H16Y13953   0.562   4.411   4.145
  129SAPC  C31713954   0.375   4.339   4.224
  129SAPC  H17X13955   0.441   4.314   4.310
  129SAPC  H17Y13956   0.321   4.246   4.196
  129SAPC  C31813957   0.276   4.447   4.265
  129SAPC  H18X13958   0.244   4.429   4.370
  129SAPC  H18Y13959   0.184   4.451   4.205
  129SAPC  H18Z13960   0.323   4.546   4.257
  130SAPC     N13961   7.147   2.797   2.030
  130SAPC   C1213962   7.027   2.827   2.118
  130SAPC  H12A13963   6.939   2.784   2.074
  130SAPC  H12B13964   7.013   2.935   2.119
  130SAPC   C1313965   7.107   2.826   1.890
  130SAPC  H13A13966   7.087   2.932   1.873
  130SAPC  H13B13967   7.188   2.801   1.824
  130SAPC  H13C13968   7.024   2.766   1.856
  130SAPC   C1413969   7.262   2.884   2.072
  130SAPC  H14A13970   7.251   2.987   2.041
  130SAPC  H14B13971   7.271   2.886   2.182
  130SAPC  H14C13972   7.354   2.845   2.031
  130SAPC   C1513973   7.192   2.655   2.041
  130SAPC  H15A13974   7.279   2.638   1.978
  130SAPC  H15B13975   7.222   2.639   2.145
  130SAPC  H15C13976   7.116   2.585   2.014
  130SAPC   C1113977   7.036   2.784   2.265
  130SAPC  H11A13978   7.059   2.675   2.272
  130SAPC  H11B13979   6.939   2.801   2.317
  130SAPC     P13980   7.224   2.821   2.442
  130SAPC   O1313981   7.231   2.673   2.435
  130SAPC   O1413982   7.354   2.890   2.425
  130SAPC   O1213983   7.134   2.868   2.323
  130SAPC   O1113984   7.149   2.866   2.578
  130SAPC    C113985   7.051   2.971   2.573
  130SAPC    HA13986   7.108   3.056   2.539
  130SAPC    HB13987   6.972   2.950   2.499
  130SAPC    C213988   6.986   3.040   2.701
  130SAPC    HS13989   6.972   3.147   2.671
  130SAPC   O2113990   7.067   3.032   2.820
  130SAPC   C2113991   7.031   3.118   2.916
  130SAPC   O2213992   6.943   3.202   2.907
  130SAPC   C2213993   7.111   3.088   3.042
  130SAPC   H2R13994   7.078   2.988   3.079
  130SAPC   H2S13995   7.218   3.080   3.013
  130SAPC    C313996   6.845   2.980   2.733
  130SAPC    HX13997   6.777   2.995   2.645
  130SAPC    HY13998   6.797   3.039   2.815
  130SAPC   O3113999   6.858   2.843   2.775
  130SAPC   C3114000   6.863   2.757   2.673
  130SAPC   O3214001   6.806   2.770   2.566
  130SAPC   C3214002   6.969   2.650   2.704
  130SAPC   H2X14003   7.068   2.691   2.682
  130SAPC   H2Y14004   6.950   2.569   2.630
  130SAPC   C2314005   7.095   3.195   3.152
  130SAPC   H3R14006   6.986   3.219   3.166
  130SAPC   H3S14007   7.145   3.289   3.119
  130SAPC   C2414008   7.153   3.152   3.289
  130SAPC   H4R14009   7.148   3.240   3.357
  130SAPC   H4S14010   7.260   3.126   3.277
  130SAPC   C2514011   7.071   3.040   3.346
  130SAPC   H5R14012   6.963   3.049   3.327
  130SAPC   C2614013   7.114   2.929   3.409
  130SAPC   H6R14014   7.037   2.860   3.446
  130SAPC   C2714015   7.257   2.889   3.439
  130SAPC   H7R14016   7.321   2.976   3.465
  130SAPC   H7S14017   7.303   2.845   3.348
  130SAPC   C2814018   7.260   2.781   3.545
  130SAPC   H8R14019   7.176   2.711   3.538
  130SAPC   C2914020   7.350   2.756   3.641
  130SAPC   H9R14021   7.331   2.672   3.709
  130SAPC  C21014022   7.477   2.831   3.671
  130SAPC  H10R14023   7.495   2.911   3.596
  130SAPC  H10S14024   7.564   2.762   3.664
  130SAPC  C21114025   7.467   2.890   3.809
  130SAPC  H11R14026   7.533   2.845   3.885
  130SAPC  C21214027   7.383   2.988   3.847
  130SAPC  H12R14028   7.386   3.025   3.951
  130SAPC  C21314029   7.282   3.059   3.761
  130SAPC  H13R14030   7.297   3.035   3.655
  130SAPC  H13S14031   7.312   3.162   3.765
  130SAPC  C21414032   7.134   3.059   3.789
  130SAPC  H14R14033   7.076   2.985   3.732
  130SAPC  C21514034   7.067   3.140   3.874
  130SAPC  H15R14035   6.959   3.128   3.875
  130SAPC  C21614036   7.118   3.252   3.964
  130SAPC  H16R14037   7.223   3.267   3.940
  130SAPC  H16S14038   7.116   3.214   4.069
  130SAPC  C21714039   7.051   3.395   3.970
  130SAPC  H17R14040   7.127   3.473   3.980
  130SAPC  H17S14041   6.994   3.404   4.065
  130SAPC  C21814042   6.956   3.418   3.851
  130SAPC  H18R14043   6.895   3.328   3.858
  130SAPC  H18S14044   7.012   3.409   3.756
  130SAPC  C21914045   6.853   3.536   3.842
  130SAPC  H19R14046   6.772   3.502   3.774
  130SAPC  H19S14047   6.899   3.619   3.786
  130SAPC  C22014048   6.789   3.593   3.969
  130SAPC  H20R14049   6.835   3.552   4.060
  130SAPC  H20S14050   6.681   3.570   3.974
  130SAPC  H20T14051   6.797   3.704   3.970
  130SAPC   C3314052   6.976   2.596   2.849
  130SAPC   H3X14053   7.031   2.499   2.847
  130SAPC   H3Y14054   6.874   2.572   2.877
  130SAPC   C3414055   7.050   2.686   2.951
  130SAPC   H4X14056   7.020   2.793   2.936
  130SAPC   H4Y14057   7.158   2.682   2.929
  130SAPC   C3514058   7.026   2.655   3.101
  130SAPC   H5X14059   6.924   2.692   3.121
  130SAPC   H5Y14060   7.095   2.715   3.163
  130SAPC   C3614061   7.028   2.506   3.142
  130SAPC   H6X14062   7.122   2.458   3.106
  130SAPC   H6Y14063   6.945   2.458   3.087
  130SAPC   C3714064   7.006   2.472   3.293
  130SAPC   H7X14065   7.102   2.455   3.345
  130SAPC   H7Y14066   6.951   2.375   3.296
  130SAPC   C3814067   6.926   2.577   3.374
  130SAPC   H8X14068   6.857   2.617   3.300
  130SAPC   H8Y14069   6.993   2.659   3.406
  130SAPC   C3914070   6.835   2.530   3.491
  130SAPC   H9X14071   6.774   2.445   3.452
  130SAPC   H9Y14072   6.763   2.608   3.518
  130SAPC  C31014073   6.904   2.481   3.620
  130SAPC  H10X14074   6.957   2.406   3.562
  130SAPC  H10Y14075   6.834   2.427   3.685
  130SAPC  C31114076   6.986   2.583   3.706
  130SAPC  H11X14077   6.908   2.625   3.772
  130SAPC  H11Y14078   7.023   2.664   3.640
  130SAPC  C31214079   7.098   2.554   3.813
  130SAPC  H12X14080   7.187   2.505   3.773
  130SAPC  H12Y14081   7.056   2.491   3.894
  130SAPC  C31314082   7.137   2.685   3.886
  130SAPC  H13X14083   7.046   2.708   3.942
  130SAPC  H13Y14084   7.156   2.766   3.814
  130SAPC  C31414085   7.239   2.692   4.001
  130SAPC  H14X14086   7.342   2.693   3.960
  130SAPC  H14Y14087   7.227   2.606   4.070
  130SAPC  C31514088   7.221   2.822   4.083
  130SAPC  H15X14089   7.127   2.818   4.141
  130SAPC  H15Y14090   7.207   2.907   4.012
  130SAPC  C31614091   7.343   2.853   4.173
  130SAPC  H16X14092   7.397   2.943   4.134
  130SAPC  H16Y14093   7.414   2.768   4.168
  130SAPC  C31714094   7.309   2.881   4.320
  130SAPC  H17X14095   7.405   2.897   4.374
  130SAPC  H17Y14096   7.262   2.791   4.363
  130SAPC  C31814097   7.219   3.003   4.341
  130SAPC  H18X14098   7.212   3.027   4.449
  130SAPC  H18Y14099   7.116   2.983   4.304
  130SAPC  H18Z14100   7.259   3.091   4.287
  131SAPC     N14101   0.614   1.543   2.059
  131SAPC   C1214102   0.695   1.528   2.187
  131SAPC  H12A14103   0.772   1.605   2.189
  131SAPC  H12B14104   0.741   1.430   2.189
  131SAPC   C1314105   0.703   1.531   1.939
  131SAPC  H13A14106   0.751   1.433   1.937
  131SAPC  H13B14107   0.645   1.541   1.849
  131SAPC  H13C14108   0.779   1.609   1.941
  131SAPC   C1414109   0.510   1.437   2.050
  131SAPC  H14A14110   0.433   1.458   1.978
  131SAPC  H14B14111   0.556   1.342   2.025
  131SAPC  H14C14112   0.464   1.422   2.149
  131SAPC   C1514113   0.546   1.677   2.058
  131SAPC  H15A14114   0.621   1.756   2.063
  131SAPC  H15B14115   0.486   1.690   1.971
  131SAPC  H15C14116   0.483   1.687   2.146
  131SAPC   C1114117   0.619   1.534   2.321
  131SAPC  H11A14118   0.559   1.628   2.325
  131SAPC  H11B14119   0.690   1.535   2.406
  131SAPC     P14120   0.423   1.403   2.437
  131SAPC   O1314121   0.314   1.319   2.382
  131SAPC   O1414122   0.481   1.375   2.569
  131SAPC   O1214123   0.538   1.417   2.330
  131SAPC   O1114124   0.370   1.554   2.436
  131SAPC    C114125   0.289   1.597   2.325
  131SAPC    HA14126   0.342   1.580   2.228
  131SAPC    HB14127   0.197   1.534   2.322
  131SAPC    C214128   0.247   1.748   2.330
  131SAPC    HS14129   0.302   1.804   2.251
  131SAPC   O2114130   0.272   1.805   2.459
  131SAPC   C2114131   0.395   1.848   2.481
  131SAPC   O2214132   0.478   1.872   2.395
  131SAPC   C2214133   0.410   1.878   2.631
  131SAPC   H2R14134   0.379   1.983   2.645
  131SAPC   H2S14135   0.339   1.814   2.686
  131SAPC    C314136   0.095   1.765   2.302
  131SAPC    HX14137   0.077   1.753   2.193
  131SAPC    HY14138   0.065   1.869   2.329
  131SAPC   O3114139   0.021   1.664   2.374
  131SAPC   C3114140  -0.005   1.702   2.500
  131SAPC   O3214141  -0.082   1.791   2.529
  131SAPC   C3214142   0.080   1.624   2.599
  131SAPC   H2X14143   0.185   1.621   2.564
  131SAPC   H2Y14144   0.044   1.520   2.602
  131SAPC   C2314145   0.552   1.856   2.688
  131SAPC   H3R14146   0.623   1.915   2.625
  131SAPC   H3S14147   0.582   1.749   2.682
  131SAPC   C2414148   0.566   1.911   2.833
  131SAPC   H4R14149   0.511   2.007   2.831
  131SAPC   H4S14150   0.674   1.936   2.848
  131SAPC   C2514151   0.517   1.830   2.951
  131SAPC   H5R14152   0.585   1.750   2.984
  131SAPC   C2614153   0.400   1.846   3.016
  131SAPC   H6R14154   0.379   1.778   3.100
  131SAPC   C2714155   0.289   1.946   2.988
  131SAPC   H7R14156   0.197   1.906   3.038
  131SAPC   H7S14157   0.264   1.941   2.880
  131SAPC   C2814158   0.300   2.093   3.023
  131SAPC   H8R14159   0.290   2.162   2.936
  131SAPC   C2914160   0.312   2.148   3.145
  131SAPC   H9R14161   0.312   2.257   3.154
  131SAPC  C21014162   0.315   2.070   3.274
  131SAPC  H10R14163   0.380   1.981   3.259
  131SAPC  H10S14164   0.215   2.033   3.284
  131SAPC  C21114165   0.349   2.123   3.409
  131SAPC  H11R14166   0.456   2.147   3.420
  131SAPC  C21214167   0.274   2.141   3.520
  131SAPC  H12R14168   0.338   2.152   3.607
  131SAPC  C21314169   0.127   2.122   3.563
  131SAPC  H13R14170   0.069   2.118   3.473
  131SAPC  H13S14171   0.116   2.226   3.598
  131SAPC  C21414172   0.042   2.047   3.671
  131SAPC  H14R14173   0.031   2.125   3.747
  131SAPC  C21514174  -0.004   1.930   3.730
  131SAPC  H15R14175  -0.072   1.954   3.813
  131SAPC  C21614176  -0.012   1.775   3.731
  131SAPC  H16R14177  -0.081   1.743   3.653
  131SAPC  H16S14178  -0.072   1.757   3.823
  131SAPC  C21714179   0.087   1.653   3.745
  131SAPC  H17R14180   0.193   1.672   3.726
  131SAPC  H17S14181   0.054   1.578   3.669
  131SAPC  C21814182   0.079   1.576   3.879
  131SAPC  H18R14183   0.121   1.474   3.865
  131SAPC  H18S14184  -0.027   1.562   3.908
  131SAPC  C21914185   0.156   1.643   3.994
  131SAPC  H19R14186   0.155   1.754   3.979
  131SAPC  H19S14187   0.262   1.611   3.987
  131SAPC  C22014188   0.101   1.611   4.133
  131SAPC  H20R14189  -0.002   1.650   4.145
  131SAPC  H20S14190   0.166   1.657   4.210
  131SAPC  H20T14191   0.098   1.501   4.149
  131SAPC   C3314192   0.083   1.693   2.737
  131SAPC   H3X14193  -0.019   1.702   2.780
  131SAPC   H3Y14194   0.124   1.795   2.717
  131SAPC   C3414195   0.180   1.636   2.841
  131SAPC   H4X14196   0.157   1.678   2.942
  131SAPC   H4Y14197   0.282   1.671   2.815
  131SAPC   C3514198   0.190   1.484   2.851
  131SAPC   H5X14199   0.164   1.434   2.755
  131SAPC   H5Y14200   0.118   1.447   2.927
  131SAPC   C3614201   0.335   1.445   2.883
  131SAPC   H6X14202   0.383   1.523   2.946
  131SAPC   H6Y14203   0.392   1.444   2.787
  131SAPC   C3714204   0.347   1.309   2.951
  131SAPC   H7X14205   0.455   1.285   2.962
  131SAPC   H7Y14206   0.305   1.235   2.881
  131SAPC   C3814207   0.278   1.299   3.088
  131SAPC   H8X14208   0.304   1.202   3.135
  131SAPC   H8Y14209   0.167   1.300   3.075
  131SAPC   C3914210   0.321   1.412   3.182
  131SAPC   H9X14211   0.308   1.512   3.135
  131SAPC   H9Y14212   0.430   1.397   3.202
  131SAPC  C31014213   0.246   1.417   3.316
  131SAPC  H10X14214   0.213   1.314   3.342
  131SAPC  H10Y14215   0.155   1.480   3.305
  131SAPC  C31114216   0.336   1.469   3.430
  131SAPC  H11X14217   0.410   1.389   3.452
  131SAPC  H11Y14218   0.273   1.483   3.521
  131SAPC  C31214219   0.414   1.598   3.399
  131SAPC  H12X14220   0.343   1.680   3.377
  131SAPC  H12Y14221   0.476   1.586   3.307
  131SAPC  C31314222   0.509   1.635   3.515
  131SAPC  H13X14223   0.579   1.550   3.530
  131SAPC  H13Y14224   0.451   1.643   3.610
  131SAPC  C31414225   0.592   1.763   3.495
  131SAPC  H14X14226   0.531   1.852   3.474
  131SAPC  H14Y14227   0.654   1.747   3.404
  131SAPC  C31514228   0.684   1.792   3.616
  131SAPC  H15X14229   0.766   1.857   3.580
  131SAPC  H15Y14230   0.723   1.695   3.652
  131SAPC  C31614231   0.616   1.865   3.733
  131SAPC  H16X14232   0.523   1.806   3.752
  131SAPC  H16Y14233   0.593   1.969   3.701
  131SAPC  C31714234   0.683   1.872   3.871
  131SAPC  H17X14235   0.778   1.930   3.869
  131SAPC  H17Y14236   0.704   1.770   3.905
  131SAPC  C31814237   0.588   1.922   3.980
  131SAPC  H18X14238   0.561   2.028   3.968
  131SAPC  H18Y14239   0.634   1.906   4.081
  131SAPC  H18Z14240   0.495   1.860   3.976
  132SAPC     N14241   0.727   0.299   2.093
  132SAPC   C1214242   0.585   0.258   2.050
  132SAPC  H12A14243   0.590   0.206   1.955
  132SAPC  H12B14244   0.530   0.349   2.032
  132SAPC   C1314245   0.824   0.186   2.089
  132SAPC  H13A14246   0.806   0.117   2.171
  132SAPC  H13B14247   0.820   0.129   1.996
  132SAPC  H13C14248   0.927   0.221   2.096
  132SAPC   C1414249   0.773   0.406   2.000
  132SAPC  H14A14250   0.707   0.491   2.002
  132SAPC  H14B14251   0.872   0.443   2.028
  132SAPC  H14C14252   0.780   0.371   1.898
  132SAPC   C1514253   0.723   0.361   2.229
  132SAPC  H15A14254   0.820   0.396   2.260
  132SAPC  H15B14255   0.655   0.445   2.230
  132SAPC  H15C14256   0.684   0.290   2.302
  132SAPC   C1114257   0.494   0.171   2.141
  132SAPC  H11A14258   0.471   0.077   2.085
  132SAPC  H11B14259   0.397   0.226   2.153
  132SAPC     P14260   0.463   0.070   2.375
  132SAPC   O1314261   0.351   0.161   2.405
  132SAPC   O1414262   0.431  -0.065   2.324
  132SAPC   O1214263   0.555   0.140   2.266
  132SAPC   O1114264   0.569   0.049   2.496
  132SAPC    C114265   0.677  -0.038   2.452
  132SAPC    HA14266   0.638  -0.133   2.409
  132SAPC    HB14267   0.738   0.017   2.376
  132SAPC    C214268   0.790  -0.090   2.550
  132SAPC    HS14269   0.859  -0.152   2.488
  132SAPC   O2114270   0.735  -0.168   2.657
  132SAPC   C2114271   0.801  -0.202   2.766
  132SAPC   O2214272   0.920  -0.188   2.790
  132SAPC   C2214273   0.701  -0.270   2.858
  132SAPC   H2R14274   0.619  -0.197   2.870
  132SAPC   H2S14275   0.661  -0.359   2.805
  132SAPC    C314276   0.871   0.029   2.604
  132SAPC    HX14277   0.909   0.088   2.517
  132SAPC    HY14278   0.959  -0.012   2.654
  132SAPC   O3114279   0.797   0.104   2.699
  132SAPC   C3114280   0.765   0.224   2.662
  132SAPC   O3214281   0.821   0.292   2.577
  132SAPC   C3214282   0.653   0.274   2.755
  132SAPC   H2X14283   0.568   0.303   2.689
  132SAPC   H2Y14284   0.695   0.363   2.803
  132SAPC   C2314285   0.755  -0.314   2.996
  132SAPC   H3R14286   0.827  -0.240   3.035
  132SAPC   H3S14287   0.810  -0.409   2.985
  132SAPC   C2414288   0.643  -0.334   3.101
  132SAPC   H4R14289   0.686  -0.369   3.197
  132SAPC   H4S14290   0.584  -0.420   3.065
  132SAPC   C2514291   0.557  -0.212   3.120
  132SAPC   H5R14292   0.469  -0.201   3.055
  132SAPC   C2614293   0.588  -0.110   3.202
  132SAPC   H6R14294   0.526  -0.020   3.203
  132SAPC   C2714295   0.714  -0.104   3.285
  132SAPC   H7R14296   0.752  -0.205   3.309
  132SAPC   H7S14297   0.691  -0.057   3.383
  132SAPC   C2814298   0.815  -0.025   3.206
  132SAPC   H8R14299   0.877  -0.080   3.133
  132SAPC   C2914300   0.833   0.107   3.216
  132SAPC   H9R14301   0.908   0.158   3.155
  132SAPC  C21014302   0.754   0.196   3.306
  132SAPC  H10R14303   0.653   0.154   3.323
  132SAPC  H10S14304   0.741   0.295   3.258
  132SAPC  C21114305   0.827   0.208   3.436
  132SAPC  H11R14306   0.900   0.129   3.460
  132SAPC  C21214307   0.806   0.303   3.527
  132SAPC  H12R14308   0.872   0.304   3.615
  132SAPC  C21314309   0.705   0.416   3.520
  132SAPC  H13R14310   0.602   0.377   3.506
  132SAPC  H13S14311   0.722   0.478   3.429
  132SAPC  C21414312   0.709   0.502   3.644
  132SAPC  H14R14313   0.727   0.609   3.628
  132SAPC  C21514314   0.697   0.456   3.770
  132SAPC  H15R14315   0.699   0.527   3.854
  132SAPC  C21614316   0.677   0.313   3.812
  132SAPC  H16R14317   0.644   0.247   3.729
  132SAPC  H16S14318   0.591   0.316   3.878
  132SAPC  C21714319   0.791   0.248   3.893
  132SAPC  H17R14320   0.880   0.236   3.828
  132SAPC  H17S14321   0.757   0.145   3.920
  132SAPC  C21814322   0.827   0.325   4.022
  132SAPC  H18R14323   0.733   0.340   4.082
  132SAPC  H18S14324   0.864   0.425   3.992
  132SAPC  C21914325   0.932   0.261   4.115
  132SAPC  H19R14326   1.022   0.233   4.055
  132SAPC  H19S14327   0.891   0.167   4.157
  132SAPC  C22014328   0.976   0.354   4.230
  132SAPC  H20R14329   0.900   0.434   4.246
  132SAPC  H20S14330   1.073   0.402   4.207
  132SAPC  H20T14331   0.987   0.298   4.326
  132SAPC   C3314332   0.606   0.174   2.864
  132SAPC   H3X14333   0.673   0.181   2.952
  132SAPC   H3Y14334   0.615   0.070   2.826
  132SAPC   C3414335   0.458   0.184   2.905
  132SAPC   H4X14336   0.436   0.091   2.965
  132SAPC   H4Y14337   0.394   0.180   2.814
  132SAPC   C3514338   0.417   0.302   2.995
  132SAPC   H5X14339   0.313   0.283   3.030
  132SAPC   H5Y14340   0.415   0.396   2.936
  132SAPC   C3614341   0.508   0.316   3.117
  132SAPC   H6X14342   0.607   0.355   3.084
  132SAPC   H6Y14343   0.526   0.214   3.158
  132SAPC   C3714344   0.455   0.406   3.230
  132SAPC   H7X14345   0.446   0.509   3.190
  132SAPC   H7Y14346   0.531   0.409   3.310
  132SAPC   C3814347   0.320   0.363   3.291
  132SAPC   H8X14348   0.241   0.381   3.215
  132SAPC   H8Y14349   0.297   0.427   3.379
  132SAPC   C3914350   0.312   0.215   3.334
  132SAPC   H9X14351   0.344   0.150   3.250
  132SAPC   H9Y14352   0.206   0.189   3.355
  132SAPC  C31014353   0.395   0.182   3.459
  132SAPC  H10X14354   0.357   0.241   3.545
  132SAPC  H10Y14355   0.500   0.213   3.443
  132SAPC  C31114356   0.396   0.033   3.498
  132SAPC  H11X14357   0.435  -0.028   3.413
  132SAPC  H11Y14358   0.291   0.001   3.517
  132SAPC  C31214359   0.481   0.004   3.623
  132SAPC  H12X14360   0.452   0.078   3.701
  132SAPC  H12Y14361   0.589   0.022   3.601
  132SAPC  C31314362   0.461  -0.137   3.680
  132SAPC  H13X14363   0.518  -0.211   3.620
  132SAPC  H13Y14364   0.353  -0.162   3.671
  132SAPC  C31414365   0.498  -0.151   3.829
  132SAPC  H14X14366   0.444  -0.239   3.870
  132SAPC  H14Y14367   0.463  -0.061   3.886
  132SAPC  C31514368   0.648  -0.174   3.855
  132SAPC  H15X14369   0.708  -0.086   3.822
  132SAPC  H15Y14370   0.679  -0.261   3.793
  132SAPC  C31614371   0.679  -0.210   4.002
  132SAPC  H16X14372   0.779  -0.257   4.007
  132SAPC  H16Y14373   0.607  -0.286   4.037
  132SAPC  C31714374   0.680  -0.093   4.101
  132SAPC  H17X14375   0.579  -0.085   4.147
  132SAPC  H17Y14376   0.699   0.002   4.048
  132SAPC  C31814377   0.787  -0.108   4.210
  132SAPC  H18X14378   0.887  -0.078   4.172
  132SAPC  H18Y14379   0.794  -0.214   4.243
  132SAPC  H18Z14380   0.764  -0.045   4.299
  133SOPE     N14381   3.025   5.213   6.271
  133SOPE   HN114382   3.026   5.310   6.308
  133SOPE   HN214383   3.081   5.208   6.182
  133SOPE   HN314384   2.926   5.186   6.247
  133SOPE   C1214385   3.073   5.115   6.374
  133SOPE  H12A14386   3.042   5.014   6.340
  133SOPE  H12B14387   3.019   5.140   6.469
  133SOPE   C1114388   3.225   5.118   6.394
  133SOPE  H11A14389   3.271   5.057   6.312
  133SOPE  H11B14390   3.249   5.066   6.490
  133SOPE     P14391   3.432   5.272   6.365
  133SOPE   O1314392   3.511   5.188   6.458
  133SOPE   O1414393   3.470   5.414   6.361
  133SOPE   O1214394   3.276   5.252   6.398
  133SOPE   O1114395   3.444   5.211   6.220
  133SOPE    C114396   3.420   5.295   6.108
  133SOPE    HA14397   3.497   5.375   6.102
  133SOPE    HB14398   3.321   5.346   6.113
  133SOPE    C214399   3.431   5.213   5.977
  133SOPE    HS14400   3.393   5.276   5.893
  133SOPE   O2114401   3.361   5.086   5.976
  133SOPE   C2114402   3.233   5.085   6.004
  133SOPE   O2214403   3.169   5.179   6.048
  133SOPE   C2214404   3.163   4.952   5.974
  133SOPE   H2R14405   3.062   4.977   5.937
  133SOPE   H2S14406   3.152   4.899   6.071
  133SOPE    C314407   3.581   5.185   5.949
  133SOPE    HX14408   3.623   5.139   6.041
  133SOPE    HY14409   3.634   5.282   5.935
  133SOPE   O3114410   3.598   5.095   5.838
  133SOPE   C3114411   3.588   5.154   5.720
  133SOPE   O3214412   3.584   5.274   5.700
  133SOPE   C3214413   3.591   5.047   5.611
  133SOPE   H2X14414   3.512   4.972   5.633
  133SOPE   H2Y14415   3.689   4.996   5.620
  133SOPE   C2314416   3.231   4.853   5.877
  133SOPE   H3R14417   3.163   4.765   5.863
  133SOPE   H3S14418   3.324   4.814   5.924
  133SOPE   C2414419   3.268   4.904   5.737
  133SOPE   H4R14420   3.324   4.999   5.743
  133SOPE   H4S14421   3.338   4.828   5.695
  133SOPE   C2514422   3.151   4.921   5.639
  133SOPE   H5R14423   3.067   4.854   5.665
  133SOPE   H5S14424   3.116   5.025   5.648
  133SOPE   C2614425   3.192   4.896   5.493
  133SOPE   H6R14426   3.110   4.931   5.426
  133SOPE   H6S14427   3.282   4.957   5.471
  133SOPE   C2714428   3.221   4.749   5.461
  133SOPE   H7R14429   3.295   4.709   5.535
  133SOPE   H7S14430   3.128   4.690   5.475
  133SOPE   C2814431   3.278   4.728   5.320
  133SOPE   H8R14432   3.343   4.814   5.295
  133SOPE   H8S14433   3.346   4.639   5.323
  133SOPE   C2914434   3.170   4.707   5.218
  133SOPE   H9114435   3.133   4.603   5.211
  133SOPE  C21014436   3.112   4.800   5.141
  133SOPE  H10114437   3.033   4.769   5.071
  133SOPE  C21114438   3.143   4.948   5.139
  133SOPE  H11R14439   3.228   4.974   5.206
  133SOPE  H11S14440   3.055   5.006   5.175
  133SOPE  C21214441   3.179   4.998   4.997
  133SOPE  H12R14442   3.094   4.978   4.927
  133SOPE  H12S14443   3.268   4.942   4.961
  133SOPE  C21314444   3.209   5.149   4.995
  133SOPE  H13R14445   3.286   5.171   5.074
  133SOPE  H13S14446   3.117   5.205   5.022
  133SOPE  C21414447   3.262   5.201   4.860
  133SOPE  H14R14448   3.269   5.312   4.866
  133SOPE  H14S14449   3.190   5.176   4.779
  133SOPE  C21514450   3.402   5.146   4.826
  133SOPE  H15R14451   3.394   5.038   4.802
  133SOPE  H15S14452   3.465   5.156   4.917
  133SOPE  C21614453   3.472   5.219   4.710
  133SOPE  H16R14454   3.579   5.186   4.710
  133SOPE  H16S14455   3.471   5.329   4.728
  133SOPE  C21714456   3.412   5.187   4.573
  133SOPE  H17R14457   3.311   5.233   4.565
  133SOPE  H17S14458   3.400   5.077   4.564
  133SOPE  C21814459   3.500   5.236   4.456
  133SOPE  H18R14460   3.514   5.346   4.461
  133SOPE  H18S14461   3.453   5.210   4.359
  133SOPE  H18T14462   3.600   5.187   4.461
  133SOPE   C3314463   3.575   5.104   5.468
  133SOPE   H3X14464   3.647   5.187   5.453
  133SOPE   H3Y14465   3.472   5.146   5.455
  133SOPE   C3414466   3.600   4.997   5.361
  133SOPE   H4X14467   3.510   4.934   5.350
  133SOPE   H4Y14468   3.683   4.931   5.396
  133SOPE   C3514469   3.641   5.057   5.225
  133SOPE   H5X14470   3.748   5.085   5.233
  133SOPE   H5Y14471   3.583   5.149   5.205
  133SOPE   C3614472   3.625   4.962   5.105
  133SOPE   H6X14473   3.520   4.968   5.068
  133SOPE   H6Y14474   3.642   4.857   5.137
  133SOPE   C3714475   3.723   5.000   4.992
  133SOPE   H7X14476   3.824   5.016   5.036
  133SOPE   H7Y14477   3.689   5.097   4.948
  133SOPE   C3814478   3.741   4.898   4.878
  133SOPE   H8X14479   3.830   4.835   4.897
  133SOPE   H8Y14480   3.763   4.957   4.786
  133SOPE   C3914481   3.622   4.805   4.852
  133SOPE   H9X14482   3.531   4.865   4.831
  133SOPE   H9Y14483   3.601   4.742   4.942
  133SOPE  C31014484   3.647   4.713   4.733
  133SOPE  H10X14485   3.555   4.652   4.717
  133SOPE  H10Y14486   3.730   4.642   4.754
  133SOPE  C31114487   3.679   4.791   4.605
  133SOPE  H11X14488   3.787   4.817   4.603
  133SOPE  H11Y14489   3.621   4.886   4.603
  133SOPE  C31214490   3.643   4.712   4.480
  133SOPE  H12X14491   3.674   4.607   4.497
  133SOPE  H12Y14492   3.699   4.749   4.392
  133SOPE  C31314493   3.492   4.719   4.453
  133SOPE  H13X14494   3.434   4.737   4.545
  133SOPE  H13Y14495   3.459   4.620   4.413
  133SOPE  C31414496   3.458   4.825   4.349
  133SOPE  H14X14497   3.543   4.836   4.278
  133SOPE  H14Y14498   3.444   4.924   4.398
  133SOPE  C31514499   3.335   4.783   4.269
  133SOPE  H15X14500   3.276   4.872   4.241
  133SOPE  H15Y14501   3.271   4.718   4.334
  133SOPE  C31614502   3.378   4.707   4.143
  133SOPE  H16X14503   3.418   4.607   4.172
  133SOPE  H16Y14504   3.461   4.762   4.093
  133SOPE  C31714505   3.264   4.688   4.044
  133SOPE  H17X14506   3.306   4.643   3.951
  133SOPE  H17Y14507   3.222   4.788   4.019
  133SOPE  C31814508   3.156   4.597   4.100
  133SOPE  H18X14509   3.133   4.618   4.206
  133SOPE  H18Y14510   3.193   4.492   4.092
  133SOPE  H18Z14511   3.062   4.605   4.043
  134SOPE     N14512   4.438   0.341   6.549
  134SOPE   HN114513   4.336   0.342   6.574
  134SOPE   HN214514   4.446   0.260   6.481
  134SOPE   HN314515   4.492   0.320   6.636
  134SOPE   C1214516   4.481   0.477   6.493
  134SOPE  H12A14517   4.525   0.537   6.575
  134SOPE  H12B14518   4.389   0.530   6.463
  134SOPE   C1114519   4.582   0.469   6.375
  134SOPE  H11A14520   4.560   0.380   6.313
  134SOPE  H11B14521   4.684   0.454   6.418
  134SOPE     P14522   4.680   0.708   6.308
  134SOPE   O1314523   4.736   0.704   6.444
  134SOPE   O1414524   4.612   0.828   6.261
  134SOPE   O1214525   4.577   0.586   6.291
  134SOPE   O1114526   4.795   0.680   6.205
  134SOPE    C114527   4.839   0.552   6.164
  134SOPE    HA14528   4.807   0.470   6.231
  134SOPE    HB14529   4.950   0.552   6.167
  134SOPE    C214530   4.791   0.525   6.018
  134SOPE    HS14531   4.824   0.421   5.991
  134SOPE   O2114532   4.842   0.631   5.932
  134SOPE   C2114533   4.970   0.601   5.909
  134SOPE   O2214534   5.017   0.491   5.931
  134SOPE   C2214535   5.059   0.714   5.861
  134SOPE   H2R14536   5.159   0.667   5.847
  134SOPE   H2S14537   5.068   0.788   5.942
  134SOPE    C314538   4.639   0.515   6.001
  134SOPE    HX14539   4.598   0.617   6.021
  134SOPE    HY14540   4.598   0.442   6.075
  134SOPE   O3114541   4.612   0.472   5.867
  134SOPE   C3114542   4.489   0.491   5.828
  134SOPE   O3214543   4.388   0.467   5.893
  134SOPE   C3214544   4.496   0.573   5.699
  134SOPE   H2X14545   4.581   0.536   5.638
  134SOPE   H2Y14546   4.521   0.677   5.732
  134SOPE   C2314547   5.013   0.779   5.729
  134SOPE   H3R14548   5.086   0.859   5.704
  134SOPE   H3S14549   4.914   0.826   5.747
  134SOPE   C2414550   5.005   0.684   5.607
  134SOPE   H4R14551   5.108   0.669   5.567
  134SOPE   H4S14552   4.966   0.585   5.638
  134SOPE   C2514553   4.913   0.743   5.498
  134SOPE   H5R14554   4.808   0.733   5.533
  134SOPE   H5S14555   4.935   0.852   5.490
  134SOPE   C2614556   4.930   0.683   5.357
  134SOPE   H6R14557   4.991   0.753   5.296
  134SOPE   H6S14558   4.987   0.587   5.366
  134SOPE   C2714559   4.799   0.654   5.281
  134SOPE   H7R14560   4.823   0.617   5.179
  134SOPE   H7S14561   4.752   0.569   5.336
  134SOPE   C2814562   4.690   0.765   5.268
  134SOPE   H8R14563   4.608   0.722   5.205
  134SOPE   H8S14564   4.645   0.772   5.370
  134SOPE   C2914565   4.714   0.906   5.218
  134SOPE   H9114566   4.673   0.979   5.290
  134SOPE  C21014567   4.767   0.959   5.104
  134SOPE  H10114568   4.766   1.069   5.094
  134SOPE  C21114569   4.822   0.891   4.981
  134SOPE  H11R14570   4.758   0.803   4.962
  134SOPE  H11S14571   4.920   0.848   5.013
  134SOPE  C21214572   4.853   0.953   4.837
  134SOPE  H12R14573   4.816   0.880   4.762
  134SOPE  H12S14574   4.963   0.939   4.829
  134SOPE  C21314575   4.831   1.099   4.781
  134SOPE  H13R14576   4.869   1.094   4.676
  134SOPE  H13S14577   4.897   1.171   4.834
  134SOPE  C21414578   4.690   1.163   4.768
  134SOPE  H14R14579   4.673   1.242   4.844
  134SOPE  H14S14580   4.620   1.083   4.786
  134SOPE  C21514581   4.628   1.201   4.631
  134SOPE  H15R14582   4.637   1.112   4.566
  134SOPE  H15S14583   4.681   1.284   4.580
  134SOPE  C21614584   4.477   1.234   4.654
  134SOPE  H16R14585   4.470   1.337   4.693
  134SOPE  H16S14586   4.441   1.168   4.736
  134SOPE  C21714587   4.375   1.206   4.540
  134SOPE  H17R14588   4.378   1.101   4.514
  134SOPE  H17S14589   4.396   1.256   4.445
  134SOPE  C21814590   4.228   1.213   4.579
  134SOPE  H18R14591   4.193   1.316   4.595
  134SOPE  H18S14592   4.210   1.156   4.673
  134SOPE  H18T14593   4.165   1.171   4.497
  134SOPE   C3314594   4.366   0.577   5.617
  134SOPE   H3X14595   4.283   0.619   5.678
  134SOPE   H3Y14596   4.336   0.473   5.591
  134SOPE   C3414597   4.385   0.661   5.490
  134SOPE   H4X14598   4.449   0.609   5.417
  134SOPE   H4Y14599   4.450   0.747   5.512
  134SOPE   C3514600   4.254   0.710   5.426
  134SOPE   H5X14601   4.215   0.797   5.482
  134SOPE   H5Y14602   4.179   0.629   5.436
  134SOPE   C3614603   4.264   0.746   5.275
  134SOPE   H6X14604   4.368   0.734   5.239
  134SOPE   H6Y14605   4.239   0.852   5.265
  134SOPE   C3714606   4.159   0.666   5.196
  134SOPE   H7X14607   4.064   0.714   5.232
  134SOPE   H7Y14608   4.158   0.560   5.227
  134SOPE   C3814609   4.145   0.670   5.044
  134SOPE   H8X14610   4.133   0.775   5.010
  134SOPE   H8Y14611   4.049   0.617   5.024
  134SOPE   C3914612   4.242   0.596   4.951
  134SOPE   H9X14613   4.347   0.601   4.983
  134SOPE   H9Y14614   4.230   0.663   4.865
  134SOPE  C31014615   4.199   0.461   4.888
  134SOPE  H10X14616   4.093   0.472   4.855
  134SOPE  H10Y14617   4.198   0.387   4.968
  134SOPE  C31114618   4.276   0.413   4.760
  134SOPE  H11X14619   4.220   0.446   4.671
  134SOPE  H11Y14620   4.274   0.303   4.750
  134SOPE  C31214621   4.419   0.464   4.744
  134SOPE  H12X14622   4.482   0.402   4.812
  134SOPE  H12Y14623   4.429   0.570   4.774
  134SOPE  C31314624   4.485   0.455   4.606
  134SOPE  H13X14625   4.453   0.538   4.540
  134SOPE  H13Y14626   4.459   0.359   4.557
  134SOPE  C31414627   4.635   0.464   4.632
  134SOPE  H14X14628   4.660   0.383   4.700
  134SOPE  H14Y14629   4.662   0.557   4.686
  134SOPE  C31514630   4.725   0.440   4.512
  134SOPE  H15X14631   4.713   0.332   4.487
  134SOPE  H15Y14632   4.829   0.462   4.541
  134SOPE  C31614633   4.696   0.522   4.388
  134SOPE  H16X14634   4.595   0.499   4.350
  134SOPE  H16Y14635   4.768   0.489   4.312
  134SOPE  C31714636   4.704   0.672   4.417
  134SOPE  H17X14637   4.621   0.683   4.490
  134SOPE  H17Y14638   4.677   0.730   4.325
  134SOPE  C31814639   4.829   0.735   4.482
  134SOPE  H18X14640   4.922   0.686   4.449
  134SOPE  H18Y14641   4.822   0.730   4.593
  134SOPE  H18Z14642   4.834   0.843   4.455
  135SOPE     N14643   4.260   0.563   6.113
  135SOPE   HN114644   4.189   0.610   6.053
  135SOPE   HN214645   4.342   0.627   6.123
  135SOPE   HN314646   4.295   0.482   6.055
  135SOPE   C1214647   4.201   0.530   6.250
  135SOPE  H12A14648   4.096   0.563   6.250
  135SOPE  H12B14649   4.256   0.594   6.323
  135SOPE   C1114650   4.208   0.381   6.295
  135SOPE  H11A14651   4.313   0.346   6.286
  135SOPE  H11B14652   4.147   0.318   6.225
  135SOPE     P14653   4.018   0.328   6.480
  135SOPE   O1314654   3.988   0.414   6.597
  135SOPE   O1414655   4.004   0.181   6.498
  135SOPE   O1214656   4.169   0.363   6.433
  135SOPE   O1114657   3.936   0.381   6.355
  135SOPE    C114658   3.834   0.299   6.302
  135SOPE    HA14659   3.736   0.325   6.349
  135SOPE    HB14660   3.851   0.189   6.316
  135SOPE    C214661   3.828   0.323   6.151
  135SOPE    HS14662   3.733   0.277   6.119
  135SOPE   O2114663   3.941   0.268   6.083
  135SOPE   C2114664   3.914   0.150   6.034
  135SOPE   O2214665   3.827   0.076   6.079
  135SOPE   C2214666   3.986   0.133   5.902
  135SOPE   H2R14667   4.049   0.042   5.907
  135SOPE   H2S14668   4.052   0.220   5.882
  135SOPE    C314669   3.821   0.467   6.104
  135SOPE    HX14670   3.914   0.522   6.129
  135SOPE    HY14671   3.737   0.518   6.157
  135SOPE   O3114672   3.793   0.458   5.963
  135SOPE   C3114673   3.893   0.474   5.878
  135SOPE   O3214674   4.007   0.503   5.912
  135SOPE   C3214675   3.844   0.460   5.732
  135SOPE   H2X14676   3.756   0.393   5.729
  135SOPE   H2Y14677   3.926   0.412   5.675
  135SOPE   C2314678   3.877   0.119   5.794
  135SOPE   H3R14679   3.817   0.211   5.787
  135SOPE   H3S14680   3.804   0.042   5.827
  135SOPE   C2414681   3.927   0.079   5.655
  135SOPE   H4R14682   3.960  -0.026   5.662
  135SOPE   H4S14683   3.843   0.081   5.582
  135SOPE   C2514684   4.051   0.154   5.604
  135SOPE   H5R14685   4.030   0.261   5.586
  135SOPE   H5S14686   4.130   0.145   5.682
  135SOPE   C2614687   4.105   0.088   5.477
  135SOPE   H6R14688   4.215   0.087   5.478
  135SOPE   H6S14689   4.074  -0.020   5.481
  135SOPE   C2714690   4.054   0.153   5.346
  135SOPE   H7R14691   4.078   0.086   5.261
  135SOPE   H7S14692   3.942   0.157   5.353
  135SOPE   C2814693   4.107   0.297   5.311
  135SOPE   H8R14694   4.105   0.310   5.200
  135SOPE   H8S14695   4.027   0.362   5.352
  135SOPE   C2914696   4.239   0.345   5.369
  135SOPE   H9114697   4.239   0.325   5.478
  135SOPE  C21014698   4.353   0.402   5.320
  135SOPE  H10114699   4.431   0.413   5.397
  135SOPE  C21114700   4.413   0.444   5.185
  135SOPE  H11R14701   4.400   0.553   5.170
  135SOPE  H11S14702   4.362   0.396   5.101
  135SOPE  C21214703   4.569   0.426   5.174
  135SOPE  H12R14704   4.599   0.332   5.225
  135SOPE  H12S14705   4.610   0.506   5.235
  135SOPE  C21314706   4.636   0.421   5.031
  135SOPE  H13R14707   4.738   0.465   5.037
  135SOPE  H13S14708   4.577   0.486   4.964
  135SOPE  C21414709   4.641   0.271   4.987
  135SOPE  H14R14710   4.534   0.259   4.974
  135SOPE  H14S14711   4.684   0.216   5.074
  135SOPE  C21514712   4.682   0.194   4.857
  135SOPE  H15R14713   4.744   0.106   4.891
  135SOPE  H15S14714   4.746   0.255   4.792
  135SOPE  C21614715   4.566   0.120   4.778
  135SOPE  H16R14716   4.474   0.180   4.771
  135SOPE  H16S14717   4.536   0.027   4.834
  135SOPE  C21714718   4.603   0.071   4.636
  135SOPE  H17R14719   4.646  -0.031   4.648
  135SOPE  H17S14720   4.683   0.135   4.592
  135SOPE  C21814721   4.486   0.061   4.536
  135SOPE  H18R14722   4.525   0.053   4.431
  135SOPE  H18S14723   4.418   0.148   4.541
  135SOPE  H18T14724   4.426  -0.030   4.557
  135SOPE   C3314725   3.804   0.592   5.662
  135SOPE   H3X14726   3.835   0.678   5.725
  135SOPE   H3Y14727   3.693   0.596   5.652
  135SOPE   C3414728   3.862   0.611   5.520
  135SOPE   H4X14729   3.970   0.585   5.521
  135SOPE   H4Y14730   3.854   0.720   5.498
  135SOPE   C3514731   3.791   0.539   5.403
  135SOPE   H5X14732   3.684   0.566   5.405
  135SOPE   H5Y14733   3.797   0.429   5.418
  135SOPE   C3614734   3.858   0.580   5.269
  135SOPE   H6X14735   3.960   0.541   5.283
  135SOPE   H6Y14736   3.866   0.690   5.265
  135SOPE   C3714737   3.812   0.525   5.131
  135SOPE   H7X14738   3.736   0.445   5.148
  135SOPE   H7Y14739   3.901   0.474   5.087
  135SOPE   C3814740   3.761   0.620   5.017
  135SOPE   H8X14741   3.659   0.655   5.039
  135SOPE   H8Y14742   3.749   0.556   4.927
  135SOPE   C3914743   3.838   0.745   4.971
  135SOPE   H9X14744   3.912   0.778   5.047
  135SOPE   H9Y14745   3.765   0.828   4.964
  135SOPE  C31014746   3.899   0.728   4.830
  135SOPE  H10X14747   3.817   0.703   4.759
  135SOPE  H10Y14748   3.966   0.640   4.834
  135SOPE  C31114749   3.975   0.851   4.774
  135SOPE  H11X14750   4.003   0.916   4.859
  135SOPE  H11Y14751   3.903   0.909   4.712
  135SOPE  C31214752   4.104   0.826   4.691
  135SOPE  H12X14753   4.191   0.844   4.757
  135SOPE  H12Y14754   4.110   0.902   4.610
  135SOPE  C31314755   4.123   0.688   4.628
  135SOPE  H13X14756   4.029   0.629   4.636
  135SOPE  H13Y14757   4.201   0.637   4.685
  135SOPE  C31414758   4.180   0.678   4.486
  135SOPE  H14X14759   4.291   0.666   4.487
  135SOPE  H14Y14760   4.157   0.769   4.428
  135SOPE  C31514761   4.120   0.551   4.428
  135SOPE  H15X14762   4.012   0.554   4.455
  135SOPE  H15Y14763   4.162   0.462   4.480
  135SOPE  C31614764   4.135   0.532   4.278
  135SOPE  H16X14765   4.169   0.426   4.266
  135SOPE  H16Y14766   4.215   0.592   4.232
  135SOPE  C31714767   3.996   0.549   4.212
  135SOPE  H17X14768   3.916   0.538   4.288
  135SOPE  H17Y14769   3.983   0.462   4.146
  135SOPE  C31814770   3.964   0.675   4.131
  135SOPE  H18X14771   3.920   0.758   4.187
  135SOPE  H18Y14772   3.886   0.647   4.058
  135SOPE  H18Z14773   4.052   0.718   4.079
  136SOPE     N14774   1.086   0.901   6.510
  136SOPE   HN114775   1.007   0.966   6.491
  136SOPE   HN214776   1.091   0.821   6.444
  136SOPE   HN314777   1.073   0.858   6.604
  136SOPE   C1214778   1.218   0.974   6.505
  136SOPE  H12A14779   1.298   0.898   6.519
  136SOPE  H12B14780   1.222   1.045   6.589
  136SOPE   C1114781   1.235   1.043   6.369
  136SOPE  H11A14782   1.174   1.136   6.370
  136SOPE  H11B14783   1.197   0.978   6.287
  136SOPE     P14784   1.466   0.973   6.273
  136SOPE   O1314785   1.449   0.840   6.335
  136SOPE   O1414786   1.605   1.026   6.261
  136SOPE   O1214787   1.373   1.077   6.350
  136SOPE   O1114788   1.396   0.970   6.132
  136SOPE    C114789   1.414   1.073   6.035
  136SOPE    HA14790   1.438   1.025   5.938
  136SOPE    HB14791   1.499   1.142   6.058
  136SOPE    C214792   1.287   1.160   6.013
  136SOPE    HS14793   1.260   1.206   6.111
  136SOPE   O2114794   1.180   1.075   5.969
  136SOPE   C2114795   1.061   1.129   5.955
  136SOPE   O2214796   1.025   1.236   6.000
  136SOPE   C2214797   0.973   1.026   5.886
  136SOPE   H2R14798   0.905   0.980   5.960
  136SOPE   H2S14799   1.040   0.947   5.847
  136SOPE    C314800   1.318   1.274   5.910
  136SOPE    HX14801   1.378   1.349   5.967
  136SOPE    HY14802   1.225   1.327   5.879
  136SOPE   O3114803   1.398   1.231   5.797
  136SOPE   C3114804   1.331   1.180   5.694
  136SOPE   O3214805   1.211   1.164   5.690
  136SOPE   C3214806   1.423   1.158   5.574
  136SOPE   H2X14807   1.529   1.153   5.606
  136SOPE   H2Y14808   1.410   1.248   5.510
  136SOPE   C2314809   0.892   1.087   5.770
  136SOPE   H3R14810   0.961   1.141   5.700
  136SOPE   H3S14811   0.820   1.163   5.809
  136SOPE   C2414812   0.817   0.979   5.692
  136SOPE   H4R14813   0.750   0.924   5.761
  136SOPE   H4S14814   0.754   1.026   5.613
  136SOPE   C2514815   0.911   0.878   5.623
  136SOPE   H5R14816   0.982   0.832   5.695
  136SOPE   H5S14817   0.849   0.795   5.584
  136SOPE   C2614818   0.990   0.942   5.509
  136SOPE   H6R14819   0.981   1.052   5.508
  136SOPE   H6S14820   1.098   0.918   5.522
  136SOPE   C2714821   0.943   0.885   5.376
  136SOPE   H7R14822   0.948   0.774   5.385
  136SOPE   H7S14823   0.838   0.915   5.357
  136SOPE   C2814824   1.033   0.920   5.258
  136SOPE   H8R14825   1.137   0.902   5.289
  136SOPE   H8S14826   1.009   0.847   5.177
  136SOPE   C2914827   1.017   1.062   5.212
  136SOPE   H9114828   0.986   1.136   5.286
  136SOPE  C21014829   1.039   1.099   5.085
  136SOPE  H10114830   1.027   1.204   5.055
  136SOPE  C21114831   1.080   1.005   4.976
  136SOPE  H11R14832   1.120   0.908   5.014
  136SOPE  H11S14833   1.162   1.053   4.920
  136SOPE  C21214834   0.963   0.971   4.883
  136SOPE  H12R14835   0.883   0.923   4.945
  136SOPE  H12S14836   0.996   0.895   4.809
  136SOPE  C21314837   0.908   1.096   4.812
  136SOPE  H13R14838   0.979   1.180   4.830
  136SOPE  H13S14839   0.810   1.124   4.856
  136SOPE  C21414840   0.897   1.083   4.660
  136SOPE  H14R14841   0.832   0.997   4.631
  136SOPE  H14S14842   1.000   1.064   4.625
  136SOPE  C21514843   0.854   1.212   4.592
  136SOPE  H15R14844   0.931   1.289   4.620
  136SOPE  H15S14845   0.756   1.246   4.632
  136SOPE  C21614846   0.849   1.206   4.438
  136SOPE  H16R14847   0.943   1.158   4.401
  136SOPE  H16S14848   0.846   1.311   4.402
  136SOPE  C21714849   0.727   1.133   4.379
  136SOPE  H17R14850   0.636   1.180   4.421
  136SOPE  H17S14851   0.729   1.027   4.411
  136SOPE  C21814852   0.718   1.139   4.226
  136SOPE  H18R14853   0.624   1.092   4.191
  136SOPE  H18S14854   0.804   1.086   4.180
  136SOPE  H18T14855   0.719   1.245   4.191
  136SOPE   C3314856   1.384   1.037   5.486
  136SOPE   H3X14857   1.425   1.056   5.383
  136SOPE   H3Y14858   1.274   1.029   5.472
  136SOPE   C3414859   1.443   0.902   5.530
  136SOPE   H4X14860   1.551   0.912   5.553
  136SOPE   H4Y14861   1.434   0.839   5.439
  136SOPE   C3514862   1.372   0.834   5.648
  136SOPE   H5X14863   1.263   0.857   5.643
  136SOPE   H5Y14864   1.409   0.876   5.744
  136SOPE   C3614865   1.389   0.681   5.651
  136SOPE   H6X14866   1.317   0.638   5.724
  136SOPE   H6Y14867   1.491   0.656   5.688
  136SOPE   C3714868   1.372   0.611   5.515
  136SOPE   H7X14869   1.378   0.503   5.538
  136SOPE   H7Y14870   1.460   0.633   5.451
  136SOPE   C3814871   1.242   0.643   5.439
  136SOPE   H8X14872   1.213   0.749   5.453
  136SOPE   H8Y14873   1.160   0.580   5.482
  136SOPE   C3914874   1.249   0.620   5.287
  136SOPE   H9X14875   1.146   0.627   5.244
  136SOPE   H9Y14876   1.288   0.520   5.261
  136SOPE  C31014877   1.342   0.713   5.209
  136SOPE  H10X14878   1.446   0.709   5.248
  136SOPE  H10Y14879   1.306   0.818   5.221
  136SOPE  C31114880   1.343   0.676   5.061
  136SOPE  H11X14881   1.241   0.640   5.032
  136SOPE  H11Y14882   1.414   0.593   5.040
  136SOPE  C31214883   1.379   0.797   4.977
  136SOPE  H12X14884   1.488   0.818   4.986
  136SOPE  H12Y14885   1.325   0.885   5.017
  136SOPE  C31314886   1.339   0.778   4.831
  136SOPE  H13X14887   1.238   0.732   4.825
  136SOPE  H13Y14888   1.411   0.708   4.782
  136SOPE  C31414889   1.337   0.913   4.758
  136SOPE  H14X14890   1.414   0.979   4.803
  136SOPE  H14Y14891   1.238   0.961   4.772
  136SOPE  C31514892   1.359   0.898   4.609
  136SOPE  H15X14893   1.458   0.850   4.596
  136SOPE  H15Y14894   1.362   0.998   4.558
  136SOPE  C31614895   1.252   0.813   4.540
  136SOPE  H16X14896   1.228   0.720   4.598
  136SOPE  H16Y14897   1.293   0.783   4.442
  136SOPE  C31714898   1.124   0.890   4.511
  136SOPE  H17X14899   1.153   0.997   4.498
  136SOPE  H17Y14900   1.056   0.881   4.598
  136SOPE  C31814901   1.050   0.847   4.384
  136SOPE  H18X14902   0.949   0.894   4.382
  136SOPE  H18Y14903   1.037   0.737   4.377
  136SOPE  H18Z14904   1.108   0.881   4.295
  137SOPE     N14905  -0.012   3.512   6.518
  137SOPE   HN114906  -0.092   3.496   6.582
  137SOPE   HN214907  -0.033   3.472   6.425
  137SOPE   HN314908   0.073   3.467   6.558
  137SOPE   C1214909   0.012   3.659   6.504
  137SOPE  H12A14910   0.086   3.673   6.422
  137SOPE  H12B14911   0.055   3.697   6.598
  137SOPE   C1114912  -0.116   3.739   6.476
  137SOPE  H11A14913  -0.106   3.840   6.523
  137SOPE  H11B14914  -0.203   3.691   6.526
  137SOPE     P14915  -0.078   3.867   6.249
  137SOPE   O1314916   0.020   3.942   6.333
  137SOPE   O1414917  -0.194   3.939   6.192
  137SOPE   O1214918  -0.137   3.746   6.336
  137SOPE   O1114919  -0.000   3.790   6.134
  137SOPE    C114920  -0.008   3.647   6.115
  137SOPE    HA14921  -0.107   3.606   6.144
  137SOPE    HB14922   0.069   3.600   6.180
  137SOPE    C214923   0.024   3.594   5.970
  137SOPE    HS14924   0.043   3.485   5.978
  137SOPE   O2114925   0.144   3.661   5.924
  137SOPE   C2114926   0.205   3.607   5.819
  137SOPE   O2214927   0.162   3.515   5.752
  137SOPE   C2214928   0.343   3.672   5.807
  137SOPE   H2R14929   0.391   3.662   5.907
  137SOPE   H2S14930   0.328   3.779   5.786
  137SOPE    C314931  -0.096   3.612   5.870
  137SOPE    HX14932  -0.182   3.556   5.913
  137SOPE    HY14933  -0.072   3.563   5.773
  137SOPE   O3114934  -0.136   3.748   5.854
  137SOPE   C3114935  -0.132   3.803   5.735
  137SOPE   O3214936  -0.113   3.747   5.629
  137SOPE   C3214937  -0.147   3.953   5.753
  137SOPE   H2X14938  -0.165   3.978   5.859
  137SOPE   H2Y14939  -0.235   3.985   5.693
  137SOPE   C2314940   0.434   3.606   5.700
  137SOPE   H3R14941   0.454   3.501   5.726
  137SOPE   H3S14942   0.533   3.659   5.699
  137SOPE   C2414943   0.375   3.617   5.559
  137SOPE   H4R14944   0.275   3.568   5.552
  137SOPE   H4S14945   0.358   3.726   5.541
  137SOPE   C2514946   0.461   3.564   5.443
  137SOPE   H5R14947   0.568   3.586   5.462
  137SOPE   H5S14948   0.450   3.454   5.435
  137SOPE   C2614949   0.415   3.635   5.316
  137SOPE   H6R14950   0.310   3.667   5.334
  137SOPE   H6S14951   0.478   3.727   5.304
  137SOPE   C2714952   0.411   3.559   5.182
  137SOPE   H7R14953   0.436   3.628   5.099
  137SOPE   H7S14954   0.491   3.482   5.185
  137SOPE   C2814955   0.272   3.497   5.150
  137SOPE   H8R14956   0.293   3.416   5.078
  137SOPE   H8S14957   0.236   3.453   5.244
  137SOPE   C2914958   0.156   3.580   5.104
  137SOPE   H9114959   0.123   3.654   5.179
  137SOPE  C21014960   0.079   3.564   4.994
  137SOPE  H10114961  -0.004   3.634   4.977
  137SOPE  C21114962   0.095   3.456   4.890
  137SOPE  H11R14963  -0.005   3.421   4.857
  137SOPE  H11S14964   0.145   3.367   4.935
  137SOPE  C21214965   0.179   3.489   4.767
  137SOPE  H12R14966   0.203   3.391   4.719
  137SOPE  H12S14967   0.275   3.537   4.795
  137SOPE  C21314968   0.109   3.571   4.659
  137SOPE  H13R14969   0.102   3.678   4.689
  137SOPE  H13S14970   0.006   3.533   4.643
  137SOPE  C21414971   0.184   3.559   4.526
  137SOPE  H14R14972   0.111   3.603   4.455
  137SOPE  H14S14973   0.198   3.452   4.500
  137SOPE  C21514974   0.317   3.638   4.524
  137SOPE  H15R14975   0.393   3.610   4.597
  137SOPE  H15S14976   0.286   3.733   4.568
  137SOPE  C21614977   0.384   3.666   4.388
  137SOPE  H16R14978   0.474   3.603   4.372
  137SOPE  H16S14979   0.421   3.770   4.379
  137SOPE  C21714980   0.296   3.632   4.272
  137SOPE  H17R14981   0.328   3.691   4.184
  137SOPE  H17S14982   0.187   3.652   4.284
  137SOPE  C21814983   0.323   3.488   4.243
  137SOPE  H18R14984   0.278   3.479   4.147
  137SOPE  H18S14985   0.279   3.417   4.316
  137SOPE  H18T14986   0.430   3.465   4.227
  137SOPE   C3314987  -0.015   4.013   5.701
  137SOPE   H3X14988  -0.017   4.121   5.680
  137SOPE   H3Y14989   0.009   3.967   5.603
  137SOPE   C3414990   0.097   4.002   5.804
  137SOPE   H4X14991   0.106   3.896   5.838
  137SOPE   H4Y14992   0.071   4.062   5.894
  137SOPE   C3514993   0.230   4.049   5.744
  137SOPE   H5X14994   0.309   4.036   5.821
  137SOPE   H5Y14995   0.224   4.158   5.719
  137SOPE   C3614996   0.266   3.968   5.619
  137SOPE   H6X14997   0.206   3.874   5.621
  137SOPE   H6Y14998   0.373   3.938   5.625
  137SOPE   C3714999   0.241   4.035   5.483
  137SOPE   H7X15000   0.317   4.114   5.469
  137SOPE   H7Y15001   0.141   4.084   5.479
  137SOPE   C3815002   0.252   3.929   5.373
  137SOPE   H8X15003   0.171   3.853   5.388
  137SOPE   H8Y15004   0.350   3.880   5.386
  137SOPE   C3915005   0.245   3.982   5.229
  137SOPE   H9X15006   0.328   4.054   5.217
  137SOPE   H9Y15007   0.146   4.032   5.217
  137SOPE  C31015008   0.255   3.874   5.121
  137SOPE  H10X15009   0.153   3.842   5.091
  137SOPE  H10Y15010   0.305   3.789   5.168
  137SOPE  C31115011   0.340   3.903   4.996
  137SOPE  H11X15012   0.398   3.811   4.968
  137SOPE  H11Y15013   0.414   3.982   5.018
  137SOPE  C31215014   0.253   3.936   4.875
  137SOPE  H12X15015   0.160   3.988   4.909
  137SOPE  H12Y15016   0.218   3.841   4.829
  137SOPE  C31315017   0.324   4.025   4.773
  137SOPE  H13X15018   0.427   4.051   4.802
  137SOPE  H13Y15019   0.267   4.120   4.770
  137SOPE  C31415020   0.319   3.967   4.633
  137SOPE  H14X15021   0.225   3.909   4.629
  137SOPE  H14Y15022   0.403   3.897   4.619
  137SOPE  C31515023   0.309   4.078   4.528
  137SOPE  H15X15024   0.398   4.144   4.529
  137SOPE  H15Y15025   0.224   4.137   4.568
  137SOPE  C31615026   0.267   4.039   4.386
  137SOPE  H16X15027   0.359   4.016   4.326
  137SOPE  H16Y15028   0.218   4.125   4.337
  137SOPE  C31715029   0.176   3.915   4.377
  137SOPE  H17X15030   0.229   3.841   4.431
  137SOPE  H17Y15031   0.183   3.873   4.276
  137SOPE  C31815032   0.033   3.910   4.433
  137SOPE  H18X15033  -0.010   3.808   4.422
  137SOPE  H18Y15034  -0.034   3.981   4.381
  137SOPE  H18Z15035   0.032   3.934   4.542
  138SOPE     N15036   0.131  -0.083   6.471
  138SOPE   HN115037   0.210  -0.135   6.429
  138SOPE   HN215038   0.152  -0.066   6.572
  138SOPE   HN315039   0.045  -0.144   6.469
  138SOPE   C1215040   0.111   0.050   6.403
  138SOPE  H12A15041   0.053   0.117   6.468
  138SOPE  H12B15042   0.059   0.036   6.306
  138SOPE   C1115043   0.248   0.111   6.383
  138SOPE  H11A15044   0.284   0.061   6.289
  138SOPE  H11B15045   0.314   0.084   6.469
  138SOPE     P15046   0.391   0.318   6.340
  138SOPE   O1315047   0.449   0.365   6.468
  138SOPE   O1415048   0.391   0.410   6.224
  138SOPE   O1215049   0.245   0.255   6.372
  138SOPE   O1115050   0.460   0.183   6.299
  138SOPE    C115051   0.596   0.157   6.283
  138SOPE    HA15052   0.611   0.046   6.289
  138SOPE    HB15053   0.656   0.204   6.363
  138SOPE    C215054   0.637   0.204   6.144
  138SOPE    HS15055   0.621   0.315   6.142
  138SOPE   O2115056   0.558   0.135   6.043
  138SOPE   C2115057   0.521   0.209   5.939
  138SOPE   O2215058   0.551   0.326   5.920
  138SOPE   C2215059   0.451   0.122   5.834
  138SOPE   H2R15060   0.342   0.124   5.857
  138SOPE   H2S15061   0.487   0.018   5.841
  138SOPE    C315062   0.789   0.177   6.131
  138SOPE    HX15063   0.806   0.068   6.152
  138SOPE    HY15064   0.844   0.235   6.209
  138SOPE   O3115065   0.835   0.206   6.000
  138SOPE   C3115066   0.838   0.333   5.962
  138SOPE   O3215067   0.837   0.431   6.035
  138SOPE   C3215068   0.864   0.328   5.813
  138SOPE   H2X15069   0.819   0.234   5.774
  138SOPE   H2Y15070   0.974   0.324   5.802
  138SOPE   C2315071   0.474   0.179   5.691
  138SOPE   H3R15072   0.582   0.172   5.664
  138SOPE   H3S15073   0.446   0.287   5.693
  138SOPE   C2415074   0.389   0.113   5.582
  138SOPE   H4R15075   0.428   0.012   5.558
  138SOPE   H4S15076   0.285   0.101   5.620
  138SOPE   C2515077   0.383   0.199   5.455
  138SOPE   H5R15078   0.348   0.301   5.482
  138SOPE   H5S15079   0.484   0.209   5.410
  138SOPE   C2615080   0.286   0.142   5.351
  138SOPE   H6R15081   0.322   0.043   5.316
  138SOPE   H6S15082   0.188   0.123   5.400
  138SOPE   C2715083   0.260   0.237   5.232
  138SOPE   H7R15084   0.171   0.202   5.177
  138SOPE   H7S15085   0.236   0.339   5.272
  138SOPE   C2815086   0.377   0.249   5.133
  138SOPE   H8R15087   0.343   0.311   5.048
  138SOPE   H8S15088   0.459   0.305   5.182
  138SOPE   C2915089   0.418   0.114   5.082
  138SOPE   H9115090   0.339   0.053   5.037
  138SOPE  C21015091   0.543   0.066   5.087
  138SOPE  H10115092   0.564  -0.033   5.045
  138SOPE  C21115093   0.662   0.141   5.144
  138SOPE  H11R15094   0.739   0.071   5.183
  138SOPE  H11S15095   0.634   0.205   5.229
  138SOPE  C21215096   0.725   0.226   5.032
  138SOPE  H12R15097   0.803   0.289   5.078
  138SOPE  H12S15098   0.647   0.292   4.989
  138SOPE  C21315099   0.788   0.139   4.925
  138SOPE  H13R15100   0.706   0.086   4.871
  138SOPE  H13S15101   0.850   0.069   4.986
  138SOPE  C21415102   0.890   0.190   4.823
  138SOPE  H14R15103   0.988   0.160   4.864
  138SOPE  H14S15104   0.888   0.300   4.812
  138SOPE  C21515105   0.877   0.115   4.688
  138SOPE  H15R15106   0.804   0.168   4.623
  138SOPE  H15S15107   0.837   0.014   4.709
  138SOPE  C21615108   1.011   0.087   4.620
  138SOPE  H16R15109   1.073   0.179   4.631
  138SOPE  H16S15110   1.001   0.065   4.511
  138SOPE  C21715111   1.084  -0.029   4.688
  138SOPE  H17R15112   1.051  -0.128   4.648
  138SOPE  H17S15113   1.055  -0.031   4.796
  138SOPE  C21815114   1.235  -0.013   4.680
  138SOPE  H18R15115   1.280  -0.027   4.781
  138SOPE  H18S15116   1.265   0.088   4.651
  138SOPE  H18T15117   1.280  -0.087   4.610
  138SOPE   C3315118   0.820   0.441   5.719
  138SOPE   H3X15119   0.866   0.537   5.747
  138SOPE   H3Y15120   0.709   0.452   5.720
  138SOPE   C3415121   0.870   0.394   5.582
  138SOPE   H4X15122   0.812   0.304   5.551
  138SOPE   H4Y15123   0.977   0.364   5.593
  138SOPE   C3515124   0.864   0.495   5.470
  138SOPE   H5X15125   0.924   0.457   5.384
  138SOPE   H5Y15126   0.911   0.590   5.504
  138SOPE   C3615127   0.721   0.517   5.424
  138SOPE   H6X15128   0.657   0.532   5.514
  138SOPE   H6Y15129   0.682   0.427   5.372
  138SOPE   C3715130   0.710   0.640   5.335
  138SOPE   H7X15131   0.738   0.728   5.396
  138SOPE   H7Y15132   0.604   0.653   5.304
  138SOPE   C3815133   0.796   0.633   5.209
  138SOPE   H8X15134   0.897   0.592   5.227
  138SOPE   H8Y15135   0.811   0.736   5.169
  138SOPE   C3915136   0.723   0.549   5.105
  138SOPE   H9X15137   0.620   0.588   5.095
  138SOPE   H9Y15138   0.707   0.448   5.148
  138SOPE  C31015139   0.791   0.549   4.968
  138SOPE  H10X15140   0.865   0.467   4.961
  138SOPE  H10Y15141   0.845   0.645   4.954
  138SOPE  C31115142   0.683   0.538   4.860
  138SOPE  H11X15143   0.616   0.623   4.882
  138SOPE  H11Y15144   0.620   0.450   4.880
  138SOPE  C31215145   0.728   0.538   4.713
  138SOPE  H12X15146   0.824   0.483   4.701
  138SOPE  H12Y15147   0.748   0.643   4.682
  138SOPE  C31315148   0.621   0.480   4.618
  138SOPE  H13X15149   0.663   0.470   4.515
  138SOPE  H13Y15150   0.536   0.551   4.610
  138SOPE  C31415151   0.558   0.346   4.662
  138SOPE  H14X15152   0.476   0.370   4.734
  138SOPE  H14Y15153   0.632   0.284   4.716
  138SOPE  C31515154   0.496   0.267   4.546
  138SOPE  H15X15155   0.433   0.337   4.486
  138SOPE  H15Y15156   0.428   0.188   4.587
  138SOPE  C31615157   0.601   0.199   4.457
  138SOPE  H16X15158   0.620   0.096   4.497
  138SOPE  H16Y15159   0.696   0.256   4.462
  138SOPE  C31715160   0.560   0.190   4.310
  138SOPE  H17X15161   0.637   0.131   4.255
  138SOPE  H17Y15162   0.561   0.292   4.266
  138SOPE  C31815163   0.423   0.128   4.288
  138SOPE  H18X15164   0.345   0.193   4.333
  138SOPE  H18Y15165   0.415   0.027   4.335
  138SOPE  H18Z15166   0.402   0.117   4.179
  139SOPE     N15167   2.270   5.605   2.112
  139SOPE   HN115168   2.216   5.525   2.150
  139SOPE   HN215169   2.323   5.577   2.027
  139SOPE   HN315170   2.338   5.641   2.183
  139SOPE   C1215171   2.169   5.711   2.075
  139SOPE  H12A15172   2.113   5.673   1.987
  139SOPE  H12B15173   2.226   5.802   2.047
  139SOPE   C1115174   2.071   5.738   2.190
  139SOPE  H11A15175   1.996   5.815   2.158
  139SOPE  H11B15176   2.126   5.783   2.276
  139SOPE     P15177   1.872   5.561   2.171
  139SOPE   O1315178   1.856   5.420   2.210
  139SOPE   O1415179   1.874   5.580   2.024
  139SOPE   O1215180   2.008   5.617   2.233
  139SOPE   O1115181   1.760   5.652   2.233
  139SOPE    C115182   1.667   5.595   2.325
  139SOPE    HA15183   1.643   5.489   2.302
  139SOPE    HB15184   1.572   5.650   2.315
  139SOPE    C215185   1.712   5.608   2.474
  139SOPE    HS15186   1.686   5.713   2.502
  139SOPE   O2115187   1.852   5.581   2.489
  139SOPE   C2115188   1.919   5.663   2.568
  139SOPE   O2215189   1.875   5.764   2.621
  139SOPE   C2215190   2.059   5.604   2.593
  139SOPE   H2R15191   2.135   5.678   2.560
  139SOPE   H2S15192   2.070   5.515   2.528
  139SOPE    C315193   1.633   5.508   2.562
  139SOPE    HX15194   1.676   5.407   2.540
  139SOPE    HY15195   1.526   5.505   2.530
  139SOPE   O3115196   1.645   5.533   2.704
  139SOPE   C3115197   1.573   5.639   2.743
  139SOPE   O3215198   1.496   5.700   2.671
  139SOPE   C3215199   1.606   5.675   2.887
  139SOPE   H2X15200   1.714   5.703   2.889
  139SOPE   H2Y15201   1.591   5.586   2.951
  139SOPE   C2315202   2.083   5.564   2.741
  139SOPE   H3R15203   2.127   5.649   2.795
  139SOPE   H3S15204   2.159   5.483   2.746
  139SOPE   C2415205   1.957   5.523   2.817
  139SOPE   H4R15206   1.882   5.605   2.813
  139SOPE   H4S15207   1.911   5.435   2.767
  139SOPE   C2515208   1.982   5.496   2.965
  139SOPE   H5R15209   2.057   5.415   2.975
  139SOPE   H5S15210   2.027   5.586   3.013
  139SOPE   C2615211   1.852   5.459   3.038
  139SOPE   H6R15212   1.794   5.552   3.054
  139SOPE   H6S15213   1.791   5.393   2.972
  139SOPE   C2715214   1.872   5.387   3.172
  139SOPE   H7R15215   1.774   5.385   3.224
  139SOPE   H7S15216   1.902   5.281   3.156
  139SOPE   C2815217   1.977   5.450   3.264
  139SOPE   H8R15218   1.994   5.383   3.351
  139SOPE   H8S15219   2.074   5.460   3.211
  139SOPE   C2915220   1.926   5.583   3.308
  139SOPE   H9115221   1.971   5.668   3.256
  139SOPE  C21015222   1.831   5.605   3.400
  139SOPE  H10115223   1.806   5.709   3.427
  139SOPE  C21115224   1.754   5.501   3.478
  139SOPE  H11R15225   1.766   5.399   3.436
  139SOPE  H11S15226   1.646   5.526   3.470
  139SOPE  C21215227   1.797   5.496   3.626
  139SOPE  H12R15228   1.810   5.600   3.664
  139SOPE  H12S15229   1.896   5.445   3.633
  139SOPE  C21315230   1.696   5.426   3.720
  139SOPE  H13R15231   1.731   5.442   3.824
  139SOPE  H13S15232   1.695   5.317   3.701
  139SOPE  C21415233   1.553   5.482   3.707
  139SOPE  H14R15234   1.508   5.442   3.614
  139SOPE  H14S15235   1.561   5.593   3.697
  139SOPE  C21515236   1.461   5.453   3.826
  139SOPE  H15R15237   1.388   5.536   3.837
  139SOPE  H15S15238   1.523   5.451   3.919
  139SOPE  C21615239   1.381   5.324   3.812
  139SOPE  H16R15240   1.451   5.240   3.794
  139SOPE  H16S15241   1.314   5.328   3.724
  139SOPE  C21715242   1.297   5.293   3.936
  139SOPE  H17R15243   1.239   5.200   3.917
  139SOPE  H17S15244   1.224   5.376   3.950
  139SOPE  C21815245   1.379   5.277   4.064
  139SOPE  H18R15246   1.387   5.373   4.118
  139SOPE  H18S15247   1.482   5.243   4.041
  139SOPE  H18T15248   1.332   5.203   4.132
  139SOPE   C3315249   1.529   5.798   2.941
  139SOPE   H3X15250   1.506   5.866   2.855
  139SOPE   H3Y15251   1.597   5.853   3.009
  139SOPE   C3415252   1.398   5.772   3.017
  139SOPE   H4X15253   1.323   5.733   2.944
  139SOPE   H4Y15254   1.358   5.869   3.054
  139SOPE   C3515255   1.407   5.674   3.135
  139SOPE   H5X15256   1.434   5.574   3.094
  139SOPE   H5Y15257   1.304   5.663   3.176
  139SOPE   C3615258   1.505   5.711   3.248
  139SOPE   H6X15259   1.605   5.736   3.207
  139SOPE   H6Y15260   1.516   5.620   3.311
  139SOPE   C3715261   1.454   5.823   3.340
  139SOPE   H7X15262   1.344   5.815   3.346
  139SOPE   H7Y15263   1.471   5.922   3.294
  139SOPE   C3815264   1.517   5.821   3.481
  139SOPE   H8X15265   1.628   5.822   3.472
  139SOPE   H8Y15266   1.491   5.727   3.532
  139SOPE   C3915267   1.473   5.938   3.571
  139SOPE   H9X15268   1.362   5.950   3.569
  139SOPE   H9Y15269   1.509   6.031   3.525
  139SOPE  C31015270   1.520   5.926   3.717
  139SOPE  H10X15271   1.535   6.028   3.759
  139SOPE  H10Y15272   1.617   5.873   3.722
  139SOPE  C31115273   1.411   5.856   3.799
  139SOPE  H11X15274   1.395   5.755   3.755
  139SOPE  H11Y15275   1.319   5.916   3.786
  139SOPE  C31215276   1.430   5.842   3.951
  139SOPE  H12X15277   1.341   5.787   3.989
  139SOPE  H12Y15278   1.430   5.943   3.997
  139SOPE  C31315279   1.555   5.766   3.996
  139SOPE  H13X15280   1.644   5.825   3.967
  139SOPE  H13Y15281   1.563   5.668   3.944
  139SOPE  C31415282   1.556   5.742   4.148
  139SOPE  H14X15283   1.502   5.826   4.199
  139SOPE  H14Y15284   1.662   5.745   4.182
  139SOPE  C31515285   1.496   5.607   4.191
  139SOPE  H15X15286   1.559   5.528   4.142
  139SOPE  H15Y15287   1.392   5.596   4.154
  139SOPE  C31615288   1.500   5.583   4.343
  139SOPE  H16X15289   1.407   5.616   4.394
  139SOPE  H16Y15290   1.581   5.650   4.381
  139SOPE  C31715291   1.543   5.441   4.386
  139SOPE  H17X15292   1.609   5.458   4.474
  139SOPE  H17Y15293   1.605   5.397   4.305
  139SOPE  C31815294   1.441   5.334   4.429
  139SOPE  H18X15295   1.490   5.259   4.495
  139SOPE  H18Y15296   1.401   5.276   4.343
  139SOPE  H18Z15297   1.358   5.380   4.486
  140SOPE     N15298   5.529   6.182   1.897
  140SOPE   HN115299   5.595   6.203   1.818
  140SOPE   HN215300   5.567   6.096   1.945
  140SOPE   HN315301   5.434   6.163   1.859
  140SOPE   C1215302   5.526   6.291   2.001
  140SOPE  H12A15303   5.472   6.378   1.959
  140SOPE  H12B15304   5.631   6.321   2.022
  140SOPE   C1115305   5.460   6.243   2.133
  140SOPE  H11A15306   5.350   6.237   2.116
  140SOPE  H11B15307   5.478   6.318   2.213
  140SOPE     P15308   5.650   6.065   2.190
  140SOPE   O1315309   5.734   6.182   2.222
  140SOPE   O1415310   5.677   6.002   2.058
  140SOPE   O1215311   5.501   6.114   2.177
  140SOPE   O1115312   5.641   5.961   2.310
  140SOPE    C115313   5.551   5.849   2.302
  140SOPE    HA15314   5.610   5.764   2.262
  140SOPE    HB15315   5.465   5.866   2.233
  140SOPE    C215316   5.491   5.799   2.439
  140SOPE    HS15317   5.397   5.856   2.461
  140SOPE   O2115318   5.588   5.813   2.541
  140SOPE   C2115319   5.587   5.932   2.594
  140SOPE   O2215320   5.488   5.996   2.625
  140SOPE   C2215321   5.732   5.976   2.600
  140SOPE   H2R15322   5.745   6.059   2.527
  140SOPE   H2S15323   5.794   5.892   2.560
  140SOPE    C315324   5.456   5.649   2.434
  140SOPE    HX15325   5.533   5.608   2.365
  140SOPE    HY15326   5.358   5.634   2.385
  140SOPE   O3115327   5.460   5.586   2.566
  140SOPE   C3115328   5.506   5.461   2.559
  140SOPE   O3215329   5.540   5.405   2.457
  140SOPE   C3215330   5.493   5.378   2.688
  140SOPE   H2X15331   5.558   5.291   2.659
  140SOPE   H2Y15332   5.394   5.330   2.692
  140SOPE   C2315333   5.785   6.013   2.740
  140SOPE   H3R15334   5.785   6.123   2.754
  140SOPE   H3S15335   5.892   5.980   2.739
  140SOPE   C2415336   5.716   5.944   2.859
  140SOPE   H4R15337   5.642   6.015   2.903
  140SOPE   H4S15338   5.659   5.853   2.828
  140SOPE   C2515339   5.821   5.901   2.963
  140SOPE   H5R15340   5.870   5.809   2.923
  140SOPE   H5S15341   5.900   5.979   2.969
  140SOPE   C2615342   5.770   5.867   3.104
  140SOPE   H6R15343   5.663   5.837   3.103
  140SOPE   H6S15344   5.828   5.777   3.137
  140SOPE   C2715345   5.797   5.977   3.208
  140SOPE   H7R15346   5.897   6.020   3.186
  140SOPE   H7S15347   5.723   6.060   3.197
  140SOPE   C2815348   5.799   5.924   3.353
  140SOPE   H8R15349   5.862   5.835   3.357
  140SOPE   H8S15350   5.848   6.001   3.417
  140SOPE   C2915351   5.662   5.894   3.405
  140SOPE   H9115352   5.592   5.977   3.382
  140SOPE  C21015353   5.612   5.785   3.467
  140SOPE  H10115354   5.503   5.790   3.469
  140SOPE  C21115355   5.667   5.647   3.512
  140SOPE  H11R15356   5.719   5.606   3.424
  140SOPE  H11S15357   5.579   5.582   3.515
  140SOPE  C21215358   5.753   5.603   3.642
  140SOPE  H12R15359   5.803   5.689   3.688
  140SOPE  H12S15360   5.828   5.539   3.596
  140SOPE  C21315361   5.720   5.491   3.747
  140SOPE  H13R15362   5.697   5.399   3.690
  140SOPE  H13S15363   5.632   5.514   3.809
  140SOPE  C21415364   5.826   5.448   3.852
  140SOPE  H14R15365   5.920   5.408   3.811
  140SOPE  H14S15366   5.777   5.364   3.907
  140SOPE  C21515367   5.871   5.553   3.952
  140SOPE  H15R15368   5.794   5.633   3.958
  140SOPE  H15S15369   5.965   5.598   3.914
  140SOPE  C21615370   5.890   5.494   4.093
  140SOPE  H16R15371   5.788   5.494   4.139
  140SOPE  H16S15372   5.951   5.565   4.152
  140SOPE  C21715373   5.947   5.351   4.109
  140SOPE  H17R15374   5.908   5.281   4.032
  140SOPE  H17S15375   5.914   5.313   4.207
  140SOPE  C21815376   6.098   5.336   4.114
  140SOPE  H18R15377   6.139   5.383   4.206
  140SOPE  H18S15378   6.141   5.382   4.023
  140SOPE  H18T15379   6.126   5.228   4.119
  140SOPE   C3315380   5.549   5.419   2.828
  140SOPE   H3X15381   5.651   5.460   2.816
  140SOPE   H3Y15382   5.554   5.313   2.860
  140SOPE   C3415383   5.480   5.483   2.954
  140SOPE   H4X15384   5.505   5.591   2.962
  140SOPE   H4Y15385   5.371   5.474   2.953
  140SOPE   C3515386   5.518   5.409   3.085
  140SOPE   H5X15387   5.611   5.452   3.127
  140SOPE   H5Y15388   5.537   5.304   3.052
  140SOPE   C3615389   5.418   5.382   3.200
  140SOPE   H6X15390   5.409   5.271   3.209
  140SOPE   H6Y15391   5.317   5.417   3.173
  140SOPE   C3715392   5.465   5.432   3.339
  140SOPE   H7X15393   5.451   5.541   3.349
  140SOPE   H7Y15394   5.575   5.421   3.348
  140SOPE   C3815395   5.401   5.358   3.460
  140SOPE   H8X15396   5.478   5.295   3.510
  140SOPE   H8Y15397   5.325   5.289   3.416
  140SOPE   C3915398   5.328   5.444   3.567
  140SOPE   H9X15399   5.253   5.377   3.615
  140SOPE   H9Y15400   5.274   5.524   3.516
  140SOPE  C31015401   5.415   5.501   3.681
  140SOPE  H10X15402   5.510   5.455   3.657
  140SOPE  H10Y15403   5.382   5.458   3.778
  140SOPE  C31115404   5.421   5.657   3.697
  140SOPE  H11X15405   5.326   5.677   3.741
  140SOPE  H11Y15406   5.410   5.707   3.601
  140SOPE  C31215407   5.517   5.732   3.796
  140SOPE  H12X15408   5.611   5.764   3.747
  140SOPE  H12Y15409   5.543   5.667   3.881
  140SOPE  C31315410   5.457   5.860   3.858
  140SOPE  H13X15411   5.348   5.854   3.847
  140SOPE  H13Y15412   5.489   5.948   3.797
  140SOPE  C31415413   5.486   5.890   4.008
  140SOPE  H14X15414   5.414   5.971   4.035
  140SOPE  H14Y15415   5.588   5.933   4.021
  140SOPE  C31515416   5.466   5.777   4.112
  140SOPE  H15X15417   5.564   5.759   4.162
  140SOPE  H15Y15418   5.443   5.680   4.065
  140SOPE  C31615419   5.356   5.814   4.214
  140SOPE  H16X15420   5.268   5.852   4.161
  140SOPE  H16Y15421   5.392   5.900   4.275
  140SOPE  C31715422   5.303   5.705   4.311
  140SOPE  H17X15423   5.199   5.734   4.339
  140SOPE  H17Y15424   5.363   5.715   4.403
  140SOPE  C31815425   5.299   5.557   4.268
  140SOPE  H18X15426   5.378   5.534   4.194
  140SOPE  H18Y15427   5.200   5.530   4.227
  140SOPE  H18Z15428   5.317   5.492   4.357
  141SOPE     N15429   4.443   6.735   1.801
  141SOPE   HN115430   4.508   6.814   1.824
  141SOPE   HN215431   4.489   6.680   1.723
  141SOPE   HN315432   4.357   6.779   1.761
  141SOPE   C1215433   4.410   6.645   1.918
  141SOPE  H12A15434   4.505   6.616   1.967
  141SOPE  H12B15435   4.361   6.554   1.876
  141SOPE   C1115436   4.315   6.712   2.018
  141SOPE  H11A15437   4.273   6.633   2.084
  141SOPE  H11B15438   4.231   6.759   1.963
  141SOPE     P15439   4.307   6.877   2.218
  141SOPE   O1315440   4.162   6.849   2.198
  141SOPE   O1415441   4.354   7.018   2.217
  141SOPE   O1215442   4.384   6.809   2.095
  141SOPE   O1115443   4.356   6.797   2.343
  141SOPE    C115444   4.477   6.834   2.407
  141SOPE    HA15445   4.454   6.912   2.483
  141SOPE    HB15446   4.552   6.876   2.336
  141SOPE    C215447   4.546   6.712   2.476
  141SOPE    HS15448   4.575   6.640   2.396
  141SOPE   O2115449   4.463   6.648   2.577
  141SOPE   C2115450   4.383   6.552   2.531
  141SOPE   O2215451   4.379   6.512   2.416
  141SOPE   C2215452   4.299   6.492   2.647
  141SOPE   H2R15453   4.233   6.415   2.601
  141SOPE   H2S15454   4.235   6.572   2.689
  141SOPE    C315455   4.678   6.766   2.538
  141SOPE    HX15456   4.741   6.804   2.454
  141SOPE    HY15457   4.737   6.684   2.585
  141SOPE   O3115458   4.650   6.877   2.626
  141SOPE   C3115459   4.637   6.842   2.752
  141SOPE   O3215460   4.671   6.736   2.801
  141SOPE   C3215461   4.585   6.958   2.835
  141SOPE   H2X15462   4.522   6.914   2.916
  141SOPE   H2Y15463   4.520   7.025   2.775
  141SOPE   C2315464   4.377   6.423   2.762
  141SOPE   H3R15465   4.429   6.334   2.725
  141SOPE   H3S15466   4.304   6.386   2.838
  141SOPE   C2415467   4.479   6.512   2.833
  141SOPE   H4R15468   4.562   6.532   2.763
  141SOPE   H4S15469   4.434   6.611   2.855
  141SOPE   C2515470   4.536   6.449   2.961
  141SOPE   H5R15471   4.494   6.346   2.966
  141SOPE   H5S15472   4.646   6.438   2.954
  141SOPE   C2615473   4.496   6.525   3.088
  141SOPE   H6R15474   4.431   6.611   3.061
  141SOPE   H6S15475   4.433   6.459   3.150
  141SOPE   C2715476   4.612   6.574   3.177
  141SOPE   H7R15477   4.693   6.497   3.181
  141SOPE   H7S15478   4.657   6.665   3.131
  141SOPE   C2815479   4.564   6.602   3.321
  141SOPE   H8R15480   4.549   6.505   3.373
  141SOPE   H8S15481   4.643   6.657   3.376
  141SOPE   C2915482   4.435   6.678   3.318
  141SOPE   H9115483   4.439   6.759   3.243
  141SOPE  C21015484   4.318   6.661   3.384
  141SOPE  H10115485   4.237   6.732   3.360
  141SOPE  C21115486   4.275   6.559   3.485
  141SOPE  H11R15487   4.268   6.460   3.434
  141SOPE  H11S15488   4.173   6.583   3.522
  141SOPE  C21215489   4.365   6.545   3.609
  141SOPE  H12R15490   4.471   6.533   3.576
  141SOPE  H12S15491   4.335   6.453   3.662
  141SOPE  C21315492   4.364   6.660   3.709
  141SOPE  H13R15493   4.259   6.682   3.740
  141SOPE  H13S15494   4.404   6.750   3.657
  141SOPE  C21415495   4.452   6.628   3.831
  141SOPE  H14R15496   4.477   6.722   3.884
  141SOPE  H14S15497   4.548   6.585   3.794
  141SOPE  C21515498   4.388   6.530   3.932
  141SOPE  H15R15499   4.467   6.494   4.002
  141SOPE  H15S15500   4.348   6.442   3.879
  141SOPE  C21615501   4.278   6.598   4.014
  141SOPE  H16R15502   4.257   6.697   3.968
  141SOPE  H16S15503   4.312   6.618   4.118
  141SOPE  C21715504   4.144   6.524   4.017
  141SOPE  H17R15505   4.150   6.432   4.080
  141SOPE  H17S15506   4.117   6.495   3.914
  141SOPE  C21815507   4.035   6.618   4.067
  141SOPE  H18R15508   4.058   6.651   4.171
  141SOPE  H18S15509   3.934   6.574   4.068
  141SOPE  H18T15510   4.030   6.706   4.001
  141SOPE   C3315511   4.707   7.030   2.895
  141SOPE   H3X15512   4.754   7.096   2.820
  141SOPE   H3Y15513   4.784   6.956   2.921
  141SOPE   C3415514   4.683   7.092   3.031
  141SOPE   H4X15515   4.586   7.144   3.029
  141SOPE   H4Y15516   4.764   7.165   3.053
  141SOPE   C3515517   4.686   6.979   3.136
  141SOPE   H5X15518   4.792   6.957   3.162
  141SOPE   H5Y15519   4.646   6.887   3.088
  141SOPE   C3615520   4.603   6.995   3.265
  141SOPE   H6X15521   4.659   7.054   3.340
  141SOPE   H6Y15522   4.594   6.892   3.307
  141SOPE   C3715523   4.463   7.056   3.247
  141SOPE   H7X15524   4.431   7.052   3.140
  141SOPE   H7Y15525   4.470   7.162   3.277
  141SOPE   C3815526   4.348   7.000   3.333
  141SOPE   H8X15527   4.309   6.909   3.284
  141SOPE   H8Y15528   4.264   7.073   3.330
  141SOPE   C3915529   4.386   6.973   3.480
  141SOPE   H9X15530   4.485   6.923   3.488
  141SOPE   H9Y15531   4.310   6.904   3.525
  141SOPE  C31015532   4.383   7.102   3.561
  141SOPE  H10X15533   4.278   7.113   3.591
  141SOPE  H10Y15534   4.409   7.188   3.494
  141SOPE  C31115535   4.475   7.113   3.684
  141SOPE  H11X15536   4.458   7.213   3.730
  141SOPE  H11Y15537   4.579   7.110   3.645
  141SOPE  C31215538   4.465   7.007   3.794
  141SOPE  H12X15539   4.532   7.036   3.878
  141SOPE  H12Y15540   4.504   6.911   3.754
  141SOPE  C31315541   4.324   6.985   3.853
  141SOPE  H13X15542   4.313   6.877   3.878
  141SOPE  H13Y15543   4.246   7.007   3.777
  141SOPE  C31415544   4.299   7.065   3.982
  141SOPE  H14X15545   4.310   7.173   3.959
  141SOPE  H14Y15546   4.376   7.038   4.058
  141SOPE  C31515547   4.159   7.036   4.040
  141SOPE  H15X15548   4.156   6.932   4.080
  141SOPE  H15Y15549   4.090   7.039   3.952
  141SOPE  C31615550   4.107   7.133   4.148
  141SOPE  H16X15551   4.183   7.212   4.164
  141SOPE  H16Y15552   4.109   7.084   4.245
  141SOPE  C31715553   3.970   7.196   4.106
  141SOPE  H17X15554   3.945   7.163   4.003
  141SOPE  H17Y15555   3.993   7.301   4.100
  141SOPE  C31815556   3.840   7.211   4.187
  141SOPE  H18X15557   3.770   7.273   4.127
  141SOPE  H18Y15558   3.857   7.265   4.282
  141SOPE  H18Z15559   3.788   7.117   4.207
  142SOPE     N15560   5.150   6.541   2.227
  142SOPE   HN115561   5.065   6.595   2.201
  142SOPE   HN215562   5.187   6.501   2.139
  142SOPE   HN315563   5.126   6.463   2.292
  142SOPE   C1215564   5.249   6.638   2.285
  142SOPE  H12A15565   5.321   6.582   2.347
  142SOPE  H12B15566   5.194   6.710   2.348
  142SOPE   C1115567   5.324   6.713   2.173
  142SOPE  H11A15568   5.394   6.637   2.131
  142SOPE  H11B15569   5.387   6.795   2.214
  142SOPE     P15570   5.139   6.878   2.063
  142SOPE   O1315571   5.009   6.821   2.020
  142SOPE   O1415572   5.192   6.993   1.989
  142SOPE   O1215573   5.244   6.759   2.066
  142SOPE   O1115574   5.137   6.918   2.218
  142SOPE    C115575   5.236   7.018   2.251
  142SOPE    HA15576   5.203   7.118   2.214
  142SOPE    HB15577   5.335   6.996   2.204
  142SOPE    C215578   5.257   7.034   2.405
  142SOPE    HS15579   5.279   7.141   2.426
  142SOPE   O2115580   5.366   6.950   2.448
  142SOPE   C2115581   5.384   6.959   2.581
  142SOPE   O2215582   5.367   7.060   2.645
  142SOPE   C2215583   5.433   6.825   2.633
  142SOPE   H2R15584   5.510   6.845   2.711
  142SOPE   H2S15585   5.480   6.770   2.549
  142SOPE    C315586   5.126   6.986   2.474
  142SOPE    HX15587   5.131   6.877   2.452
  142SOPE    HY15588   5.039   7.026   2.421
  142SOPE   O3115589   5.114   7.011   2.616
  142SOPE   C3115590   5.039   6.916   2.674
  142SOPE   O3215591   4.978   6.831   2.613
  142SOPE   C3215592   5.045   6.931   2.826
  142SOPE   H2X15593   4.994   7.023   2.858
  142SOPE   H2Y15594   5.149   6.944   2.854
  142SOPE   C2315595   5.329   6.732   2.698
  142SOPE   H3R15596   5.278   6.674   2.619
  142SOPE   H3S15597   5.252   6.789   2.752
  142SOPE   C2415598   5.396   6.638   2.800
  142SOPE   H4R15599   5.327   6.553   2.820
  142SOPE   H4S15600   5.487   6.596   2.752
  142SOPE   C2515601   5.439   6.703   2.934
  142SOPE   H5R15602   5.451   6.619   3.006
  142SOPE   H5S15603   5.541   6.747   2.922
  142SOPE   C2615604   5.347   6.810   2.999
  142SOPE   H6R15605   5.241   6.780   2.997
  142SOPE   H6S15606   5.378   6.817   3.105
  142SOPE   C2715607   5.371   6.953   2.950
  142SOPE   H7R15608   5.481   6.958   2.939
  142SOPE   H7S15609   5.334   6.971   2.849
  142SOPE   C2815610   5.327   7.065   3.048
  142SOPE   H8R15611   5.360   7.034   3.149
  142SOPE   H8S15612   5.389   7.153   3.021
  142SOPE   C2915613   5.185   7.116   3.051
  142SOPE   H9115614   5.159   7.186   2.969
  142SOPE  C21015615   5.090   7.083   3.139
  142SOPE  H10115616   4.990   7.129   3.133
  142SOPE  C21115617   5.109   6.986   3.253
  142SOPE  H11R15618   5.187   6.911   3.228
  142SOPE  H11S15619   5.015   6.929   3.270
  142SOPE  C21215620   5.149   7.052   3.386
  142SOPE  H12R15621   5.066   7.118   3.420
  142SOPE  H12S15622   5.240   7.115   3.374
  142SOPE  C21315623   5.175   6.944   3.492
  142SOPE  H13R15624   5.277   6.901   3.478
  142SOPE  H13S15625   5.102   6.862   3.476
  142SOPE  C21415626   5.156   6.994   3.635
  142SOPE  H14R15627   5.053   7.034   3.644
  142SOPE  H14S15628   5.226   7.078   3.657
  142SOPE  C21515629   5.174   6.883   3.739
  142SOPE  H15R15630   5.282   6.862   3.754
  142SOPE  H15S15631   5.125   6.789   3.703
  142SOPE  C21615632   5.108   6.924   3.870
  142SOPE  H16R15633   4.998   6.933   3.854
  142SOPE  H16S15634   5.148   7.024   3.895
  142SOPE  C21715635   5.136   6.833   3.990
  142SOPE  H17R15636   5.246   6.827   4.003
  142SOPE  H17S15637   5.097   6.731   3.968
  142SOPE  C21815638   5.074   6.886   4.119
  142SOPE  H18R15639   5.115   6.986   4.144
  142SOPE  H18S15640   5.095   6.818   4.203
  142SOPE  H18T15641   4.964   6.895   4.107
  142SOPE   C3315642   4.992   6.809   2.906
  142SOPE   H3X15643   4.884   6.806   2.886
  142SOPE   H3Y15644   5.008   6.825   3.015
  142SOPE   C3415645   5.030   6.666   2.870
  142SOPE   H4X15646   5.134   6.638   2.895
  142SOPE   H4Y15647   5.017   6.647   2.761
  142SOPE   C3515648   4.929   6.575   2.944
  142SOPE   H5X15649   4.869   6.522   2.868
  142SOPE   H5Y15650   4.854   6.637   2.998
  142SOPE   C3615651   4.992   6.478   3.044
  142SOPE   H6X15652   5.062   6.410   2.988
  142SOPE   H6Y15653   4.911   6.414   3.086
  142SOPE   C3715654   5.070   6.547   3.156
  142SOPE   H7X15655   5.029   6.515   3.254
  142SOPE   H7Y15656   5.055   6.657   3.148
  142SOPE   C3815657   5.219   6.513   3.149
  142SOPE   H8X15658   5.258   6.539   3.049
  142SOPE   H8Y15659   5.230   6.403   3.162
  142SOPE   C3915660   5.302   6.583   3.257
  142SOPE   H9X15661   5.245   6.579   3.353
  142SOPE   H9Y15662   5.314   6.691   3.237
  142SOPE  C31015663   5.439   6.516   3.278
  142SOPE  H10X15664   5.521   6.577   3.233
  142SOPE  H10Y15665   5.439   6.418   3.225
  142SOPE  C31115666   5.464   6.491   3.426
  142SOPE  H11X15667   5.370   6.456   3.474
  142SOPE  H11Y15668   5.491   6.588   3.474
  142SOPE  C31215669   5.572   6.386   3.454
  142SOPE  H12X15670   5.663   6.414   3.396
  142SOPE  H12Y15671   5.540   6.285   3.422
  142SOPE  C31315672   5.610   6.387   3.603
  142SOPE  H13X15673   5.624   6.495   3.624
  142SOPE  H13Y15674   5.706   6.334   3.620
  142SOPE  C31415675   5.507   6.343   3.706
  142SOPE  H14X15676   5.497   6.232   3.704
  142SOPE  H14Y15677   5.408   6.387   3.682
  142SOPE  C31515678   5.546   6.390   3.847
  142SOPE  H15X15679   5.646   6.349   3.875
  142SOPE  H15Y15680   5.473   6.346   3.918
  142SOPE  C31615681   5.549   6.544   3.864
  142SOPE  H16X15682   5.464   6.589   3.808
  142SOPE  H16Y15683   5.642   6.587   3.822
  142SOPE  C31715684   5.538   6.587   4.010
  142SOPE  H17X15685   5.562   6.696   4.015
  142SOPE  H17Y15686   5.614   6.533   4.071
  142SOPE  C31815687   5.397   6.565   4.065
  142SOPE  H18X15688   5.327   6.635   4.016
  142SOPE  H18Y15689   5.394   6.581   4.175
  142SOPE  H18Z15690   5.361   6.462   4.044
  143SOPE     N15691   0.613   2.238   2.196
  143SOPE   HN115692   0.548   2.308   2.238
  143SOPE   HN215693   0.703   2.239   2.250
  143SOPE   HN315694   0.627   2.267   2.096
  143SOPE   C1215695   0.546   2.102   2.196
  143SOPE  H12A15696   0.493   2.090   2.292
  143SOPE  H12B15697   0.627   2.026   2.189
  143SOPE   C1115698   0.452   2.086   2.075
  143SOPE  H11A15699   0.421   1.979   2.069
  143SOPE  H11B15700   0.511   2.106   1.982
  143SOPE     P15701   0.195   2.132   2.131
  143SOPE   O1315702   0.179   1.987   2.113
  143SOPE   O1415703   0.096   2.218   2.063
  143SOPE   O1215704   0.338   2.174   2.074
  143SOPE   O1115705   0.212   2.182   2.283
  143SOPE    C115706   0.221   2.327   2.290
  143SOPE    HA15707   0.131   2.374   2.242
  143SOPE    HB15708   0.312   2.365   2.238
  143SOPE    C215709   0.220   2.392   2.431
  143SOPE    HS15710   0.308   2.357   2.490
  143SOPE   O2115711   0.095   2.363   2.495
  143SOPE   C2115712   0.093   2.253   2.566
  143SOPE   O2215713   0.190   2.194   2.612
  143SOPE   C2215714  -0.052   2.209   2.582
  143SOPE   H2R15715  -0.101   2.227   2.484
  143SOPE   H2S15716  -0.103   2.271   2.658
  143SOPE    C315717   0.236   2.547   2.412
  143SOPE    HX15718   0.165   2.579   2.332
  143SOPE    HY15719   0.339   2.571   2.376
  143SOPE   O3115720   0.203   2.623   2.528
  143SOPE   C3115721   0.274   2.600   2.635
  143SOPE   O3215722   0.385   2.550   2.642
  143SOPE   C3215723   0.187   2.630   2.754
  143SOPE   H2X15724   0.120   2.716   2.733
  143SOPE   H2Y15725   0.260   2.660   2.830
  143SOPE   C2315726  -0.063   2.058   2.611
  143SOPE   H3R15727   0.017   2.004   2.555
  143SOPE   H3S15728  -0.158   2.025   2.562
  143SOPE   C2415729  -0.072   2.009   2.757
  143SOPE   H4R15730  -0.170   1.957   2.766
  143SOPE   H4S15731   0.000   1.928   2.772
  143SOPE   C2515732  -0.054   2.106   2.875
  143SOPE   H5R15733   0.055   2.123   2.890
  143SOPE   H5S15734  -0.101   2.204   2.854
  143SOPE   C2615735  -0.117   2.047   3.004
  143SOPE   H6R15736  -0.223   2.020   2.984
  143SOPE   H6S15737  -0.063   1.951   3.024
  143SOPE   C2715738  -0.108   2.134   3.131
  143SOPE   H7R15739  -0.053   2.228   3.102
  143SOPE   H7S15740  -0.208   2.167   3.167
  143SOPE   C2815741  -0.020   2.064   3.240
  143SOPE   H8R15742   0.059   2.016   3.180
  143SOPE   H8S15743   0.028   2.149   3.293
  143SOPE   C2915744  -0.070   1.960   3.339
  143SOPE   H9115745  -0.179   1.958   3.344
  143SOPE  C21015746  -0.003   1.872   3.422
  143SOPE  H10115747  -0.067   1.800   3.474
  143SOPE  C21115748   0.145   1.838   3.453
  143SOPE  H11R15749   0.201   1.860   3.361
  143SOPE  H11S15750   0.142   1.728   3.445
  143SOPE  C21215751   0.262   1.857   3.568
  143SOPE  H12R15752   0.345   1.893   3.506
  143SOPE  H12S15753   0.290   1.751   3.580
  143SOPE  C21315754   0.302   1.914   3.718
  143SOPE  H13R15755   0.399   1.958   3.692
  143SOPE  H13S15756   0.319   1.823   3.778
  143SOPE  C21415757   0.267   2.027   3.830
  143SOPE  H14R15758   0.323   1.978   3.913
  143SOPE  H14S15759   0.168   2.024   3.875
  143SOPE  C21515760   0.336   2.169   3.849
  143SOPE  H15R15761   0.445   2.158   3.836
  143SOPE  H15S15762   0.318   2.188   3.958
  143SOPE  C21615763   0.297   2.310   3.788
  143SOPE  H16R15764   0.311   2.318   3.680
  143SOPE  H16S15765   0.373   2.383   3.822
  143SOPE  C21715766   0.164   2.379   3.820
  143SOPE  H17R15767   0.079   2.308   3.828
  143SOPE  H17S15768   0.147   2.446   3.732
  143SOPE  C21815769   0.164   2.479   3.936
  143SOPE  H18R15770   0.060   2.501   3.966
  143SOPE  H18S15771   0.216   2.573   3.909
  143SOPE  H18T15772   0.214   2.438   4.024
  143SOPE   C3315773   0.107   2.502   2.787
  143SOPE   H3X15774   0.164   2.411   2.756
  143SOPE   H3Y15775   0.012   2.503   2.729
  143SOPE   C3415776   0.081   2.483   2.936
  143SOPE   H4X15777   0.036   2.382   2.952
  143SOPE   H4Y15778   0.005   2.558   2.966
  143SOPE   C3515779   0.208   2.496   3.022
  143SOPE   H5X15780   0.248   2.599   3.013
  143SOPE   H5Y15781   0.286   2.426   2.984
  143SOPE   C3615782   0.185   2.477   3.172
  143SOPE   H6X15783   0.276   2.512   3.227
  143SOPE   H6Y15784   0.168   2.370   3.196
  143SOPE   C3715785   0.061   2.551   3.218
  143SOPE   H7X15786  -0.026   2.504   3.168
  143SOPE   H7Y15787   0.067   2.657   3.186
  143SOPE   C3815788   0.032   2.541   3.368
  143SOPE   H8X15789  -0.064   2.597   3.377
  143SOPE   H8Y15790   0.110   2.595   3.425
  143SOPE   C3915791   0.008   2.398   3.420
  143SOPE   H9X15792   0.106   2.347   3.429
  143SOPE   H9Y15793  -0.051   2.345   3.342
  143SOPE  C31015794  -0.074   2.395   3.552
  143SOPE  H10X15795  -0.129   2.492   3.547
  143SOPE  H10Y15796  -0.012   2.402   3.641
  143SOPE  C31115797  -0.187   2.289   3.577
  143SOPE  H11X15798  -0.248   2.268   3.488
  143SOPE  H11Y15799  -0.235   2.363   3.644
  143SOPE  C31215800  -0.212   2.197   3.699
  143SOPE  H12X15801  -0.125   2.217   3.765
  143SOPE  H12Y15802  -0.223   2.092   3.664
  143SOPE  C31315803  -0.324   2.216   3.805
  143SOPE  H13X15804  -0.422   2.181   3.764
  143SOPE  H13Y15805  -0.338   2.319   3.836
  143SOPE  C31415806  -0.280   2.124   3.922
  143SOPE  H14X15807  -0.171   2.103   3.915
  143SOPE  H14Y15808  -0.318   2.032   3.881
  143SOPE  C31515809  -0.295   2.151   4.074
  143SOPE  H15X15810  -0.398   2.157   4.115
  143SOPE  H15Y15811  -0.244   2.246   4.102
  143SOPE  C31615812  -0.220   2.039   4.152
  143SOPE  H16X15813  -0.242   1.941   4.104
  143SOPE  H16Y15814  -0.257   2.034   4.256
  143SOPE  C31715815  -0.068   2.057   4.157
  143SOPE  H17X15816  -0.037   2.104   4.253
  143SOPE  H17Y15817  -0.041   2.128   4.076
  143SOPE  C31815818   0.011   1.928   4.139
  143SOPE  H18X15819   0.119   1.950   4.127
  143SOPE  H18Y15820  -0.023   1.877   4.046
  143SOPE  H18Z15821  -0.002   1.860   4.226
  144SOPE     N15822   7.201   0.383   2.371
  144SOPE   HN115823   7.126   0.413   2.437
  144SOPE   HN215824   7.254   0.304   2.413
  144SOPE   HN315825   7.272   0.460   2.361
  144SOPE   C1215826   7.139   0.331   2.243
  144SOPE  H12A15827   7.065   0.403   2.206
  144SOPE  H12B15828   7.085   0.239   2.269
  144SOPE   C1115829   7.247   0.299   2.139
  144SOPE  H11A15830   7.337   0.253   2.187
  144SOPE  H11B15831   7.281   0.396   2.097
  144SOPE     P15832   7.151   0.068   2.053
  144SOPE   O1315833   7.227  -0.024   1.964
  144SOPE   O1415834   7.004   0.075   2.039
  144SOPE   O1215835   7.196   0.219   2.033
  144SOPE   O1115836   7.195   0.043   2.202
  144SOPE    C115837   7.134  -0.057   2.282
  144SOPE    HA15838   7.206  -0.086   2.361
  144SOPE    HB15839   7.111  -0.150   2.224
  144SOPE    C215840   7.005  -0.007   2.354
  144SOPE    HS15841   6.937   0.044   2.282
  144SOPE   O2115842   7.047   0.079   2.463
  144SOPE   C2115843   6.968   0.179   2.495
  144SOPE   O2215844   6.892   0.237   2.419
  144SOPE   C2215845   7.026   0.246   2.621
  144SOPE   H2R15846   7.024   0.354   2.595
  144SOPE   H2S15847   7.131   0.215   2.637
  144SOPE    C315848   6.930  -0.130   2.409
  144SOPE    HX15849   6.895  -0.185   2.320
  144SOPE    HY15850   6.838  -0.101   2.465
  144SOPE   O3115851   7.020  -0.215   2.485
  144SOPE   C3115852   7.040  -0.165   2.606
  144SOPE   O3215853   6.974  -0.081   2.663
  144SOPE   C3215854   7.169  -0.216   2.669
  144SOPE   H2X15855   7.212  -0.298   2.609
  144SOPE   H2Y15856   7.141  -0.254   2.770
  144SOPE   C2315857   6.949   0.232   2.753
  144SOPE   H3R15858   6.968   0.132   2.799
  144SOPE   H3S15859   6.840   0.239   2.732
  144SOPE   C2415860   6.994   0.347   2.842
  144SOPE   H4R15861   7.101   0.332   2.872
  144SOPE   H4S15862   6.988   0.437   2.777
  144SOPE   C2515863   6.910   0.386   2.963
  144SOPE   H5R15864   6.905   0.498   2.966
  144SOPE   H5S15865   6.806   0.350   2.954
  144SOPE   C2615866   6.971   0.342   3.094
  144SOPE   H6R15867   6.985   0.232   3.094
  144SOPE   H6S15868   7.072   0.388   3.105
  144SOPE   C2715869   6.884   0.385   3.212
  144SOPE   H7R15870   6.883   0.495   3.212
  144SOPE   H7S15871   6.779   0.351   3.198
  144SOPE   C2815872   6.946   0.328   3.341
  144SOPE   H8R15873   6.935   0.219   3.333
  144SOPE   H8S15874   7.055   0.348   3.330
  144SOPE   C2915875   6.899   0.370   3.478
  144SOPE   H9115876   6.792   0.355   3.500
  144SOPE  C21015877   6.978   0.421   3.574
  144SOPE  H10115878   6.937   0.438   3.675
  144SOPE  C21115879   7.127   0.445   3.560
  144SOPE  H11R15880   7.163   0.505   3.646
  144SOPE  H11S15881   7.148   0.506   3.469
  144SOPE  C21215882   7.209   0.315   3.553
  144SOPE  H12R15883   7.176   0.251   3.469
  144SOPE  H12S15884   7.192   0.257   3.646
  144SOPE  C21315885   7.359   0.341   3.535
  144SOPE  H13R15886   7.376   0.416   3.454
  144SOPE  H13S15887   7.410   0.247   3.505
  144SOPE  C21415888   7.426   0.389   3.664
  144SOPE  H14R15889   7.366   0.469   3.713
  144SOPE  H14S15890   7.526   0.426   3.640
  144SOPE  C21515891   7.446   0.275   3.763
  144SOPE  H15R15892   7.498   0.191   3.713
  144SOPE  H15S15893   7.344   0.244   3.794
  144SOPE  C21615894   7.522   0.313   3.889
  144SOPE  H16R15895   7.511   0.230   3.960
  144SOPE  H16S15896   7.477   0.403   3.936
  144SOPE  C21715897   7.672   0.318   3.874
  144SOPE  H17R15898   7.702   0.398   3.804
  144SOPE  H17S15899   7.706   0.221   3.832
  144SOPE  C21815900   7.734   0.343   4.011
  144SOPE  H18R15901   7.665   0.323   4.095
  144SOPE  H18S15902   7.766   0.449   4.008
  144SOPE  H18T15903   7.824   0.281   4.030
  144SOPE   C3315904   7.265  -0.096   2.686
  144SOPE   H3X15905   7.210  -0.004   2.717
  144SOPE   H3Y15906   7.313  -0.074   2.588
  144SOPE   C3415907   7.373  -0.124   2.790
  144SOPE   H4X15908   7.471  -0.085   2.758
  144SOPE   H4Y15909   7.380  -0.234   2.796
  144SOPE   C3515910   7.338  -0.073   2.930
  144SOPE   H5X15911   7.413  -0.114   3.002
  144SOPE   H5Y15912   7.238  -0.113   2.956
  144SOPE   C3615913   7.335   0.080   2.940
  144SOPE   H6X15914   7.235   0.116   2.906
  144SOPE   H6Y15915   7.411   0.120   2.868
  144SOPE   C3715916   7.369   0.140   3.078
  144SOPE   H7X15917   7.366   0.251   3.066
  144SOPE   H7Y15918   7.473   0.112   3.105
  144SOPE   C3815919   7.275   0.104   3.194
  144SOPE   H8X15920   7.171   0.131   3.168
  144SOPE   H8Y15921   7.304   0.166   3.282
  144SOPE   C3915922   7.280  -0.043   3.238
  144SOPE   H9X15923   7.384  -0.079   3.249
  144SOPE   H9Y15924   7.231  -0.104   3.159
  144SOPE  C31015925   7.200  -0.071   3.365
  144SOPE  H10X15926   7.143  -0.165   3.348
  144SOPE  H10Y15927   7.128   0.011   3.382
  144SOPE  C31115928   7.280  -0.081   3.495
  144SOPE  H11X15929   7.319   0.021   3.516
  144SOPE  H11Y15930   7.367  -0.148   3.484
  144SOPE  C31215931   7.188  -0.128   3.608
  144SOPE  H12X15932   7.145  -0.227   3.585
  144SOPE  H12Y15933   7.106  -0.053   3.615
  144SOPE  C31315934   7.245  -0.136   3.748
  144SOPE  H13X15935   7.325  -0.212   3.753
  144SOPE  H13Y15936   7.164  -0.162   3.820
  144SOPE  C31415937   7.306  -0.003   3.781
  144SOPE  H14X15938   7.231   0.076   3.758
  144SOPE  H14Y15939   7.394   0.010   3.714
  144SOPE  C31515940   7.356   0.006   3.925
  144SOPE  H15X15941   7.460   0.044   3.921
  144SOPE  H15Y15942   7.364  -0.097   3.964
  144SOPE  C31615943   7.266   0.094   4.011
  144SOPE  H16X15944   7.187   0.032   4.058
  144SOPE  H16Y15945   7.215   0.166   3.943
  144SOPE  C31715946   7.334   0.182   4.117
  144SOPE  H17X15947   7.259   0.203   4.192
  144SOPE  H17Y15948   7.356   0.282   4.074
  144SOPE  C31815949   7.453   0.131   4.197
  144SOPE  H18X15950   7.526   0.078   4.133
  144SOPE  H18Y15951   7.419   0.065   4.279
  144SOPE  H18Z15952   7.503   0.218   4.245
  145SAPE     N15953   2.008   3.801   6.250
  145SAPE   HN115954   2.099   3.849   6.272
  145SAPE   HN215955   1.932   3.871   6.259
  145SAPE   HN315956   1.996   3.723   6.320
  145SAPE   C1215957   2.010   3.732   6.117
  145SAPE  H12A15958   2.067   3.793   6.044
  145SAPE  H12B15959   1.905   3.722   6.083
  145SAPE   C1115960   2.072   3.594   6.138
  145SAPE  H11A15961   2.184   3.605   6.140
  145SAPE  H11B15962   2.047   3.530   6.050
  145SAPE     P15963   2.083   3.395   6.299
  145SAPE   O1315964   2.229   3.403   6.275
  145SAPE   O1415965   2.033   3.356   6.432
  145SAPE   O1215966   2.022   3.538   6.261
  145SAPE   O1115967   2.013   3.308   6.189
  145SAPE    C115968   1.871   3.307   6.177
  145SAPE    HA15969   1.824   3.272   6.271
  145SAPE    HB15970   1.833   3.409   6.152
  145SAPE    C215971   1.830   3.213   6.061
  145SAPE    HS15972   1.861   3.109   6.087
  145SAPE   O2115973   1.892   3.261   5.941
  145SAPE   C2115974   2.004   3.202   5.906
  145SAPE   O2215975   2.056   3.106   5.958
  145SAPE   C2215976   2.060   3.272   5.783
  145SAPE   H2R15977   2.052   3.381   5.798
  145SAPE   H2S15978   2.167   3.243   5.777
  145SAPE    C315979   1.676   3.213   6.039
  145SAPE    HX15980   1.628   3.176   6.132
  145SAPE    HY15981   1.651   3.139   5.960
  145SAPE   O3115982   1.629   3.347   6.010
  145SAPE   C3115983   1.633   3.379   5.880
  145SAPE   O3215984   1.651   3.303   5.788
  145SAPE   C3215985   1.595   3.526   5.865
  145SAPE   H2X15986   1.685   3.588   5.886
  145SAPE   H2Y15987   1.516   3.549   5.940
  145SAPE   C2315988   1.980   3.226   5.659
  145SAPE   H3R15989   1.875   3.262   5.670
  145SAPE   H3S15990   1.976   3.114   5.656
  145SAPE   C2415991   2.034   3.280   5.526
  145SAPE   H4R15992   2.039   3.390   5.532
  145SAPE   H4S15993   1.959   3.255   5.448
  145SAPE   C2515994   2.169   3.223   5.490
  145SAPE   H5R15995   2.243   3.226   5.572
  145SAPE   C2615996   2.206   3.171   5.371
  145SAPE   H6R15997   2.309   3.132   5.363
  145SAPE   C2715998   2.121   3.156   5.246
  145SAPE   H7R15999   2.190   3.129   5.163
  145SAPE   H7S16000   2.079   3.255   5.219
  145SAPE   C2816001   2.011   3.052   5.255
  145SAPE   H8R16002   2.030   2.980   5.335
  145SAPE   C2916003   1.893   3.041   5.188
  145SAPE   H9R16004   1.833   2.951   5.209
  145SAPE  C21016005   1.835   3.133   5.082
  145SAPE  H10R16006   1.862   3.094   4.981
  145SAPE  H10S16007   1.879   3.233   5.091
  145SAPE  C21116008   1.685   3.149   5.085
  145SAPE  H11R16009   1.645   3.168   5.186
  145SAPE  C21216010   1.602   3.176   4.982
  145SAPE  H12R16011   1.494   3.159   4.998
  145SAPE  C21316012   1.640   3.196   4.837
  145SAPE  H13R16013   1.625   3.105   4.776
  145SAPE  H13S16014   1.748   3.222   4.830
  145SAPE  C21416015   1.551   3.307   4.786
  145SAPE  H14R16016   1.443   3.293   4.801
  145SAPE  C21516017   1.595   3.419   4.724
  145SAPE  H15R16018   1.522   3.497   4.697
  145SAPE  C21616019   1.739   3.450   4.695
  145SAPE  H16R16020   1.785   3.366   4.637
  145SAPE  H16S16021   1.796   3.458   4.790
  145SAPE  C21716022   1.762   3.580   4.617
  145SAPE  H17R16023   1.871   3.602   4.611
  145SAPE  H17S16024   1.715   3.665   4.672
  145SAPE  C21816025   1.707   3.576   4.474
  145SAPE  H18R16026   1.608   3.524   4.474
  145SAPE  H18S16027   1.775   3.517   4.408
  145SAPE  C21916028   1.685   3.716   4.417
  145SAPE  H19R16029   1.628   3.777   4.491
  145SAPE  H19S16030   1.619   3.703   4.329
  145SAPE  C22016031   1.813   3.789   4.378
  145SAPE  H20R16032   1.878   3.805   4.467
  145SAPE  H20S16033   1.790   3.889   4.334
  145SAPE  H20T16034   1.870   3.730   4.303
  145SAPE   C3316035   1.541   3.555   5.725
  145SAPE   H3X16036   1.470   3.640   5.729
  145SAPE   H3Y16037   1.484   3.469   5.683
  145SAPE   C3416038   1.650   3.586   5.624
  145SAPE   H4X16039   1.724   3.503   5.618
  145SAPE   H4Y16040   1.707   3.676   5.656
  145SAPE   C3516041   1.588   3.612   5.487
  145SAPE   H5X16042   1.656   3.681   5.432
  145SAPE   H5Y16043   1.492   3.667   5.499
  145SAPE   C3616044   1.566   3.485   5.404
  145SAPE   H6X16045   1.516   3.512   5.308
  145SAPE   H6Y16046   1.498   3.416   5.459
  145SAPE   C3716047   1.695   3.408   5.375
  145SAPE   H7X16048   1.676   3.334   5.294
  145SAPE   H7Y16049   1.725   3.350   5.465
  145SAPE   C3816050   1.809   3.500   5.333
  145SAPE   H8X16051   1.898   3.436   5.314
  145SAPE   H8Y16052   1.840   3.566   5.417
  145SAPE   C3916053   1.769   3.584   5.211
  145SAPE   H9X16054   1.724   3.680   5.242
  145SAPE   H9Y16055   1.693   3.528   5.153
  145SAPE  C31016056   1.885   3.614   5.117
  145SAPE  H10X16057   1.969   3.661   5.173
  145SAPE  H10Y16058   1.851   3.685   5.038
  145SAPE  C31116059   1.930   3.485   5.052
  145SAPE  H11X16060   1.845   3.441   4.994
  145SAPE  H11Y16061   1.958   3.411   5.129
  145SAPE  C31216062   2.050   3.503   4.962
  145SAPE  H12X16063   2.135   3.542   5.022
  145SAPE  H12Y16064   2.025   3.577   4.883
  145SAPE  C31316065   2.089   3.369   4.901
  145SAPE  H13X16066   2.000   3.317   4.860
  145SAPE  H13Y16067   2.132   3.304   4.980
  145SAPE  C31416068   2.192   3.392   4.791
  145SAPE  H14X16069   2.251   3.299   4.779
  145SAPE  H14Y16070   2.259   3.473   4.825
  145SAPE  C31516071   2.130   3.430   4.656
  145SAPE  H15X16072   2.208   3.476   4.591
  145SAPE  H15Y16073   2.051   3.507   4.672
  145SAPE  C31616074   2.074   3.310   4.579
  145SAPE  H16X16075   2.012   3.349   4.495
  145SAPE  H16Y16076   2.006   3.252   4.645
  145SAPE  C31716077   2.184   3.219   4.523
  145SAPE  H17X16078   2.167   3.115   4.561
  145SAPE  H17Y16079   2.283   3.250   4.564
  145SAPE  C31816080   2.192   3.217   4.370
  145SAPE  H18X16081   2.241   3.124   4.335
  145SAPE  H18Y16082   2.250   3.304   4.333
  145SAPE  H18Z16083   2.090   3.220   4.326
  146SAPE     N16084   2.795   1.262   6.278
  146SAPE   HN116085   2.824   1.341   6.214
  146SAPE   HN216086   2.878   1.201   6.296
  146SAPE   HN316087   2.710   1.217   6.237
  146SAPE   C1216088   2.757   1.345   6.396
  146SAPE  H12A16089   2.849   1.367   6.455
  146SAPE  H12B16090   2.683   1.291   6.458
  146SAPE   C1116091   2.701   1.473   6.336
  146SAPE  H11A16092   2.678   1.548   6.415
  146SAPE  H11B16093   2.603   1.450   6.287
  146SAPE     P16094   2.888   1.644   6.269
  146SAPE   O1316095   2.821   1.766   6.230
  146SAPE   O1416096   2.930   1.626   6.410
  146SAPE   O1216097   2.793   1.522   6.237
  146SAPE   O1116098   3.008   1.612   6.170
  146SAPE    C116099   3.038   1.481   6.124
  146SAPE    HA16100   3.086   1.424   6.207
  146SAPE    HB16101   2.947   1.427   6.091
  146SAPE    C216102   3.132   1.481   6.002
  146SAPE    HS16103   3.210   1.559   6.020
  146SAPE   O2116104   3.057   1.504   5.881
  146SAPE   C2116105   3.041   1.628   5.841
  146SAPE   O2216106   3.072   1.730   5.898
  146SAPE   C2216107   2.994   1.620   5.695
  146SAPE   H2R16108   3.065   1.556   5.639
  146SAPE   H2S16109   2.898   1.568   5.692
  146SAPE    C316110   3.206   1.343   5.986
  146SAPE    HX16111   3.256   1.316   6.081
  146SAPE    HY16112   3.289   1.357   5.912
  146SAPE   O3116113   3.119   1.237   5.937
  146SAPE   C3116114   3.052   1.173   6.029
  146SAPE   O3216115   3.057   1.189   6.150
  146SAPE   C3216116   2.937   1.096   5.968
  146SAPE   H2X16117   2.905   1.022   6.044
  146SAPE   H2Y16118   2.974   1.040   5.880
  146SAPE   C2316119   2.978   1.756   5.626
  146SAPE   H3R16120   3.079   1.803   5.623
  146SAPE   H3S16121   2.912   1.824   5.686
  146SAPE   C2416122   2.918   1.737   5.485
  146SAPE   H4R16123   2.809   1.761   5.487
  146SAPE   H4S16124   2.927   1.630   5.458
  146SAPE   C2516125   2.991   1.818   5.381
  146SAPE   H5R16126   3.096   1.836   5.405
  146SAPE   C2616127   2.941   1.866   5.266
  146SAPE   H6R16128   3.010   1.919   5.199
  146SAPE   C2716129   2.801   1.847   5.215
  146SAPE   H7R16130   2.729   1.896   5.285
  146SAPE   H7S16131   2.777   1.738   5.220
  146SAPE   C2816132   2.783   1.902   5.075
  146SAPE   H8R16133   2.802   2.011   5.066
  146SAPE   C2916134   2.740   1.836   4.966
  146SAPE   H9R16135   2.732   1.888   4.870
  146SAPE  C21016136   2.700   1.692   4.955
  146SAPE  H10R16137   2.595   1.687   4.921
  146SAPE  H10S16138   2.703   1.648   5.056
  146SAPE  C21116139   2.782   1.595   4.878
  146SAPE  H11R16140   2.889   1.600   4.902
  146SAPE  C21216141   2.740   1.504   4.789
  146SAPE  H12R16142   2.808   1.422   4.772
  146SAPE  C21316143   2.603   1.470   4.738
  146SAPE  H13R16144   2.541   1.560   4.742
  146SAPE  H13S16145   2.558   1.397   4.810
  146SAPE  C21416146   2.591   1.408   4.599
  146SAPE  H14R16147   2.521   1.324   4.598
  146SAPE  C21516148   2.640   1.444   4.479
  146SAPE  H15R16149   2.618   1.377   4.394
  146SAPE  C21616150   2.725   1.560   4.437
  146SAPE  H16R16151   2.715   1.573   4.327
  146SAPE  H16S16152   2.833   1.541   4.457
  146SAPE  C21716153   2.687   1.695   4.500
  146SAPE  H17R16154   2.741   1.703   4.597
  146SAPE  H17S16155   2.580   1.703   4.523
  146SAPE  C21816156   2.730   1.814   4.414
  146SAPE  H18R16157   2.833   1.800   4.376
  146SAPE  H18S16158   2.731   1.894   4.489
  146SAPE  C21916159   2.638   1.865   4.301
  146SAPE  H19R16160   2.662   1.973   4.286
  146SAPE  H19S16161   2.532   1.861   4.332
  146SAPE  C22016162   2.654   1.797   4.166
  146SAPE  H20R16163   2.617   1.692   4.169
  146SAPE  H20S16164   2.760   1.797   4.133
  146SAPE  H20T16165   2.594   1.854   4.093
  146SAPE   C3316166   2.821   1.193   5.935
  146SAPE   H3X16167   2.845   1.298   5.961
  146SAPE   H3Y16168   2.731   1.164   5.994
  146SAPE   C3416169   2.783   1.193   5.787
  146SAPE   H4X16170   2.704   1.269   5.767
  146SAPE   H4Y16171   2.736   1.095   5.764
  146SAPE   C3516172   2.900   1.215   5.689
  146SAPE   H5X16173   2.996   1.173   5.727
  146SAPE   H5Y16174   2.917   1.323   5.675
  146SAPE   C3616175   2.869   1.143   5.558
  146SAPE   H6X16176   2.758   1.140   5.548
  146SAPE   H6Y16177   2.903   1.038   5.566
  146SAPE   C3716178   2.924   1.209   5.431
  146SAPE   H7X16179   2.917   1.134   5.349
  146SAPE   H7Y16180   3.030   1.235   5.445
  146SAPE   C3816181   2.845   1.336   5.393
  146SAPE   H8X16182   2.879   1.416   5.462
  146SAPE   H8Y16183   2.737   1.317   5.412
  146SAPE   C3916184   2.861   1.384   5.247
  146SAPE   H9X16185   2.835   1.493   5.242
  146SAPE   H9Y16186   2.789   1.331   5.181
  146SAPE  C31016187   3.003   1.360   5.197
  146SAPE  H10X16188   3.020   1.250   5.194
  146SAPE  H10Y16189   3.068   1.404   5.276
  146SAPE  C31116190   3.048   1.416   5.062
  146SAPE  H11X16191   3.160   1.411   5.063
  146SAPE  H11Y16192   3.020   1.523   5.052
  146SAPE  C31216193   3.005   1.333   4.940
  146SAPE  H12X16194   2.895   1.331   4.933
  146SAPE  H12Y16195   3.042   1.229   4.950
  146SAPE  C31316196   3.072   1.388   4.813
  146SAPE  H13X16197   3.181   1.364   4.819
  146SAPE  H13Y16198   3.061   1.499   4.814
  146SAPE  C31416199   3.022   1.340   4.677
  146SAPE  H14X16200   3.084   1.403   4.611
  146SAPE  H14Y16201   2.921   1.368   4.646
  146SAPE  C31516202   3.035   1.192   4.640
  146SAPE  H15X16203   2.958   1.135   4.697
  146SAPE  H15Y16204   3.135   1.154   4.666
  146SAPE  C31616205   3.010   1.177   4.490
  146SAPE  H16X16206   2.903   1.201   4.468
  146SAPE  H16Y16207   3.029   1.073   4.457
  146SAPE  C31716208   3.095   1.275   4.409
  146SAPE  H17X16209   3.198   1.276   4.451
  146SAPE  H17Y16210   3.054   1.378   4.417
  146SAPE  C31816211   3.101   1.243   4.262
  146SAPE  H18X16212   3.136   1.333   4.207
  146SAPE  H18Y16213   3.001   1.215   4.225
  146SAPE  H18Z16214   3.171   1.159   4.243
  147SAPE     N16215   3.988   1.190   6.097
  147SAPE   HN116216   4.031   1.222   6.008
  147SAPE   HN216217   3.883   1.186   6.093
  147SAPE   HN316218   4.019   1.252   6.175
  147SAPE   C1216219   4.039   1.054   6.136
  147SAPE  H12A16220   4.130   1.035   6.076
  147SAPE  H12B16221   3.967   0.976   6.109
  147SAPE   C1116222   4.067   1.055   6.287
  147SAPE  H11A16223   4.129   0.967   6.315
  147SAPE  H11B16224   3.970   1.043   6.341
  147SAPE     P16225   4.282   1.196   6.323
  147SAPE   O1316226   4.313   1.339   6.345
  147SAPE   O1416227   4.337   1.094   6.415
  147SAPE   O1216228   4.125   1.180   6.326
  147SAPE   O1116229   4.302   1.156   6.173
  147SAPE    C116230   4.378   1.041   6.136
  147SAPE    HA16231   4.365   0.953   6.204
  147SAPE    HB16232   4.338   1.010   6.038
  147SAPE    C216233   4.529   1.072   6.119
  147SAPE    HS16234   4.579   1.048   6.215
  147SAPE   O2116235   4.540   1.211   6.085
  147SAPE   C2116236   4.625   1.282   6.156
  147SAPE   O2216237   4.717   1.239   6.224
  147SAPE   C2216238   4.602   1.428   6.131
  147SAPE   H2R16239   4.497   1.448   6.102
  147SAPE   H2S16240   4.620   1.478   6.228
  147SAPE    C316241   4.588   0.985   6.005
  147SAPE    HX16242   4.590   0.878   6.035
  147SAPE    HY16243   4.692   1.017   5.984
  147SAPE   O3116244   4.501   0.999   5.891
  147SAPE   C3116245   4.545   0.955   5.778
  147SAPE   O3216246   4.656   0.909   5.756
  147SAPE   C3216247   4.433   0.969   5.674
  147SAPE   H2X16248   4.465   0.914   5.586
  147SAPE   H2Y16249   4.434   1.072   5.638
  147SAPE   C2316250   4.705   1.476   6.028
  147SAPE   H3R16251   4.805   1.436   6.052
  147SAPE   H3S16252   4.709   1.588   6.037
  147SAPE   C2416253   4.672   1.447   5.880
  147SAPE   H4R16254   4.749   1.507   5.827
  147SAPE   H4S16255   4.574   1.493   5.860
  147SAPE   C2516256   4.683   1.312   5.813
  147SAPE   H5R16257   4.750   1.238   5.858
  147SAPE   C2616258   4.596   1.264   5.723
  147SAPE   H6R16259   4.627   1.174   5.668
  147SAPE   C2716260   4.471   1.330   5.671
  147SAPE   H7R16261   4.437   1.408   5.742
  147SAPE   H7S16262   4.391   1.255   5.683
  147SAPE   C2816263   4.453   1.382   5.532
  147SAPE   H8R16264   4.402   1.480   5.532
  147SAPE   C2916265   4.468   1.321   5.413
  147SAPE   H9R16266   4.439   1.378   5.323
  147SAPE  C21016267   4.509   1.179   5.382
  147SAPE  H10R16268   4.564   1.133   5.467
  147SAPE  H10S16269   4.580   1.178   5.297
  147SAPE  C21116270   4.385   1.099   5.351
  147SAPE  H11R16271   4.363   1.020   5.424
  147SAPE  C21216272   4.311   1.102   5.239
  147SAPE  H12R16273   4.219   1.042   5.234
  147SAPE  C21316274   4.333   1.187   5.116
  147SAPE  H13R16275   4.334   1.295   5.138
  147SAPE  H13S16276   4.250   1.167   5.045
  147SAPE  C21416277   4.464   1.154   5.051
  147SAPE  H14R16278   4.543   1.229   5.062
  147SAPE  C21516279   4.487   1.043   4.981
  147SAPE  H15R16280   4.589   1.020   4.952
  147SAPE  C21616281   4.394   0.931   4.950
  147SAPE  H16R16282   4.307   0.968   4.891
  147SAPE  H16S16283   4.354   0.889   5.045
  147SAPE  C21716284   4.467   0.817   4.876
  147SAPE  H17R16285   4.385   0.754   4.842
  147SAPE  H17S16286   4.530   0.759   4.946
  147SAPE  C21816287   4.536   0.835   4.740
  147SAPE  H18R16288   4.580   0.737   4.713
  147SAPE  H18S16289   4.620   0.904   4.743
  147SAPE  C21916290   4.439   0.875   4.629
  147SAPE  H19R16291   4.382   0.964   4.661
  147SAPE  H19S16292   4.367   0.792   4.622
  147SAPE  C22016293   4.506   0.895   4.492
  147SAPE  H20R16294   4.508   0.995   4.450
  147SAPE  H20S16295   4.463   0.827   4.415
  147SAPE  H20T16296   4.615   0.879   4.505
  147SAPE   C3316297   4.289   0.935   5.723
  147SAPE   H3X16298   4.279   0.953   5.832
  147SAPE   H3Y16299   4.272   0.827   5.706
  147SAPE   C3416300   4.180   1.019   5.652
  147SAPE   H4X16301   4.090   0.956   5.637
  147SAPE   H4Y16302   4.218   1.046   5.552
  147SAPE   C3516303   4.142   1.147   5.728
  147SAPE   H5X16304   4.234   1.187   5.775
  147SAPE   H5Y16305   4.076   1.118   5.813
  147SAPE   C3616306   4.073   1.263   5.650
  147SAPE   H6X16307   4.112   1.359   5.694
  147SAPE   H6Y16308   3.965   1.260   5.672
  147SAPE   C3716309   4.088   1.274   5.497
  147SAPE   H7X16310   4.071   1.175   5.449
  147SAPE   H7Y16311   4.192   1.304   5.471
  147SAPE   C3816312   3.988   1.375   5.435
  147SAPE   H8X16313   4.017   1.477   5.467
  147SAPE   H8Y16314   3.887   1.355   5.476
  147SAPE   C3916315   3.977   1.373   5.281
  147SAPE   H9X16316   3.888   1.432   5.249
  147SAPE   H9Y16317   3.963   1.268   5.245
  147SAPE  C31016318   4.103   1.434   5.218
  147SAPE  H10X16319   4.184   1.363   5.240
  147SAPE  H10Y16320   4.127   1.527   5.274
  147SAPE  C31116321   4.100   1.471   5.068
  147SAPE  H11X16322   4.204   1.502   5.041
  147SAPE  H11Y16323   4.036   1.561   5.055
  147SAPE  C31216324   4.053   1.366   4.966
  147SAPE  H12X16325   3.942   1.372   4.959
  147SAPE  H12Y16326   4.077   1.264   5.001
  147SAPE  C31316327   4.111   1.386   4.823
  147SAPE  H13X16328   4.053   1.322   4.753
  147SAPE  H13Y16329   4.217   1.350   4.821
  147SAPE  C31416330   4.109   1.532   4.774
  147SAPE  H14X16331   4.190   1.588   4.827
  147SAPE  H14Y16332   4.011   1.575   4.805
  147SAPE  C31516333   4.126   1.556   4.623
  147SAPE  H15X16334   4.088   1.655   4.596
  147SAPE  H15Y16335   4.063   1.487   4.564
  147SAPE  C31616336   4.271   1.556   4.572
  147SAPE  H16X16337   4.321   1.465   4.610
  147SAPE  H16Y16338   4.327   1.642   4.615
  147SAPE  C31716339   4.281   1.557   4.419
  147SAPE  H17X16340   4.257   1.658   4.379
  147SAPE  H17Y16341   4.204   1.487   4.379
  147SAPE  C31816342   4.419   1.515   4.367
  147SAPE  H18X16343   4.491   1.598   4.374
  147SAPE  H18Y16344   4.413   1.477   4.263
  147SAPE  H18Z16345   4.460   1.435   4.432
  148SAPE     N16346   1.075   2.698   6.473
  148SAPE   HN116347   1.172   2.669   6.502
  148SAPE   HN216348   1.036   2.768   6.538
  148SAPE   HN316349   1.014   2.614   6.469
  148SAPE   C1216350   1.071   2.745   6.331
  148SAPE  H12A16351   1.164   2.709   6.282
  148SAPE  H12B16352   1.070   2.855   6.329
  148SAPE   C1116353   0.946   2.684   6.264
  148SAPE  H11A16354   0.953   2.696   6.153
  148SAPE  H11B16355   0.856   2.742   6.295
  148SAPE     P16356   0.987   2.427   6.219
  148SAPE   O1316357   0.996   2.308   6.307
  148SAPE   O1416358   0.938   2.416   6.081
  148SAPE   O1216359   0.925   2.547   6.303
  148SAPE   O1116360   1.138   2.474   6.214
  148SAPE    C116361   1.228   2.375   6.166
  148SAPE    HA16362   1.260   2.309   6.250
  148SAPE    HB16363   1.184   2.310   6.086
  148SAPE    C216364   1.350   2.440   6.099
  148SAPE    HS16365   1.402   2.506   6.173
  148SAPE   O2116366   1.304   2.509   5.982
  148SAPE   C2116367   1.274   2.635   6.003
  148SAPE   O2216368   1.312   2.702   6.097
  148SAPE   C2216369   1.184   2.686   5.890
  148SAPE   H2R16370   1.135   2.599   5.841
  148SAPE   H2S16371   1.105   2.748   5.936
  148SAPE    C316372   1.447   2.328   6.058
  148SAPE    HX16373   1.462   2.265   6.149
  148SAPE    HY16374   1.546   2.371   6.033
  148SAPE   O3116375   1.385   2.250   5.953
  148SAPE   C3116376   1.461   2.227   5.846
  148SAPE   O3216377   1.582   2.242   5.842
  148SAPE   C3216378   1.376   2.175   5.731
  148SAPE   H2X16379   1.317   2.088   5.768
  148SAPE   H2Y16380   1.448   2.137   5.655
  148SAPE   C2316381   1.264   2.771   5.788
  148SAPE   H3R16382   1.363   2.723   5.769
  148SAPE   H3S16383   1.284   2.870   5.833
  148SAPE   C2416384   1.197   2.786   5.650
  148SAPE   H4R16385   1.213   2.690   5.594
  148SAPE   H4S16386   1.255   2.863   5.593
  148SAPE   C2516387   1.052   2.826   5.652
  148SAPE   H5R16388   1.023   2.899   5.729
  148SAPE   C2616389   0.959   2.779   5.567
  148SAPE   H6R16390   0.857   2.817   5.576
  148SAPE   C2716391   0.985   2.680   5.456
  148SAPE   H7R16392   0.890   2.636   5.422
  148SAPE   H7S16393   1.040   2.595   5.502
  148SAPE   C2816394   1.058   2.730   5.334
  148SAPE   H8R16395   1.043   2.836   5.307
  148SAPE   C2916396   1.138   2.654   5.258
  148SAPE   H9R16397   1.182   2.698   5.166
  148SAPE  C21016398   1.171   2.509   5.280
  148SAPE  H10R16399   1.122   2.450   5.201
  148SAPE  H10S16400   1.126   2.469   5.373
  148SAPE  C21116401   1.319   2.478   5.279
  148SAPE  H11R16402   1.368   2.478   5.378
  148SAPE  C21216403   1.390   2.448   5.169
  148SAPE  H12R16404   1.498   2.429   5.179
  148SAPE  C21316405   1.331   2.441   5.030
  148SAPE  H13R16406   1.319   2.542   4.987
  148SAPE  H13S16407   1.228   2.401   5.034
  148SAPE  C21416408   1.416   2.364   4.934
  148SAPE  H14R16409   1.525   2.370   4.950
  148SAPE  C21516410   1.369   2.294   4.831
  148SAPE  H15R16411   1.443   2.254   4.760
  148SAPE  C21616412   1.225   2.277   4.789
  148SAPE  H16R16413   1.154   2.332   4.854
  148SAPE  H16S16414   1.195   2.170   4.794
  148SAPE  C21716415   1.210   2.328   4.645
  148SAPE  H17R16416   1.257   2.429   4.637
  148SAPE  H17S16417   1.102   2.340   4.622
  148SAPE  C21816418   1.272   2.233   4.542
  148SAPE  H18R16419   1.225   2.132   4.552
  148SAPE  H18S16420   1.380   2.221   4.563
  148SAPE  C21916421   1.260   2.284   4.399
  148SAPE  H19R16422   1.156   2.319   4.381
  148SAPE  H19S16423   1.281   2.200   4.329
  148SAPE  C22016424   1.360   2.396   4.373
  148SAPE  H20R16425   1.461   2.368   4.408
  148SAPE  H20S16426   1.330   2.489   4.426
  148SAPE  H20T16427   1.367   2.417   4.265
  148SAPE   C3316428   1.283   2.279   5.666
  148SAPE   H3X16429   1.341   2.369   5.634
  148SAPE   H3Y16430   1.206   2.315   5.738
  148SAPE   C3416431   1.215   2.222   5.541
  148SAPE   H4X16432   1.283   2.147   5.494
  148SAPE   H4Y16433   1.200   2.303   5.467
  148SAPE   C3516434   1.079   2.159   5.571
  148SAPE   H5X16435   1.003   2.239   5.588
  148SAPE   H5Y16436   1.087   2.101   5.666
  148SAPE   C3616437   1.034   2.063   5.460
  148SAPE   H6X16438   0.935   2.022   5.488
  148SAPE   H6Y16439   1.106   1.978   5.458
  148SAPE   C3716440   1.022   2.122   5.317
  148SAPE   H7X16441   1.003   2.037   5.248
  148SAPE   H7Y16442   1.118   2.168   5.285
  148SAPE   C3816443   0.905   2.220   5.302
  148SAPE   H8X16444   0.930   2.316   5.352
  148SAPE   H8Y16445   0.820   2.175   5.358
  148SAPE   C3916446   0.854   2.246   5.157
  148SAPE   H9X16447   0.743   2.250   5.165
  148SAPE   H9Y16448   0.877   2.160   5.090
  148SAPE  C31016449   0.898   2.380   5.095
  148SAPE  H10X16450   0.992   2.366   5.036
  148SAPE  H10Y16451   0.921   2.449   5.179
  148SAPE  C31116452   0.792   2.453   5.009
  148SAPE  H11X16453   0.691   2.430   5.049
  148SAPE  H11Y16454   0.797   2.414   4.905
  148SAPE  C31216455   0.809   2.607   5.008
  148SAPE  H12X16456   0.804   2.645   5.112
  148SAPE  H12Y16457   0.723   2.651   4.952
  148SAPE  C31316458   0.940   2.651   4.942
  148SAPE  H13X16459   0.939   2.607   4.839
  148SAPE  H13Y16460   1.026   2.606   4.996
  148SAPE  C31416461   0.962   2.803   4.931
  148SAPE  H14X16462   0.972   2.846   5.033
  148SAPE  H14Y16463   0.874   2.850   4.882
  148SAPE  C31516464   1.089   2.839   4.851
  148SAPE  H15X16465   1.179   2.813   4.911
  148SAPE  H15Y16466   1.091   2.949   4.834
  148SAPE  C31616467   1.099   2.765   4.716
  148SAPE  H16X16468   0.999   2.761   4.667
  148SAPE  H16Y16469   1.130   2.660   4.737
  148SAPE  C31716470   1.201   2.825   4.619
  148SAPE  H17X16471   1.230   2.746   4.545
  148SAPE  H17Y16472   1.292   2.855   4.676
  148SAPE  C31816473   1.150   2.945   4.540
  148SAPE  H18X16474   1.060   2.914   4.482
  148SAPE  H18Y16475   1.223   2.986   4.469
  148SAPE  H18Z16476   1.123   3.026   4.612
  149SAPE     N16477   2.752   0.868   6.473
  149SAPE   HN116478   2.804   0.906   6.392
  149SAPE   HN216479   2.653   0.901   6.468
  149SAPE   HN316480   2.798   0.905   6.560
  149SAPE   C1216481   2.756   0.719   6.459
  149SAPE  H12A16482   2.714   0.676   6.552
  149SAPE  H12B16483   2.862   0.687   6.452
  149SAPE   C1116484   2.677   0.672   6.333
  149SAPE  H11A16485   2.670   0.560   6.339
  149SAPE  H11B16486   2.738   0.698   6.243
  149SAPE     P16487   2.450   0.673   6.205
  149SAPE   O1316488   2.447   0.526   6.218
  149SAPE   O1416489   2.319   0.740   6.214
  149SAPE   O1216490   2.546   0.731   6.322
  149SAPE   O1116491   2.524   0.724   6.073
  149SAPE    C116492   2.479   0.851   6.020
  149SAPE    HA16493   2.375   0.843   5.980
  149SAPE    HB16494   2.478   0.929   6.100
  149SAPE    C216495   2.572   0.908   5.907
  149SAPE    HS16496   2.579   1.018   5.922
  149SAPE   O2116497   2.529   0.878   5.772
  149SAPE   C2116498   2.424   0.944   5.733
  149SAPE   O2216499   2.367   1.031   5.797
  149SAPE   C2216500   2.378   0.890   5.597
  149SAPE   H2R16501   2.442   0.804   5.569
  149SAPE   H2S16502   2.275   0.851   5.613
  149SAPE    C316503   2.714   0.851   5.917
  149SAPE    HX16504   2.750   0.857   6.022
  149SAPE    HY16505   2.783   0.904   5.848
  149SAPE   O3116506   2.699   0.718   5.873
  149SAPE   C3116507   2.796   0.640   5.891
  149SAPE   O3216508   2.904   0.666   5.944
  149SAPE   C3216509   2.758   0.515   5.817
  149SAPE   H2X16510   2.647   0.507   5.811
  149SAPE   H2Y16511   2.795   0.428   5.875
  149SAPE   C2316512   2.374   0.995   5.483
  149SAPE   H3R16513   2.300   1.074   5.508
  149SAPE   H3S16514   2.337   0.945   5.391
  149SAPE   C2416515   2.510   1.060   5.451
  149SAPE   H4R16516   2.540   1.124   5.537
  149SAPE   H4S16517   2.493   1.129   5.365
  149SAPE   C2516518   2.619   0.960   5.420
  149SAPE   H5R16519   2.643   0.891   5.502
  149SAPE   C2616520   2.694   0.952   5.308
  149SAPE   H6R16521   2.772   0.875   5.302
  149SAPE   C2716522   2.685   1.043   5.188
  149SAPE   H7R16523   2.651   1.143   5.224
  149SAPE   H7S16524   2.604   1.007   5.120
  149SAPE   C2816525   2.810   1.071   5.108
  149SAPE   H8R16526   2.801   1.168   5.056
  149SAPE   C2916527   2.927   1.007   5.087
  149SAPE   H9R16528   2.998   1.063   5.026
  149SAPE  C21016529   2.988   0.877   5.133
  149SAPE  H10R16530   2.915   0.795   5.136
  149SAPE  H10S16531   3.028   0.885   5.237
  149SAPE  C21116532   3.099   0.841   5.036
  149SAPE  H11R16533   3.201   0.853   5.077
  149SAPE  C21216534   3.084   0.794   4.910
  149SAPE  H12R16535   3.173   0.783   4.847
  149SAPE  C21316536   2.954   0.767   4.841
  149SAPE  H13R16537   2.870   0.801   4.905
  149SAPE  H13S16538   2.945   0.657   4.835
  149SAPE  C21416539   2.928   0.829   4.706
  149SAPE  H14R16540   2.949   0.937   4.702
  149SAPE  C21516541   2.888   0.769   4.592
  149SAPE  H15R16542   2.876   0.830   4.502
  149SAPE  C21616543   2.860   0.622   4.571
  149SAPE  H16R16544   2.911   0.561   4.648
  149SAPE  H16S16545   2.908   0.597   4.474
  149SAPE  C21716546   2.715   0.568   4.565
  149SAPE  H17R16547   2.647   0.635   4.507
  149SAPE  H17S16548   2.677   0.558   4.668
  149SAPE  C21816549   2.710   0.425   4.508
  149SAPE  H18R16550   2.607   0.385   4.514
  149SAPE  H18S16551   2.770   0.358   4.575
  149SAPE  C21916552   2.766   0.422   4.365
  149SAPE  H19R16553   2.875   0.399   4.373
  149SAPE  H19S16554   2.758   0.525   4.324
  149SAPE  C22016555   2.700   0.328   4.264
  149SAPE  H20R16556   2.595   0.359   4.244
  149SAPE  H20S16557   2.702   0.223   4.298
  149SAPE  H20T16558   2.751   0.332   4.166
  149SAPE   C3316559   2.817   0.521   5.675
  149SAPE   H3X16560   2.813   0.417   5.638
  149SAPE   H3Y16561   2.924   0.551   5.679
  149SAPE   C3416562   2.741   0.605   5.571
  149SAPE   H4X16563   2.730   0.710   5.606
  149SAPE   H4Y16564   2.639   0.562   5.561
  149SAPE   C3516565   2.810   0.598   5.433
  149SAPE   H5X16566   2.868   0.504   5.433
  149SAPE   H5Y16567   2.882   0.683   5.423
  149SAPE   C3616568   2.713   0.588   5.315
  149SAPE   H6X16569   2.649   0.679   5.319
  149SAPE   H6Y16570   2.647   0.500   5.331
  149SAPE   C3716571   2.770   0.572   5.173
  149SAPE   H7X16572   2.757   0.466   5.142
  149SAPE   H7Y16573   2.879   0.591   5.170
  149SAPE   C3816574   2.693   0.661   5.073
  149SAPE   H8X16575   2.745   0.758   5.064
  149SAPE   H8Y16576   2.595   0.686   5.118
  149SAPE   C3916577   2.666   0.606   4.930
  149SAPE   H9X16578   2.646   0.498   4.929
  149SAPE   H9Y16579   2.758   0.616   4.871
  149SAPE  C31016580   2.554   0.685   4.859
  149SAPE  H10X16581   2.454   0.639   4.876
  149SAPE  H10Y16582   2.562   0.682   4.750
  149SAPE  C31116583   2.555   0.831   4.903
  149SAPE  H11X16584   2.660   0.867   4.915
  149SAPE  H11Y16585   2.503   0.839   5.001
  149SAPE  C31216586   2.493   0.928   4.805
  149SAPE  H12X16587   2.512   1.030   4.846
  149SAPE  H12Y16588   2.383   0.912   4.797
  149SAPE  C31316589   2.556   0.928   4.667
  149SAPE  H13X16590   2.523   0.838   4.609
  149SAPE  H13Y16591   2.667   0.926   4.676
  149SAPE  C31416592   2.513   1.055   4.596
  149SAPE  H14X16593   2.572   1.138   4.640
  149SAPE  H14Y16594   2.407   1.070   4.622
  149SAPE  C31516595   2.521   1.052   4.445
  149SAPE  H15X16596   2.496   1.153   4.404
  149SAPE  H15Y16597   2.443   0.981   4.408
  149SAPE  C31616598   2.658   1.006   4.393
  149SAPE  H16X16599   2.684   0.909   4.440
  149SAPE  H16Y16600   2.735   1.080   4.421
  149SAPE  C31716601   2.653   0.988   4.242
  149SAPE  H17X16602   2.644   1.090   4.201
  149SAPE  H17Y16603   2.560   0.932   4.215
  149SAPE  C31816604   2.773   0.917   4.178
  149SAPE  H18X16605   2.868   0.970   4.202
  149SAPE  H18Y16606   2.761   0.914   4.068
  149SAPE  H18Z16607   2.780   0.813   4.215
  150SAPE     N16608   5.909   6.136   6.509
  150SAPE   HN116609   5.817   6.124   6.558
  150SAPE   HN216610   5.893   6.136   6.405
  150SAPE   HN316611   5.976   6.059   6.529
  150SAPE   C1216612   5.974   6.271   6.527
  150SAPE  H12A16613   6.021   6.276   6.627
  150SAPE  H12B16614   5.894   6.348   6.519
  150SAPE   C1116615   6.076   6.292   6.413
  150SAPE  H11A16616   6.173   6.244   6.437
  150SAPE  H11B16617   6.095   6.401   6.399
  150SAPE     P16618   6.086   6.257   6.150
  150SAPE   O1316619   5.984   6.326   6.069
  150SAPE   O1416620   6.221   6.314   6.163
  150SAPE   O1216621   6.023   6.233   6.295
  150SAPE   O1116622   6.098   6.109   6.100
  150SAPE    C116623   6.176   6.017   6.178
  150SAPE    HA16624   6.281   6.053   6.185
  150SAPE    HB16625   6.136   6.008   6.282
  150SAPE    C216626   6.181   5.873   6.118
  150SAPE    HS16627   6.244   5.811   6.185
  150SAPE   O2116628   6.233   5.868   5.983
  150SAPE   C2116629   6.296   5.970   5.929
  150SAPE   O2216630   6.400   6.019   5.970
  150SAPE   C2216631   6.227   6.011   5.798
  150SAPE   H2R16632   6.244   5.933   5.721
  150SAPE   H2S16633   6.120   6.011   5.820
  150SAPE    C316634   6.040   5.803   6.117
  150SAPE    HX16635   6.011   5.781   6.222
  150SAPE    HY16636   6.045   5.704   6.065
  150SAPE   O3116637   5.937   5.887   6.062
  150SAPE   C3116638   5.930   5.889   5.931
  150SAPE   O3216639   6.001   5.827   5.854
  150SAPE   C3216640   5.805   5.970   5.890
  150SAPE   H2X16641   5.739   5.974   5.980
  150SAPE   H2Y16642   5.754   5.907   5.816
  150SAPE   C2316643   6.256   6.156   5.749
  150SAPE   H3R16644   6.345   6.192   5.804
  150SAPE   H3S16645   6.172   6.222   5.779
  150SAPE   C2416646   6.289   6.168   5.598
  150SAPE   H4R16647   6.340   6.074   5.569
  150SAPE   H4S16648   6.365   6.249   5.594
  150SAPE   C2516649   6.187   6.205   5.492
  150SAPE   H5R16650   6.147   6.307   5.499
  150SAPE   C2616651   6.148   6.129   5.387
  150SAPE   H6R16652   6.078   6.173   5.314
  150SAPE   C2716653   6.196   5.989   5.353
  150SAPE   H7R16654   6.224   5.931   5.444
  150SAPE   H7S16655   6.288   5.996   5.292
  150SAPE   C2816656   6.089   5.915   5.276
  150SAPE   H8R16657   6.022   5.852   5.336
  150SAPE   C2916658   6.080   5.906   5.142
  150SAPE   H9R16659   6.002   5.844   5.095
  150SAPE  C21016660   6.180   5.972   5.051
  150SAPE  H10R16661   6.257   5.894   5.038
  150SAPE  H10S16662   6.229   6.057   5.103
  150SAPE  C21116663   6.144   6.013   4.911
  150SAPE  H11R16664   6.060   5.959   4.864
  150SAPE  C21216665   6.210   6.106   4.839
  150SAPE  H12R16666   6.178   6.128   4.737
  150SAPE  C21316667   6.331   6.186   4.885
  150SAPE  H13R16668   6.372   6.151   4.982
  150SAPE  H13S16669   6.296   6.289   4.904
  150SAPE  C21416670   6.443   6.192   4.785
  150SAPE  H14R16671   6.526   6.121   4.802
  150SAPE  C21516672   6.450   6.278   4.682
  150SAPE  H15R16673   6.537   6.274   4.614
  150SAPE  C21616674   6.346   6.382   4.651
  150SAPE  H16R16675   6.378   6.477   4.698
  150SAPE  H16S16676   6.248   6.360   4.699
  150SAPE  C21716677   6.323   6.402   4.500
  150SAPE  H17R16678   6.419   6.404   4.444
  150SAPE  H17S16679   6.275   6.501   4.485
  150SAPE  C21816680   6.231   6.291   4.447
  150SAPE  H18R16681   6.160   6.263   4.528
  150SAPE  H18S16682   6.292   6.201   4.424
  150SAPE  C21916683   6.146   6.330   4.325
  150SAPE  H19R16684   6.099   6.237   4.287
  150SAPE  H19S16685   6.211   6.369   4.244
  150SAPE  C22016686   6.036   6.431   4.357
  150SAPE  H20R16687   6.078   6.533   4.368
  150SAPE  H20S16688   5.985   6.405   4.452
  150SAPE  H20T16689   5.960   6.433   4.276
  150SAPE   C3316690   5.819   6.116   5.835
  150SAPE   H3X16691   5.868   6.177   5.913
  150SAPE   H3Y16692   5.715   6.155   5.823
  150SAPE   C3416693   5.893   6.143   5.702
  150SAPE   H4X16694   5.996   6.106   5.709
  150SAPE   H4Y16695   5.901   6.254   5.689
  150SAPE   C3516696   5.835   6.086   5.572
  150SAPE   H5X16697   5.814   5.979   5.585
  150SAPE   H5Y16698   5.913   6.093   5.493
  150SAPE   C3616699   5.715   6.165   5.522
  150SAPE   H6X16700   5.750   6.265   5.487
  150SAPE   H6Y16701   5.648   6.182   5.609
  150SAPE   C3716702   5.638   6.096   5.407
  150SAPE   H7X16703   5.565   6.167   5.365
  150SAPE   H7Y16704   5.579   6.012   5.447
  150SAPE   C3816705   5.726   6.044   5.292
  150SAPE   H8X16706   5.665   5.975   5.230
  150SAPE   H8Y16707   5.811   5.984   5.331
  150SAPE   C3916708   5.775   6.161   5.207
  150SAPE   H9X16709   5.878   6.189   5.237
  150SAPE   H9Y16710   5.710   6.249   5.227
  150SAPE  C31016711   5.769   6.137   5.055
  150SAPE  H10X16712   5.664   6.116   5.026
  150SAPE  H10Y16713   5.831   6.050   5.026
  150SAPE  C31116714   5.818   6.263   4.983
  150SAPE  H11X16715   5.929   6.265   4.994
  150SAPE  H11Y16716   5.776   6.351   5.035
  150SAPE  C31216717   5.785   6.272   4.834
  150SAPE  H12X16718   5.788   6.378   4.801
  150SAPE  H12Y16719   5.682   6.233   4.816
  150SAPE  C31316720   5.888   6.195   4.753
  150SAPE  H13X16721   5.903   6.097   4.804
  150SAPE  H13Y16722   5.985   6.249   4.755
  150SAPE  C31416723   5.846   6.167   4.610
  150SAPE  H14X16724   5.851   6.260   4.549
  150SAPE  H14Y16725   5.740   6.131   4.609
  150SAPE  C31516726   5.934   6.058   4.549
  150SAPE  H15X16727   5.918   5.966   4.610
  150SAPE  H15Y16728   6.042   6.084   4.558
  150SAPE  C31616729   5.899   6.030   4.403
  150SAPE  H16X16730   5.952   6.098   4.335
  150SAPE  H16Y16731   5.790   6.048   4.390
  150SAPE  C31716732   5.925   5.885   4.365
  150SAPE  H17X16733   5.904   5.822   4.455
  150SAPE  H17Y16734   6.033   5.870   4.340
  150SAPE  C31816735   5.835   5.838   4.252
  150SAPE  H18X16736   5.858   5.733   4.224
  150SAPE  H18Y16737   5.845   5.901   4.161
  150SAPE  H18Z16738   5.729   5.841   4.285
  151SAPE     N16739   5.638   0.935   6.180
  151SAPE   HN116740   5.713   0.999   6.147
  151SAPE   HN216741   5.617   0.866   6.105
  151SAPE   HN316742   5.549   0.986   6.197
  151SAPE   C1216743   5.673   0.856   6.306
  151SAPE  H12A16744   5.716   0.925   6.381
  151SAPE  H12B16745   5.748   0.780   6.278
  151SAPE   C1116746   5.547   0.787   6.360
  151SAPE  H11A16747   5.476   0.862   6.401
  151SAPE  H11B16748   5.573   0.718   6.444
  151SAPE     P16749   5.429   0.573   6.255
  151SAPE   O1316750   5.400   0.530   6.393
  151SAPE   O1416751   5.322   0.567   6.154
  151SAPE   O1216752   5.484   0.721   6.252
  151SAPE   O1116753   5.556   0.493   6.205
  151SAPE    C116754   5.653   0.445   6.297
  151SAPE    HA16755   5.703   0.533   6.345
  151SAPE    HB16756   5.606   0.382   6.376
  151SAPE    C216757   5.767   0.360   6.232
  151SAPE    HS16758   5.853   0.357   6.303
  151SAPE   O2116759   5.806   0.413   6.107
  151SAPE   C2116760   5.878   0.518   6.107
  151SAPE   O2216761   5.910   0.589   6.202
  151SAPE   C2216762   5.916   0.546   5.962
  151SAPE   H2R16763   6.027   0.549   5.957
  151SAPE   H2S16764   5.881   0.463   5.897
  151SAPE    C316765   5.729   0.213   6.204
  151SAPE    HX16766   5.713   0.161   6.301
  151SAPE    HY16767   5.815   0.164   6.153
  151SAPE   O3116768   5.609   0.205   6.126
  151SAPE   C3116769   5.625   0.214   5.994
  151SAPE   O3216770   5.731   0.210   5.934
  151SAPE   C3216771   5.491   0.224   5.922
  151SAPE   H2X16772   5.439   0.127   5.928
  151SAPE   H2Y16773   5.515   0.245   5.816
  151SAPE   C2316774   5.856   0.680   5.916
  151SAPE   H3R16775   5.894   0.703   5.813
  151SAPE   H3S16776   5.893   0.761   5.983
  151SAPE   C2416777   5.702   0.680   5.914
  151SAPE   H4R16778   5.666   0.784   5.910
  151SAPE   H4S16779   5.661   0.634   6.007
  151SAPE   C2516780   5.651   0.604   5.796
  151SAPE   H5R16781   5.714   0.522   5.758
  151SAPE   C2616782   5.535   0.629   5.736
  151SAPE   H6R16783   5.510   0.568   5.648
  151SAPE   C2716784   5.430   0.733   5.769
  151SAPE   H7R16785   5.420   0.741   5.879
  151SAPE   H7S16786   5.332   0.695   5.734
  151SAPE   C2816787   5.444   0.870   5.708
  151SAPE   H8R16788   5.431   0.953   5.778
  151SAPE   C2916789   5.475   0.898   5.580
  151SAPE   H9R16790   5.481   1.004   5.550
  151SAPE  C21016791   5.504   0.801   5.468
  151SAPE  H10R16792   5.524   0.699   5.503
  151SAPE  H10S16793   5.601   0.829   5.424
  151SAPE  C21116794   5.396   0.785   5.365
  151SAPE  H11R16795   5.296   0.759   5.402
  151SAPE  C21216796   5.416   0.807   5.234
  151SAPE  H12R16797   5.335   0.788   5.163
  151SAPE  C21316798   5.548   0.851   5.174
  151SAPE  H13R16799   5.600   0.919   5.243
  151SAPE  H13S16800   5.528   0.916   5.088
  151SAPE  C21416801   5.642   0.739   5.139
  151SAPE  H14R16802   5.723   0.718   5.210
  151SAPE  C21516803   5.635   0.667   5.026
  151SAPE  H15R16804   5.712   0.591   5.006
  151SAPE  C21616805   5.534   0.685   4.917
  151SAPE  H16R16806   5.431   0.675   4.955
  151SAPE  H16S16807   5.552   0.598   4.851
  151SAPE  C21716808   5.543   0.813   4.831
  151SAPE  H17R16809   5.649   0.828   4.798
  151SAPE  H17S16810   5.515   0.903   4.889
  151SAPE  C21816811   5.453   0.805   4.707
  151SAPE  H18R16812   5.470   0.893   4.642
  151SAPE  H18S16813   5.347   0.807   4.740
  151SAPE  C21916814   5.477   0.674   4.631
  151SAPE  H19R16815   5.412   0.597   4.679
  151SAPE  H19S16816   5.583   0.642   4.647
  151SAPE  C22016817   5.451   0.678   4.482
  151SAPE  H20R16818   5.371   0.751   4.458
  151SAPE  H20S16819   5.420   0.577   4.447
  151SAPE  H20T16820   5.544   0.706   4.428
  151SAPE   C3316821   5.402   0.335   5.980
  151SAPE   H3X16822   5.448   0.435   5.960
  151SAPE   H3Y16823   5.394   0.325   6.091
  151SAPE   C3416824   5.259   0.339   5.927
  151SAPE   H4X16825   5.229   0.442   5.955
  151SAPE   H4Y16826   5.195   0.268   5.985
  151SAPE   C3516827   5.240   0.312   5.776
  151SAPE   H5X16828   5.133   0.317   5.749
  151SAPE   H5Y16829   5.273   0.209   5.769
  151SAPE   C3616830   5.325   0.400   5.684
  151SAPE   H6X16831   5.429   0.399   5.721
  151SAPE   H6Y16832   5.284   0.502   5.699
  151SAPE   C3716833   5.331   0.375   5.531
  151SAPE   H7X16834   5.332   0.476   5.483
  151SAPE   H7Y16835   5.240   0.323   5.496
  151SAPE   C3816836   5.459   0.305   5.479
  151SAPE   H8X16837   5.469   0.206   5.527
  151SAPE   H8Y16838   5.549   0.364   5.509
  151SAPE   C3916839   5.459   0.288   5.326
  151SAPE   H9X16840   5.481   0.386   5.278
  151SAPE   H9Y16841   5.357   0.258   5.296
  151SAPE  C31016842   5.556   0.181   5.269
  151SAPE  H10X16843   5.547   0.089   5.331
  151SAPE  H10Y16844   5.661   0.216   5.279
  151SAPE  C31116845   5.528   0.138   5.122
  151SAPE  H11X16846   5.428   0.088   5.119
  151SAPE  H11Y16847   5.603   0.062   5.093
  151SAPE  C31216848   5.530   0.254   5.020
  151SAPE  H12X16849   5.629   0.304   5.026
  151SAPE  H12Y16850   5.453   0.329   5.050
  151SAPE  C31316851   5.503   0.216   4.871
  151SAPE  H13X16852   5.402   0.170   4.862
  151SAPE  H13Y16853   5.575   0.142   4.835
  151SAPE  C31416854   5.513   0.337   4.776
  151SAPE  H14X16855   5.609   0.390   4.795
  151SAPE  H14Y16856   5.432   0.407   4.802
  151SAPE  C31516857   5.504   0.306   4.624
  151SAPE  H15X16858   5.460   0.395   4.574
  151SAPE  H15Y16859   5.433   0.222   4.607
  151SAPE  C31616860   5.640   0.278   4.558
  151SAPE  H16X16861   5.675   0.177   4.587
  151SAPE  H16Y16862   5.714   0.349   4.600
  151SAPE  C31716863   5.649   0.293   4.405
  151SAPE  H17X16864   5.738   0.235   4.371
  151SAPE  H17Y16865   5.670   0.400   4.380
  151SAPE  C31816866   5.527   0.247   4.326
  151SAPE  H18X16867   5.544   0.261   4.217
  151SAPE  H18Y16868   5.438   0.306   4.356
  151SAPE  H18Z16869   5.506   0.140   4.344
  152SAPE     N16870   0.063   4.592   6.462
  152SAPE   HN116871   0.029   4.544   6.548
  152SAPE   HN216872   0.001   4.672   6.442
  152SAPE   HN316873   0.061   4.522   6.382
  152SAPE   C1216874   0.206   4.637   6.480
  152SAPE  H12A16875   0.259   4.560   6.541
  152SAPE  H12B16876   0.204   4.732   6.536
  152SAPE   C1116877   0.281   4.657   6.346
  152SAPE  H11A16878   0.370   4.720   6.366
  152SAPE  H11B16879   0.217   4.716   6.276
  152SAPE     P16880   0.236   4.456   6.182
  152SAPE   O1316881   0.312   4.347   6.118
  152SAPE   O1416882   0.111   4.423   6.255
  152SAPE   O1216883   0.327   4.533   6.288
  152SAPE   O1116884   0.210   4.572   6.078
  152SAPE    C116885   0.319   4.653   6.033
  152SAPE    HA16886   0.319   4.752   6.084
  152SAPE    HB16887   0.420   4.609   6.056
  152SAPE    C216888   0.312   4.669   5.879
  152SAPE    HS16889   0.400   4.729   5.845
  152SAPE   O2116890   0.190   4.729   5.831
  152SAPE   C2116891   0.167   4.849   5.876
  152SAPE   O2216892   0.240   4.918   5.946
  152SAPE   C2216893   0.035   4.904   5.820
  152SAPE   H2R16894  -0.037   4.820   5.807
  152SAPE   H2S16895  -0.005   4.974   5.896
  152SAPE    C316896   0.324   4.528   5.816
  152SAPE    HX16897   0.224   4.480   5.830
  152SAPE    HY16898   0.397   4.469   5.875
  152SAPE   O3116899   0.369   4.537   5.679
  152SAPE   C3116900   0.300   4.464   5.592
  152SAPE   O3216901   0.207   4.391   5.620
  152SAPE   C3216902   0.352   4.493   5.450
  152SAPE   H2X16903   0.462   4.508   5.458
  152SAPE   H2Y16904   0.306   4.588   5.417
  152SAPE   C2316905   0.054   4.980   5.686
  152SAPE   H3R16906   0.162   5.002   5.669
  152SAPE   H3S16907   0.000   5.078   5.691
  152SAPE   C2416908   0.002   4.899   5.566
  152SAPE   H4R16909  -0.103   4.871   5.584
  152SAPE   H4S16910   0.058   4.803   5.563
  152SAPE   C2516911   0.005   4.972   5.435
  152SAPE   H5R16912  -0.075   5.046   5.419
  152SAPE   C2616913   0.098   4.959   5.339
  152SAPE   H6R16914   0.087   5.019   5.247
  152SAPE   C2716915   0.220   4.870   5.341
  152SAPE   H7R16916   0.208   4.788   5.266
  152SAPE   H7S16917   0.234   4.820   5.439
  152SAPE   C2816918   0.335   4.962   5.310
  152SAPE   H8R16919   0.377   5.013   5.399
  152SAPE   C2916920   0.396   4.981   5.191
  152SAPE   H9R16921   0.485   5.046   5.188
  152SAPE  C21016922   0.363   4.914   5.059
  152SAPE  H10R16923   0.325   4.814   5.089
  152SAPE  H10S16924   0.463   4.899   5.013
  152SAPE  C21116925   0.281   4.958   4.939
  152SAPE  H11R16926   0.278   5.065   4.914
  152SAPE  C21216927   0.219   4.870   4.857
  152SAPE  H12R16928   0.165   4.911   4.769
  152SAPE  C21316929   0.218   4.718   4.867
  152SAPE  H13R16930   0.164   4.676   4.780
  152SAPE  H13S16931   0.154   4.693   4.955
  152SAPE  C21416932   0.348   4.644   4.885
  152SAPE  H14R16933   0.398   4.667   4.980
  152SAPE  C21516934   0.403   4.546   4.812
  152SAPE  H15R16935   0.501   4.507   4.844
  152SAPE  C21616936   0.350   4.481   4.687
  152SAPE  H16R16937   0.239   4.489   4.683
  152SAPE  H16S16938   0.375   4.372   4.688
  152SAPE  C21716939   0.399   4.541   4.557
  152SAPE  H17R16940   0.412   4.461   4.482
  152SAPE  H17S16941   0.498   4.585   4.571
  152SAPE  C21816942   0.303   4.650   4.511
  152SAPE  H18R16943   0.262   4.701   4.601
  152SAPE  H18S16944   0.214   4.608   4.459
  152SAPE  C21916945   0.365   4.760   4.427
  152SAPE  H19R16946   0.397   4.725   4.327
  152SAPE  H19S16947   0.455   4.800   4.478
  152SAPE  C22016948   0.256   4.865   4.415
  152SAPE  H20R16949   0.287   4.951   4.352
  152SAPE  H20S16950   0.225   4.902   4.515
  152SAPE  H20T16951   0.167   4.816   4.371
  152SAPE   C3316952   0.325   4.381   5.345
  152SAPE   H3X16953   0.218   4.352   5.349
  152SAPE   H3Y16954   0.385   4.292   5.372
  152SAPE   C3416955   0.362   4.423   5.201
  152SAPE   H4X16956   0.468   4.456   5.202
  152SAPE   H4Y16957   0.302   4.510   5.169
  152SAPE   C3516958   0.354   4.312   5.094
  152SAPE   H5X16959   0.428   4.233   5.124
  152SAPE   H5Y16960   0.387   4.351   4.996
  152SAPE   C3616961   0.217   4.244   5.077
  152SAPE   H6X16962   0.176   4.227   5.179
  152SAPE   H6Y16963   0.232   4.146   5.028
  152SAPE   C3716964   0.108   4.319   4.999
  152SAPE   H7X16965   0.120   4.423   5.033
  152SAPE   H7Y16966   0.007   4.280   5.025
  152SAPE   C3816967   0.124   4.331   4.849
  152SAPE   H8X16968   0.229   4.307   4.825
  152SAPE   H8Y16969   0.108   4.439   4.827
  152SAPE   C3916970   0.029   4.256   4.755
  152SAPE   H9X16971  -0.077   4.270   4.787
  152SAPE   H9Y16972   0.051   4.147   4.756
  152SAPE  C31016973   0.047   4.314   4.613
  152SAPE  H10X16974   0.155   4.316   4.589
  152SAPE  H10Y16975   0.016   4.420   4.610
  152SAPE  C31116976  -0.025   4.236   4.503
  152SAPE  H11X16977  -0.121   4.196   4.540
  152SAPE  H11Y16978   0.040   4.150   4.482
  152SAPE  C31216979  -0.043   4.317   4.374
  152SAPE  H12X16980   0.046   4.382   4.365
  152SAPE  H12Y16981  -0.131   4.383   4.383
  152SAPE  C31316982  -0.049   4.233   4.244
  152SAPE  H13X16983  -0.130   4.158   4.246
  152SAPE  H13Y16984   0.046   4.175   4.240
  152SAPE  C31416985  -0.056   4.318   4.116
  152SAPE  H14X16986  -0.063   4.426   4.143
  152SAPE  H14Y16987  -0.148   4.291   4.060
  152SAPE  C31516988   0.066   4.294   4.025
  152SAPE  H15X16989   0.068   4.187   4.005
  152SAPE  H15Y16990   0.161   4.309   4.078
  152SAPE  C31616991   0.076   4.373   3.894
  152SAPE  H16X16992  -0.021   4.386   3.844
  152SAPE  H16Y16993   0.139   4.310   3.826
  152SAPE  C31716994   0.153   4.505   3.909
  152SAPE  H17X16995   0.216   4.499   4.000
  152SAPE  H17Y16996   0.082   4.589   3.927
  152SAPE  C31816997   0.245   4.534   3.791
  152SAPE  H18X16998   0.299   4.442   3.760
  152SAPE  H18Y16999   0.322   4.610   3.817
  152SAPE  H18Z17000   0.186   4.570   3.704
  153SAPE     N17001   0.154   5.310   6.202
  153SAPE   HN117002   0.168   5.224   6.145
  153SAPE   HN217003   0.052   5.313   6.232
  153SAPE   HN317004   0.166   5.392   6.137
  153SAPE   C1217005   0.254   5.328   6.312
  153SAPE  H12A17006   0.218   5.274   6.402
  153SAPE  H12B17007   0.259   5.437   6.334
  153SAPE   C1117008   0.393   5.278   6.269
  153SAPE  H11A17009   0.418   5.309   6.165
  153SAPE  H11B17010   0.394   5.167   6.270
  153SAPE     P17011   0.569   5.461   6.344
  153SAPE   O1317012   0.493   5.574   6.402
  153SAPE   O1417013   0.709   5.442   6.389
  153SAPE   O1217014   0.491   5.324   6.362
  153SAPE   O1117015   0.572   5.482   6.188
  153SAPE    C117016   0.488   5.581   6.129
  153SAPE    HA17017   0.385   5.580   6.171
  153SAPE    HB17018   0.528   5.683   6.148
  153SAPE    C217019   0.485   5.566   5.974
  153SAPE    HS17020   0.424   5.651   5.936
  153SAPE   O2117021   0.431   5.444   5.922
  153SAPE   C2117022   0.303   5.429   5.938
  153SAPE   O2217023   0.234   5.487   6.021
  153SAPE   C2217024   0.245   5.328   5.840
  153SAPE   H2R17025   0.276   5.225   5.867
  153SAPE   H2S17026   0.135   5.336   5.851
  153SAPE    C317027   0.628   5.582   5.917
  153SAPE    HX17028   0.684   5.486   5.930
  153SAPE    HY17029   0.682   5.657   5.979
  153SAPE   O3117030   0.625   5.629   5.781
  153SAPE   C3117031   0.615   5.532   5.689
  153SAPE   O3217032   0.609   5.413   5.711
  153SAPE   C3217033   0.632   5.590   5.549
  153SAPE   H2X17034   0.735   5.564   5.518
  153SAPE   H2Y17035   0.626   5.700   5.554
  153SAPE   C2317036   0.289   5.361   5.696
  153SAPE   H3R17037   0.391   5.320   5.681
  153SAPE   H3S17038   0.295   5.471   5.680
  153SAPE   C2417039   0.197   5.302   5.589
  153SAPE   H4R17040   0.189   5.193   5.602
  153SAPE   H4S17041   0.248   5.316   5.491
  153SAPE   C2517042   0.062   5.370   5.597
  153SAPE   H5R17043   0.008   5.361   5.692
  153SAPE   C2617044  -0.002   5.429   5.495
  153SAPE   H6R17045  -0.102   5.471   5.508
  153SAPE   C2717046   0.052   5.434   5.355
  153SAPE   H7R17047   0.163   5.439   5.353
  153SAPE   H7S17048   0.016   5.525   5.301
  153SAPE   C2817049   0.005   5.307   5.289
  153SAPE   H8R17050  -0.068   5.245   5.343
  153SAPE   C2917051   0.045   5.266   5.169
  153SAPE   H9R17052   0.001   5.177   5.122
  153SAPE  C21017053   0.140   5.346   5.087
  153SAPE  H10R17054   0.161   5.447   5.129
  153SAPE  H10S17055   0.076   5.362   5.000
  153SAPE  C21117056   0.272   5.287   5.046
  153SAPE  H11R17057   0.307   5.199   5.101
  153SAPE  C21217058   0.348   5.342   4.949
  153SAPE  H12R17059   0.445   5.299   4.923
  153SAPE  C21317060   0.309   5.467   4.873
  153SAPE  H13R17061   0.380   5.485   4.791
  153SAPE  H13S17062   0.325   5.552   4.943
  153SAPE  C21417063   0.169   5.478   4.817
  153SAPE  H14R17064   0.104   5.545   4.875
  153SAPE  C21517065   0.106   5.402   4.726
  153SAPE  H15R17066  -0.001   5.423   4.708
  153SAPE  C21617067   0.158   5.283   4.652
  153SAPE  H16R17068   0.090   5.260   4.567
  153SAPE  H16S17069   0.151   5.197   4.723
  153SAPE  C21717070   0.301   5.284   4.597
  153SAPE  H17R17071   0.372   5.320   4.673
  153SAPE  H17S17072   0.309   5.351   4.508
  153SAPE  C21817073   0.334   5.139   4.563
  153SAPE  H18R17074   0.261   5.112   4.485
  153SAPE  H18S17075   0.315   5.077   4.654
  153SAPE  C21917076   0.475   5.106   4.514
  153SAPE  H19R17077   0.481   4.997   4.500
  153SAPE  H19S17078   0.550   5.128   4.593
  153SAPE  C22017079   0.510   5.173   4.382
  153SAPE  H20R17080   0.616   5.152   4.356
  153SAPE  H20S17081   0.495   5.283   4.389
  153SAPE  H20T17082   0.445   5.134   4.301
  153SAPE   C3317083   0.534   5.532   5.442
  153SAPE   H3X17084   0.457   5.468   5.490
  153SAPE   H3Y17085   0.592   5.465   5.374
  153SAPE   C3417086   0.462   5.638   5.358
  153SAPE   H4X17087   0.390   5.691   5.425
  153SAPE   H4Y17088   0.400   5.588   5.280
  153SAPE   C3517089   0.551   5.745   5.292
  153SAPE   H5X17090   0.623   5.788   5.364
  153SAPE   H5Y17091   0.482   5.827   5.261
  153SAPE   C3617092   0.625   5.703   5.164
  153SAPE   H6X17093   0.564   5.631   5.107
  153SAPE   H6Y17094   0.720   5.655   5.194
  153SAPE   C3717095   0.659   5.823   5.072
  153SAPE   H7X17096   0.701   5.904   5.135
  153SAPE   H7Y17097   0.565   5.861   5.027
  153SAPE   C3817098   0.760   5.783   4.963
  153SAPE   H8X17099   0.757   5.672   4.953
  153SAPE   H8Y17100   0.862   5.810   4.997
  153SAPE   C3917101   0.735   5.840   4.822
  153SAPE   H9X17102   0.726   5.950   4.826
  153SAPE   H9Y17103   0.638   5.799   4.786
  153SAPE  C31017104   0.846   5.802   4.722
  153SAPE  H10X17105   0.878   5.699   4.747
  153SAPE  H10Y17106   0.935   5.867   4.739
  153SAPE  C31117107   0.804   5.806   4.572
  153SAPE  H11X17108   0.828   5.907   4.530
  153SAPE  H11Y17109   0.694   5.795   4.567
  153SAPE  C31217110   0.873   5.698   4.485
  153SAPE  H12X17111   0.908   5.616   4.553
  153SAPE  H12Y17112   0.964   5.743   4.444
  153SAPE  C31317113   0.793   5.628   4.369
  153SAPE  H13X17114   0.763   5.528   4.406
  153SAPE  H13Y17115   0.862   5.605   4.286
  153SAPE  C31417116   0.665   5.699   4.319
  153SAPE  H14X17117   0.684   5.808   4.312
  153SAPE  H14Y17118   0.589   5.686   4.399
  153SAPE  C31517119   0.600   5.648   4.187
  153SAPE  H15X17120   0.564   5.544   4.201
  153SAPE  H15Y17121   0.673   5.647   4.103
  153SAPE  C31617122   0.479   5.732   4.144
  153SAPE  H16X17123   0.420   5.680   4.065
  153SAPE  H16Y17124   0.509   5.829   4.099
  153SAPE  C31717125   0.388   5.759   4.263
  153SAPE  H17X17126   0.441   5.822   4.339
  153SAPE  H17Y17127   0.366   5.661   4.311
  153SAPE  C31817128   0.258   5.827   4.228
  153SAPE  H18X17129   0.194   5.760   4.168
  153SAPE  H18Y17130   0.270   5.925   4.177
  153SAPE  H18Z17131   0.208   5.849   4.323
  154SAPE     N17132   0.618   5.837   6.348
  154SAPE   HN117133   0.652   5.801   6.257
  154SAPE   HN217134   0.685   5.811   6.424
  154SAPE   HN317135   0.527   5.788   6.370
  154SAPE   C1217136   0.608   5.989   6.346
  154SAPE  H12A17137   0.641   6.026   6.445
  154SAPE  H12B17138   0.502   6.018   6.329
  154SAPE   C1117139   0.699   6.049   6.236
  154SAPE  H11A17140   0.657   6.027   6.135
  154SAPE  H11B17141   0.798   5.998   6.241
  154SAPE     P17142   0.621   6.303   6.275
  154SAPE   O1317143   0.602   6.316   6.421
  154SAPE   O1417144   0.662   6.425   6.202
  154SAPE   O1217145   0.726   6.188   6.251
  154SAPE   O1117146   0.489   6.243   6.214
  154SAPE    C117147   0.397   6.323   6.138
  154SAPE    HA17148   0.338   6.389   6.205
  154SAPE    HB17149   0.452   6.387   6.065
  154SAPE    C217150   0.297   6.240   6.053
  154SAPE    HS17151   0.240   6.170   6.119
  154SAPE   O2117152   0.366   6.170   5.951
  154SAPE   C2117153   0.422   6.060   5.988
  154SAPE   O2217154   0.407   6.000   6.093
  154SAPE   C2217155   0.505   6.009   5.872
  154SAPE   H2R17156   0.528   6.097   5.808
  154SAPE   H2S17157   0.602   5.969   5.911
  154SAPE    C317158   0.194   6.330   5.982
  154SAPE    HX17159   0.128   6.375   6.060
  154SAPE    HY17160   0.131   6.267   5.915
  154SAPE   O3117161   0.263   6.436   5.912
  154SAPE   C3117162   0.287   6.422   5.783
  154SAPE   O3217163   0.241   6.339   5.708
  154SAPE   C3217164   0.376   6.537   5.735
  154SAPE   H2X17165   0.325   6.632   5.758
  154SAPE   H2Y17166   0.385   6.527   5.624
  154SAPE   C2317167   0.429   5.895   5.798
  154SAPE   H3R17168   0.322   5.894   5.828
  154SAPE   H3S17169   0.474   5.803   5.837
  154SAPE   C2417170   0.436   5.884   5.645
  154SAPE   H4R17171   0.348   5.929   5.596
  154SAPE   H4S17172   0.437   5.777   5.617
  154SAPE   C2517173   0.560   5.956   5.606
  154SAPE   H5R17174   0.645   5.945   5.674
  154SAPE   C2617175   0.576   6.028   5.496
  154SAPE   H6R17176   0.647   6.107   5.509
  154SAPE   C2717177   0.481   6.054   5.385
  154SAPE   H7R17178   0.397   5.982   5.385
  154SAPE   H7S17179   0.535   6.030   5.292
  154SAPE   C2817180   0.429   6.194   5.379
  154SAPE   H8R17181   0.451   6.264   5.461
  154SAPE   C2917182   0.350   6.230   5.279
  154SAPE   H9R17183   0.304   6.329   5.278
  154SAPE  C21017184   0.308   6.138   5.168
  154SAPE  H10R17185   0.383   6.061   5.139
  154SAPE  H10S17186   0.297   6.206   5.083
  154SAPE  C21117187   0.175   6.076   5.207
  154SAPE  H11R17188   0.107   6.153   5.247
  154SAPE  C21217189   0.127   5.951   5.211
  154SAPE  H12R17190   0.028   5.940   5.257
  154SAPE  C21317191   0.187   5.817   5.179
  154SAPE  H13R17192   0.110   5.740   5.201
  154SAPE  H13S17193   0.267   5.797   5.253
  154SAPE  C21417194   0.240   5.793   5.041
  154SAPE  H14R17195   0.350   5.800   5.034
  154SAPE  C21517196   0.172   5.784   4.926
  154SAPE  H15R17197   0.233   5.771   4.836
  154SAPE  C21617198   0.024   5.797   4.898
  154SAPE  H16R17199  -0.030   5.792   4.994
  154SAPE  H16S17200  -0.020   5.717   4.835
  154SAPE  C21717201   0.005   5.937   4.836
  154SAPE  H17R17202   0.104   5.979   4.814
  154SAPE  H17S17203  -0.035   6.002   4.917
  154SAPE  C21817204  -0.071   5.966   4.704
  154SAPE  H18R17205  -0.160   6.018   4.742
  154SAPE  H18S17206  -0.111   5.880   4.649
  154SAPE  C21917207  -0.003   6.072   4.611
  154SAPE  H19R17208   0.099   6.090   4.647
  154SAPE  H19S17209  -0.061   6.167   4.618
  154SAPE  C22017210   0.033   6.043   4.466
  154SAPE  H20R17211   0.115   5.976   4.451
  154SAPE  H20S17212   0.071   6.137   4.421
  154SAPE  H20T17213  -0.048   5.995   4.410
  154SAPE   C3317214   0.516   6.535   5.800
  154SAPE   H3X17215   0.506   6.554   5.910
  154SAPE   H3Y17216   0.577   6.618   5.758
  154SAPE   C3417217   0.593   6.405   5.781
  154SAPE   H4X17218   0.613   6.386   5.673
  154SAPE   H4Y17219   0.531   6.320   5.819
  154SAPE   C3517220   0.725   6.405   5.860
  154SAPE   H5X17221   0.704   6.441   5.964
  154SAPE   H5Y17222   0.797   6.477   5.815
  154SAPE   C3617223   0.788   6.265   5.872
  154SAPE   H6X17224   0.718   6.199   5.928
  154SAPE   H6Y17225   0.881   6.272   5.933
  154SAPE   C3717226   0.819   6.200   5.735
  154SAPE   H7X17227   0.722   6.185   5.684
  154SAPE   H7Y17228   0.864   6.100   5.752
  154SAPE   C3817229   0.911   6.288   5.648
  154SAPE   H8X17230   1.000   6.317   5.707
  154SAPE   H8Y17231   0.856   6.382   5.623
  154SAPE   C3917232   0.959   6.229   5.513
  154SAPE   H9X17233   1.036   6.151   5.531
  154SAPE   H9Y17234   1.007   6.315   5.462
  154SAPE  C31017235   0.847   6.175   5.423
  154SAPE  H10X17236   0.760   6.243   5.439
  154SAPE  H10Y17237   0.827   6.071   5.458
  154SAPE  C31117238   0.873   6.171   5.272
  154SAPE  H11X17239   0.935   6.082   5.247
  154SAPE  H11Y17240   0.928   6.264   5.251
  154SAPE  C31217241   0.756   6.178   5.171
  154SAPE  H12X17242   0.660   6.150   5.215
  154SAPE  H12Y17243   0.779   6.101   5.094
  154SAPE  C31317244   0.740   6.314   5.100
  154SAPE  H13X17245   0.812   6.388   5.142
  154SAPE  H13Y17246   0.638   6.355   5.120
  154SAPE  C31417247   0.760   6.308   4.947
  154SAPE  H14X17248   0.863   6.271   4.925
  154SAPE  H14Y17249   0.753   6.410   4.905
  154SAPE  C31517250   0.656   6.217   4.879
  154SAPE  H15X17251   0.554   6.252   4.905
  154SAPE  H15Y17252   0.665   6.115   4.923
  154SAPE  C31617253   0.669   6.207   4.726
  154SAPE  H16X17254   0.632   6.106   4.695
  154SAPE  H16Y17255   0.775   6.213   4.694
  154SAPE  C31717256   0.581   6.311   4.655
  154SAPE  H17X17257   0.634   6.409   4.655
  154SAPE  H17Y17258   0.488   6.324   4.715
  154SAPE  C31817259   0.539   6.272   4.513
  154SAPE  H18X17260   0.627   6.263   4.446
  154SAPE  H18Y17261   0.470   6.349   4.472
  154SAPE  H18Z17262   0.485   6.175   4.514
  155SAPE     N17263   1.597   7.331   6.265
  155SAPE   HN117264   1.685   7.304   6.314
  155SAPE   HN217265   1.596   7.434   6.241
  155SAPE   HN317266   1.520   7.318   6.334
  155SAPE   C1217267   1.568   7.247   6.145
  155SAPE  H12A17268   1.666   7.222   6.099
  155SAPE  H12B17269   1.508   7.307   6.074
  155SAPE   C1117270   1.491   7.119   6.183
  155SAPE  H11A17271   1.488   7.052   6.094
  155SAPE  H11B17272   1.386   7.146   6.207
  155SAPE     P17273   1.678   6.968   6.297
  155SAPE   O1317274   1.777   7.049   6.373
  155SAPE   O1417275   1.651   6.829   6.341
  155SAPE   O1217276   1.545   7.053   6.298
  155SAPE   O1117277   1.712   6.968   6.145
  155SAPE    C117278   1.828   6.936   6.072
  155SAPE    HA17279   1.918   6.922   6.137
  155SAPE    HB17280   1.808   6.842   6.016
  155SAPE    C217281   1.854   7.045   5.964
  155SAPE    HS17282   1.907   7.130   6.013
  155SAPE   O2117283   1.726   7.087   5.913
  155SAPE   C2117284   1.730   7.181   5.824
  155SAPE   O2217285   1.819   7.264   5.812
  155SAPE   C2217286   1.609   7.162   5.733
  155SAPE   H2R17287   1.606   7.054   5.710
  155SAPE   H2S17288   1.519   7.191   5.791
  155SAPE    C317289   1.946   6.995   5.848
  155SAPE    HX17290   2.033   6.941   5.891
  155SAPE    HY17291   1.985   7.087   5.797
  155SAPE   O3117292   1.872   6.909   5.755
  155SAPE   C3117293   1.937   6.903   5.636
  155SAPE   O3217294   2.048   6.950   5.617
  155SAPE   C3217295   1.865   6.827   5.527
  155SAPE   H2X17296   1.758   6.812   5.551
  155SAPE   H2Y17297   1.915   6.727   5.523
  155SAPE   C2317298   1.617   7.241   5.602
  155SAPE   H3R17299   1.707   7.210   5.545
  155SAPE   H3S17300   1.630   7.350   5.627
  155SAPE   C2417301   1.495   7.227   5.510
  155SAPE   H4R17302   1.508   7.313   5.440
  155SAPE   H4S17303   1.402   7.249   5.566
  155SAPE   C2517304   1.480   7.100   5.431
  155SAPE   H5R17305   1.472   7.007   5.489
  155SAPE   C2617306   1.480   7.091   5.296
  155SAPE   H6R17307   1.474   6.991   5.249
  155SAPE   C2717308   1.493   7.205   5.199
  155SAPE   H7R17309   1.536   7.296   5.246
  155SAPE   H7S17310   1.387   7.223   5.175
  155SAPE   C2817311   1.554   7.197   5.064
  155SAPE   H8R17312   1.657   7.236   5.054
  155SAPE   C2917313   1.495   7.137   4.962
  155SAPE   H9R17314   1.553   7.124   4.871
  155SAPE  C21017315   1.362   7.068   4.961
  155SAPE  H10R17316   1.290   7.116   5.030
  155SAPE  H10S17317   1.374   6.962   4.991
  155SAPE  C21117318   1.305   7.073   4.823
  155SAPE  H11R17319   1.209   7.126   4.818
  155SAPE  C21217320   1.354   7.015   4.712
  155SAPE  H12R17321   1.314   7.046   4.614
  155SAPE  C21317322   1.478   6.932   4.707
  155SAPE  H13R17323   1.544   6.947   4.794
  155SAPE  H13S17324   1.537   6.968   4.619
  155SAPE  C21417325   1.453   6.785   4.700
  155SAPE  H14R17326   1.467   6.729   4.794
  155SAPE  C21517327   1.418   6.723   4.587
  155SAPE  H15R17328   1.409   6.613   4.586
  155SAPE  C21617329   1.399   6.795   4.457
  155SAPE  H16R17330   1.369   6.901   4.472
  155SAPE  H16S17331   1.318   6.748   4.399
  155SAPE  C21717332   1.530   6.801   4.378
  155SAPE  H17R17333   1.608   6.844   4.445
  155SAPE  H17S17334   1.517   6.870   4.292
  155SAPE  C21817335   1.576   6.666   4.323
  155SAPE  H18R17336   1.497   6.625   4.256
  155SAPE  H18S17337   1.582   6.594   4.407
  155SAPE  C21917338   1.711   6.671   4.249
  155SAPE  H19R17339   1.694   6.677   4.139
  155SAPE  H19S17340   1.761   6.574   4.268
  155SAPE  C22017341   1.804   6.786   4.288
  155SAPE  H20R17342   1.761   6.882   4.254
  155SAPE  H20S17343   1.905   6.776   4.243
  155SAPE  H20T17344   1.816   6.793   4.398
  155SAPE   C3317345   1.888   6.884   5.386
  155SAPE   H3X17346   1.896   6.796   5.318
  155SAPE   H3Y17347   1.983   6.942   5.377
  155SAPE   C3417348   1.771   6.967   5.337
  155SAPE   H4X17349   1.788   7.076   5.353
  155SAPE   H4Y17350   1.683   6.940   5.399
  155SAPE   C3517351   1.736   6.938   5.191
  155SAPE   H5X17352   1.680   7.025   5.158
  155SAPE   H5Y17353   1.666   6.854   5.182
  155SAPE   C3617354   1.844   6.923   5.085
  155SAPE   H6X17355   1.910   6.837   5.107
  155SAPE   H6Y17356   1.905   7.017   5.084
  155SAPE   C3717357   1.777   6.906   4.948
  155SAPE   H7X17358   1.702   6.985   4.935
  155SAPE   H7Y17359   1.716   6.816   4.942
  155SAPE   C3817360   1.877   6.904   4.833
  155SAPE   H8X17361   1.922   6.802   4.830
  155SAPE   H8Y17362   1.957   6.977   4.856
  155SAPE   C3917363   1.824   6.946   4.695
  155SAPE   H9X17364   1.723   6.908   4.675
  155SAPE   H9Y17365   1.890   6.897   4.618
  155SAPE  C31017366   1.837   7.096   4.669
  155SAPE  H10X17367   1.801   7.122   4.567
  155SAPE  H10Y17368   1.947   7.112   4.672
  155SAPE  C31117369   1.774   7.194   4.770
  155SAPE  H11X17370   1.851   7.266   4.797
  155SAPE  H11Y17371   1.755   7.151   4.868
  155SAPE  C31217372   1.654   7.276   4.719
  155SAPE  H12X17373   1.605   7.326   4.806
  155SAPE  H12Y17374   1.581   7.204   4.675
  155SAPE  C31317375   1.688   7.388   4.620
  155SAPE  H13X17376   1.774   7.358   4.558
  155SAPE  H13Y17377   1.717   7.478   4.680
  155SAPE  C31417378   1.573   7.428   4.528
  155SAPE  H14X17379   1.604   7.516   4.467
  155SAPE  H14Y17380   1.489   7.460   4.593
  155SAPE  C31517381   1.525   7.316   4.433
  155SAPE  H15X17382   1.443   7.354   4.367
  155SAPE  H15Y17383   1.481   7.235   4.494
  155SAPE  C31617384   1.632   7.257   4.341
  155SAPE  H16X17385   1.728   7.243   4.395
  155SAPE  H16Y17386   1.652   7.328   4.257
  155SAPE  C31717387   1.588   7.120   4.289
  155SAPE  H17X17388   1.477   7.114   4.289
  155SAPE  H17Y17389   1.626   7.045   4.362
  155SAPE  C31817390   1.635   7.083   4.149
  155SAPE  H18X17391   1.620   7.168   4.079
  155SAPE  H18Y17392   1.580   6.995   4.110
  155SAPE  H18Z17393   1.742   7.057   4.149
  156SAPE     N17394   7.191   5.738   6.377
  156SAPE   HN117395   7.146   5.654   6.419
  156SAPE   HN217396   7.208   5.725   6.275
  156SAPE   HN317397   7.288   5.745   6.418
  156SAPE   C1217398   7.119   5.868   6.403
  156SAPE  H12A17399   7.071   5.864   6.502
  156SAPE  H12B17400   7.042   5.881   6.324
  156SAPE   C1117401   7.218   5.985   6.397
  156SAPE  H11A17402   7.289   5.979   6.481
  156SAPE  H11B17403   7.162   6.081   6.410
  156SAPE     P17404   7.254   6.075   6.158
  156SAPE   O1317405   7.108   6.093   6.162
  156SAPE   O1417406   7.338   6.195   6.170
  156SAPE   O1217407   7.293   5.978   6.277
  156SAPE   O1117408   7.294   5.990   6.031
  156SAPE    C117409   7.355   5.860   6.045
  156SAPE    HA17410   7.451   5.870   6.100
  156SAPE    HB17411   7.288   5.791   6.101
  156SAPE    C217412   7.392   5.792   5.908
  156SAPE    HS17413   7.478   5.724   5.927
  156SAPE   O2117414   7.432   5.900   5.825
  156SAPE   C2117415   7.441   5.903   5.695
  156SAPE   O2217416   7.440   5.807   5.619
  156SAPE   C2217417   7.463   6.052   5.665
  156SAPE   H2R17418   7.397   6.112   5.730
  156SAPE   H2S17419   7.568   6.076   5.693
  156SAPE    C317420   7.277   5.706   5.845
  156SAPE    HX17421   7.234   5.636   5.920
  156SAPE    HY17422   7.321   5.642   5.765
  156SAPE   O3117423   7.178   5.791   5.786
  156SAPE   C3117424   7.093   5.848   5.869
  156SAPE   O3217425   7.057   5.805   5.977
  156SAPE   C3217426   7.048   5.978   5.804
  156SAPE   H2X17427   7.136   6.030   5.762
  156SAPE   H2Y17428   7.007   6.041   5.886
  156SAPE   C2317429   7.443   6.093   5.518
  156SAPE   H3R17430   7.503   6.020   5.459
  156SAPE   H3S17431   7.486   6.194   5.500
  156SAPE   C2417432   7.297   6.090   5.472
  156SAPE   H4R17433   7.260   5.991   5.506
  156SAPE   H4S17434   7.293   6.089   5.362
  156SAPE   C2517435   7.208   6.202   5.521
  156SAPE   H5R17436   7.220   6.225   5.628
  156SAPE   C2617437   7.118   6.271   5.446
  156SAPE   H6R17438   7.059   6.348   5.497
  156SAPE   C2717439   7.085   6.254   5.299
  156SAPE   H7R17440   6.974   6.261   5.288
  156SAPE   H7S17441   7.113   6.154   5.260
  156SAPE   C2817442   7.146   6.364   5.214
  156SAPE   H8R17443   7.109   6.463   5.244
  156SAPE   C2917444   7.240   6.363   5.117
  156SAPE   H9R17445   7.271   6.463   5.087
  156SAPE  C21017446   7.323   6.258   5.044
  156SAPE  H10R17447   7.287   6.156   5.065
  156SAPE  H10S17448   7.422   6.272   5.091
  156SAPE  C21117449   7.358   6.281   4.897
  156SAPE  H11R17450   7.270   6.320   4.842
  156SAPE  C21217451   7.464   6.243   4.818
  156SAPE  H12R17452   7.462   6.284   4.716
  156SAPE  C21317453   7.596   6.166   4.842
  156SAPE  H13R17454   7.572   6.109   4.933
  156SAPE  H13S17455   7.668   6.245   4.868
  156SAPE  C21417456   7.686   6.057   4.774
  156SAPE  H14R17457   7.782   6.068   4.826
  156SAPE  C21517458   7.697   5.952   4.686
  156SAPE  H15R17459   7.797   5.906   4.683
  156SAPE  C21617460   7.607   5.871   4.593
  156SAPE  H16R17461   7.510   5.907   4.624
  156SAPE  H16S17462   7.634   5.909   4.492
  156SAPE  C21717463   7.562   5.720   4.572
  156SAPE  H17R17464   7.544   5.678   4.672
  156SAPE  H17S17465   7.638   5.656   4.524
  156SAPE  C21817466   7.417   5.713   4.509
  156SAPE  H18R17467   7.403   5.783   4.426
  156SAPE  H18S17468   7.358   5.752   4.594
  156SAPE  C21917469   7.336   5.587   4.469
  156SAPE  H19R17470   7.243   5.629   4.421
  156SAPE  H19S17471   7.299   5.532   4.556
  156SAPE  C22017472   7.392   5.494   4.364
  156SAPE  H20R17473   7.497   5.463   4.384
  156SAPE  H20S17474   7.386   5.555   4.274
  156SAPE  H20T17475   7.329   5.404   4.346
  156SAPE   C3317476   6.940   5.949   5.699
  156SAPE   H3X17477   6.880   6.042   5.693
  156SAPE   H3Y17478   6.873   5.866   5.732
  156SAPE   C3417479   6.985   5.922   5.554
  156SAPE   H4X17480   7.069   5.989   5.533
  156SAPE   H4Y17481   6.904   5.955   5.485
  156SAPE   C3517482   7.021   5.778   5.516
  156SAPE   H5X17483   6.947   5.709   5.562
  156SAPE   H5Y17484   7.121   5.753   5.558
  156SAPE   C3617485   7.023   5.752   5.363
  156SAPE   H6X17486   6.920   5.764   5.324
  156SAPE   H6Y17487   7.053   5.646   5.346
  156SAPE   C3717488   7.119   5.844   5.286
  156SAPE   H7X17489   7.222   5.808   5.310
  156SAPE   H7Y17490   7.110   5.948   5.324
  156SAPE   C3817491   7.103   5.849   5.133
  156SAPE   H8X17492   7.110   5.746   5.091
  156SAPE   H8Y17493   7.192   5.907   5.098
  156SAPE   C3917494   6.979   5.923   5.075
  156SAPE   H9X17495   6.966   6.019   5.128
  156SAPE   H9Y17496   6.892   5.859   5.096
  156SAPE  C31017497   6.992   5.950   4.923
  156SAPE  H10X17498   7.014   5.854   4.871
  156SAPE  H10Y17499   7.084   6.013   4.916
  156SAPE  C31117500   6.882   6.025   4.841
  156SAPE  H11X17501   6.842   6.110   4.900
  156SAPE  H11Y17502   6.799   5.956   4.817
  156SAPE  C31217503   6.946   6.076   4.709
  156SAPE  H12X17504   6.990   5.986   4.660
  156SAPE  H12Y17505   7.028   6.145   4.740
  156SAPE  C31317506   6.872   6.153   4.598
  156SAPE  H13X17507   6.812   6.236   4.639
  156SAPE  H13Y17508   6.804   6.085   4.542
  156SAPE  C31417509   6.977   6.211   4.498
  156SAPE  H14X17510   7.041   6.285   4.550
  156SAPE  H14Y17511   6.926   6.262   4.415
  156SAPE  C31517512   7.063   6.103   4.431
  156SAPE  H15X17513   6.998   6.016   4.412
  156SAPE  H15Y17514   7.130   6.064   4.507
  156SAPE  C31617515   7.129   6.130   4.292
  156SAPE  H16X17516   7.047   6.143   4.221
  156SAPE  H16Y17517   7.176   6.036   4.259
  156SAPE  C31717518   7.242   6.234   4.267
  156SAPE  H17X17519   7.290   6.274   4.359
  156SAPE  H17Y17520   7.194   6.322   4.227
  156SAPE  C31817521   7.349   6.187   4.165
  156SAPE  H18X17522   7.302   6.156   4.070
  156SAPE  H18Y17523   7.404   6.098   4.204
  156SAPE  H18Z17524   7.424   6.265   4.143
  157SAPE     N17525   0.288   6.930   6.174
  157SAPE   HN117526   0.325   6.978   6.089
  157SAPE   HN217527   0.187   6.951   6.187
  157SAPE   HN317528   0.337   6.964   6.260
  157SAPE   C1217529   0.290   6.780   6.156
  157SAPE  H12A17530   0.395   6.747   6.143
  157SAPE  H12B17531   0.235   6.758   6.062
  157SAPE   C1117532   0.221   6.706   6.273
  157SAPE  H11A17533   0.299   6.670   6.343
  157SAPE  H11B17534   0.170   6.615   6.234
  157SAPE     P17535  -0.017   6.821   6.303
  157SAPE   O1317536  -0.110   6.721   6.358
  157SAPE   O1417537  -0.039   6.964   6.339
  157SAPE   O1217538   0.131   6.788   6.348
  157SAPE   O1117539  -0.002   6.811   6.144
  157SAPE    C117540  -0.018   6.926   6.060
  157SAPE    HA17541   0.010   7.022   6.110
  157SAPE    HB17542   0.049   6.916   5.971
  157SAPE    C217543  -0.163   6.937   6.009
  157SAPE    HS17544  -0.234   6.920   6.093
  157SAPE   O2117545  -0.176   6.840   5.904
  157SAPE   C2117546  -0.232   6.727   5.935
  157SAPE   O2217547  -0.294   6.702   6.037
  157SAPE   C2217548  -0.206   6.625   5.823
  157SAPE   H2R17549  -0.226   6.524   5.864
  157SAPE   H2S17550  -0.279   6.647   5.742
  157SAPE    C317551  -0.190   7.080   5.954
  157SAPE    HX17552  -0.183   7.149   6.040
  157SAPE    HY17553  -0.296   7.086   5.917
  157SAPE   O3117554  -0.092   7.119   5.856
  157SAPE   C3117555  -0.120   7.069   5.736
  157SAPE   O3217556  -0.222   7.009   5.707
  157SAPE   C3217557  -0.008   7.096   5.636
  157SAPE   H2X17558   0.080   7.034   5.662
  157SAPE   H2Y17559   0.018   7.203   5.637
  157SAPE   C2317560  -0.061   6.632   5.768
  157SAPE   H3R17561   0.010   6.609   5.851
  157SAPE   H3S17562  -0.039   6.736   5.731
  157SAPE   C2417563  -0.030   6.535   5.653
  157SAPE   H4R17564  -0.048   6.430   5.683
  157SAPE   H4S17565   0.079   6.541   5.633
  157SAPE   C2517566  -0.110   6.573   5.532
  157SAPE   H5R17567  -0.217   6.556   5.542
  157SAPE   C2617568  -0.061   6.628   5.419
  157SAPE   H6R17569  -0.129   6.653   5.337
  157SAPE   C2717570   0.085   6.660   5.396
  157SAPE   H7R17571   0.139   6.671   5.491
  157SAPE   H7S17572   0.094   6.760   5.347
  157SAPE   C2817573   0.153   6.553   5.316
  157SAPE   H8R17574   0.184   6.465   5.374
  157SAPE   C2917575   0.166   6.551   5.182
  157SAPE   H9R17576   0.211   6.463   5.134
  157SAPE  C21017577   0.114   6.658   5.090
  157SAPE  H10R17578   0.177   6.749   5.093
  157SAPE  H10S17579   0.014   6.690   5.127
  157SAPE  C21117580   0.107   6.605   4.949
  157SAPE  H11R17581   0.201   6.567   4.907
  157SAPE  C21217582  -0.005   6.594   4.875
  157SAPE  H12R17583   0.002   6.548   4.775
  157SAPE  C21317584  -0.145   6.631   4.919
  157SAPE  H13R17585  -0.167   6.734   4.887
  157SAPE  H13S17586  -0.157   6.635   5.030
  157SAPE  C21417587  -0.248   6.540   4.862
  157SAPE  H14R17588  -0.284   6.459   4.928
  157SAPE  C21517589  -0.295   6.551   4.737
  157SAPE  H15R17590  -0.367   6.478   4.698
  157SAPE  C21617591  -0.249   6.658   4.641
  157SAPE  H16R17592  -0.184   6.736   4.687
  157SAPE  H16S17593  -0.336   6.712   4.598
  157SAPE  C21717594  -0.169   6.590   4.530
  157SAPE  H17R17595  -0.243   6.552   4.457
  157SAPE  H17S17596  -0.112   6.502   4.569
  157SAPE  C21817597  -0.066   6.684   4.467
  157SAPE  H18R17598   0.013   6.709   4.542
  157SAPE  H18S17599  -0.114   6.779   4.437
  157SAPE  C21917600   0.000   6.619   4.345
  157SAPE  H19R17601   0.055   6.528   4.377
  157SAPE  H19S17602   0.076   6.690   4.304
  157SAPE  C22017603  -0.101   6.579   4.238
  157SAPE  H20R17604  -0.174   6.506   4.275
  157SAPE  H20S17605  -0.049   6.538   4.149
  157SAPE  H20T17606  -0.164   6.665   4.206
  157SAPE   C3317607  -0.067   7.054   5.501
  157SAPE   H3X17608  -0.155   7.120   5.479
  157SAPE   H3Y17609  -0.105   6.949   5.507
  157SAPE   C3417610   0.022   7.055   5.378
  157SAPE   H4X17611   0.113   6.991   5.392
  157SAPE   H4Y17612   0.056   7.158   5.353
  157SAPE   C3517613  -0.065   6.997   5.267
  157SAPE   H5X17614  -0.168   7.039   5.276
  157SAPE   H5Y17615  -0.074   6.887   5.280
  157SAPE   C3617616  -0.018   7.031   5.126
  157SAPE   H6X17617   0.089   7.003   5.121
  157SAPE   H6Y17618  -0.028   7.140   5.107
  157SAPE   C3717619  -0.101   6.953   5.025
  157SAPE   H7X17620  -0.209   6.973   5.037
  157SAPE   H7Y17621  -0.090   6.846   5.050
  157SAPE   C3817622  -0.057   6.978   4.880
  157SAPE   H8X17623  -0.076   7.084   4.854
  157SAPE   H8Y17624  -0.116   6.916   4.810
  157SAPE   C3917625   0.092   6.949   4.861
  157SAPE   H9X17626   0.112   6.844   4.886
  157SAPE   H9Y17627   0.153   7.011   4.930
  157SAPE  C31017628   0.140   6.977   4.720
  157SAPE  H10X17629   0.070   6.931   4.646
  157SAPE  H10Y17630   0.239   6.928   4.708
  157SAPE  C31117631   0.154   7.128   4.698
  157SAPE  H11X17632   0.174   7.178   4.796
  157SAPE  H11Y17633   0.057   7.169   4.661
  157SAPE  C31217634   0.271   7.165   4.607
  157SAPE  H12X17635   0.367   7.141   4.657
  157SAPE  H12Y17636   0.268   7.274   4.588
  157SAPE  C31317637   0.266   7.093   4.473
  157SAPE  H13X17638   0.281   6.983   4.483
  157SAPE  H13Y17639   0.346   7.134   4.407
  157SAPE  C31417640   0.132   7.118   4.407
  157SAPE  H14X17641   0.096   7.221   4.431
  157SAPE  H14Y17642   0.058   7.045   4.449
  157SAPE  C31517643   0.141   7.103   4.257
  157SAPE  H15X17644   0.171   6.998   4.236
  157SAPE  H15Y17645   0.221   7.169   4.217
  157SAPE  C31617646   0.009   7.140   4.192
  157SAPE  H16X17647   0.003   7.089   4.095
  157SAPE  H16Y17648   0.007   7.248   4.171
  157SAPE  C31717649  -0.117   7.114   4.275
  157SAPE  H17X17650  -0.117   7.178   4.366
  157SAPE  H17Y17651  -0.120   7.008   4.307
  157SAPE  C31817652  -0.241   7.148   4.195
  157SAPE  H18X17653  -0.322   7.081   4.228
  157SAPE  H18Y17654  -0.225   7.130   4.086
  157SAPE  H18Z17655  -0.271   7.254   4.209
  158SAPE     N17656   6.966   0.233   6.507
  158SAPE   HN117657   6.929   0.303   6.438
  158SAPE   HN217658   6.887   0.215   6.573
  158SAPE   HN317659   7.043   0.278   6.560
  158SAPE   C1217660   7.003   0.105   6.438
  158SAPE  H12A17661   7.023   0.026   6.514
  158SAPE  H12B17662   7.091   0.125   6.373
  158SAPE   C1117663   6.889   0.056   6.353
  158SAPE  H11A17664   6.812   0.012   6.422
  158SAPE  H11B17665   6.923  -0.025   6.284
  158SAPE     P17666   6.706   0.144   6.207
  158SAPE   O1317667   6.614   0.074   6.299
  158SAPE   O1417668   6.664   0.272   6.150
  158SAPE   O1217669   6.842   0.169   6.281
  158SAPE   O1117670   6.751   0.039   6.095
  158SAPE    C117671   6.860   0.067   6.008
  158SAPE    HA17672   6.951   0.098   6.066
  158SAPE    HB17673   6.889  -0.023   5.950
  158SAPE    C217674   6.823   0.178   5.908
  158SAPE    HS17675   6.760   0.256   5.957
  158SAPE   O2117676   6.755   0.124   5.795
  158SAPE   C2117677   6.703   0.219   5.718
  158SAPE   O2217678   6.680   0.334   5.750
  158SAPE   C2217679   6.696   0.161   5.580
  158SAPE   H2R17680   6.800   0.160   5.541
  158SAPE   H2S17681   6.662   0.056   5.590
  158SAPE    C317682   6.948   0.254   5.864
  158SAPE    HX17683   6.978   0.298   5.961
  158SAPE    HY17684   6.920   0.337   5.796
  158SAPE   O3117685   7.054   0.170   5.816
  158SAPE   C3117686   7.090   0.195   5.691
  158SAPE   O3217687   7.020   0.246   5.606
  158SAPE   C3217688   7.239   0.166   5.677
  158SAPE   H2X17689   7.256   0.058   5.696
  158SAPE   H2Y17690   7.293   0.225   5.754
  158SAPE   C2317691   6.605   0.240   5.486
  158SAPE   H3R17692   6.656   0.334   5.457
  158SAPE   H3S17693   6.510   0.271   5.535
  158SAPE   C2417694   6.569   0.157   5.363
  158SAPE   H4R17695   6.531   0.229   5.289
  158SAPE   H4S17696   6.484   0.090   5.384
  158SAPE   C2517697   6.685   0.074   5.315
  158SAPE   H5R17698   6.684  -0.033   5.343
  158SAPE   C2617699   6.787   0.125   5.245
  158SAPE   H6R17700   6.872   0.061   5.217
  158SAPE   C2717701   6.797   0.269   5.203
  158SAPE   H7R17702   6.902   0.293   5.175
  158SAPE   H7S17703   6.774   0.338   5.287
  158SAPE   C2817704   6.699   0.288   5.091
  158SAPE   H8R17705   6.593   0.276   5.116
  158SAPE   C2917706   6.731   0.311   4.965
  158SAPE   H9R17707   6.651   0.315   4.889
  158SAPE  C21017708   6.873   0.319   4.921
  158SAPE  H10R17709   6.929   0.229   4.951
  158SAPE  H10S17710   6.921   0.406   4.971
  158SAPE  C21117711   6.878   0.339   4.774
  158SAPE  H11R17712   6.784   0.372   4.728
  158SAPE  C21217713   6.981   0.310   4.695
  158SAPE  H12R17714   6.969   0.332   4.588
  158SAPE  C21317715   7.114   0.252   4.736
  158SAPE  H13R17716   7.118   0.234   4.846
  158SAPE  H13S17717   7.194   0.327   4.717
  158SAPE  C21417718   7.143   0.123   4.663
  158SAPE  H14R17719   7.148   0.034   4.728
  158SAPE  C21517720   7.160   0.109   4.530
  158SAPE  H15R17721   7.180   0.009   4.488
  158SAPE  C21617722   7.154   0.222   4.431
  158SAPE  H16R17723   7.256   0.235   4.390
  158SAPE  H16S17724   7.134   0.319   4.482
  158SAPE  C21717725   7.053   0.220   4.313
  158SAPE  H17R17726   6.950   0.203   4.349
  158SAPE  H17S17727   7.077   0.134   4.247
  158SAPE  C21817728   7.061   0.355   4.236
  158SAPE  H18R17729   7.164   0.371   4.197
  158SAPE  H18S17730   7.046   0.437   4.309
  158SAPE  C21917731   6.963   0.373   4.119
  158SAPE  H19R17732   7.004   0.453   4.053
  158SAPE  H19S17733   6.867   0.410   4.160
  158SAPE  C22017734   6.935   0.248   4.036
  158SAPE  H20R17735   6.886   0.169   4.097
  158SAPE  H20S17736   7.028   0.205   3.994
  158SAPE  H20T17737   6.868   0.273   3.951
  158SAPE   C3317738   7.288   0.204   5.535
  158SAPE   H3X17739   7.397   0.226   5.536
  158SAPE   H3Y17740   7.237   0.296   5.500
  158SAPE   C3417741   7.259   0.086   5.442
  158SAPE   H4X17742   7.173   0.031   5.487
  158SAPE   H4Y17743   7.344   0.015   5.441
  158SAPE   C3517744   7.215   0.121   5.300
  158SAPE   H5X17745   7.303   0.146   5.238
  158SAPE   H5Y17746   7.146   0.209   5.301
  158SAPE   C3617747   7.140  -0.001   5.245
  158SAPE   H6X17748   7.048  -0.016   5.307
  158SAPE   H6Y17749   7.205  -0.089   5.262
  158SAPE   C3717750   7.100   0.001   5.098
  158SAPE   H7X17751   7.192  -0.005   5.035
  158SAPE   H7Y17752   7.047   0.095   5.072
  158SAPE   C3817753   7.010  -0.120   5.070
  158SAPE   H8X17754   6.906  -0.104   5.106
  158SAPE   H8Y17755   7.050  -0.205   5.129
  158SAPE   C3917756   7.007  -0.162   4.923
  158SAPE   H9X17757   6.985  -0.270   4.914
  158SAPE   H9Y17758   7.106  -0.141   4.877
  158SAPE  C31017759   6.902  -0.086   4.844
  158SAPE  H10X17760   6.924   0.023   4.852
  158SAPE  H10Y17761   6.802  -0.103   4.890
  158SAPE  C31117762   6.900  -0.126   4.697
  158SAPE  H11X17763   6.854  -0.226   4.685
  158SAPE  H11Y17764   7.003  -0.130   4.657
  158SAPE  C31217765   6.820  -0.021   4.618
  158SAPE  H12X17766   6.814  -0.051   4.512
  158SAPE  H12Y17767   6.879   0.072   4.622
  158SAPE  C31317768   6.684   0.005   4.683
  158SAPE  H13X17769   6.699   0.066   4.775
  158SAPE  H13Y17770   6.645  -0.094   4.716
  158SAPE  C31417771   6.573   0.072   4.601
  158SAPE  H14X17772   6.484   0.070   4.669
  158SAPE  H14Y17773   6.548   0.012   4.512
  158SAPE  C31517774   6.593   0.219   4.562
  158SAPE  H15X17775   6.616   0.276   4.654
  158SAPE  H15Y17776   6.496   0.256   4.520
  158SAPE  C31617777   6.701   0.241   4.457
  158SAPE  H16X17778   6.669   0.183   4.368
  158SAPE  H16Y17779   6.795   0.194   4.491
  158SAPE  C31717780   6.737   0.386   4.417
  158SAPE  H17X17781   6.694   0.410   4.318
  158SAPE  H17Y17782   6.847   0.388   4.403
  158SAPE  C31817783   6.702   0.499   4.513
  158SAPE  H18X17784   6.777   0.506   4.593
  158SAPE  H18Y17785   6.603   0.486   4.558
  158SAPE  H18Z17786   6.702   0.596   4.460
  159SAPE     N17787   4.056   4.476   2.263
  159SAPE   HN117788   4.049   4.372   2.275
  159SAPE   HN217789   4.142   4.503   2.209
  159SAPE   HN317790   4.057   4.530   2.352
  159SAPE   C1217791   3.937   4.519   2.182
  159SAPE  H12A17792   3.853   4.450   2.206
  159SAPE  H12B17793   3.965   4.507   2.075
  159SAPE   C1117794   3.898   4.664   2.213
  159SAPE  H11A17795   3.842   4.668   2.309
  159SAPE  H11B17796   3.827   4.695   2.131
  159SAPE     P17797   3.980   4.907   2.232
  159SAPE   O1317798   4.080   4.987   2.158
  159SAPE   O1417799   3.837   4.926   2.200
  159SAPE   O1217800   4.013   4.750   2.220
  159SAPE   O1117801   3.991   4.933   2.388
  159SAPE    C117802   4.043   5.056   2.440
  159SAPE    HA17803   4.148   5.071   2.407
  159SAPE    HB17804   3.985   5.143   2.404
  159SAPE    C217805   4.043   5.052   2.597
  159SAPE    HS17806   4.113   5.131   2.633
  159SAPE   O2117807   4.079   4.924   2.652
  159SAPE   C2117808   4.170   4.854   2.588
  159SAPE   O2217809   4.261   4.897   2.519
  159SAPE   C2217810   4.157   4.704   2.614
  159SAPE   H2R17811   4.164   4.653   2.516
  159SAPE   H2S17812   4.248   4.679   2.672
  159SAPE    C317813   3.902   5.086   2.655
  159SAPE    HX17814   3.834   4.999   2.638
  159SAPE    HY17815   3.862   5.171   2.596
  159SAPE   O3117816   3.907   5.127   2.793
  159SAPE   C3117817   3.910   5.031   2.886
  159SAPE   O3217818   3.899   4.912   2.870
  159SAPE   C3217819   3.920   5.098   3.023
  159SAPE   H2X17820   3.867   5.034   3.097
  159SAPE   H2Y17821   3.870   5.197   3.018
  159SAPE   C2317822   4.030   4.656   2.689
  159SAPE   H3R17823   3.950   4.633   2.615
  159SAPE   H3S17824   3.990   4.735   2.756
  159SAPE   C2417825   4.059   4.534   2.778
  159SAPE   H4R17826   4.107   4.458   2.711
  159SAPE   H4S17827   3.963   4.491   2.812
  159SAPE   C2517828   4.151   4.567   2.894
  159SAPE   H5R17829   4.253   4.598   2.866
  159SAPE   C2617830   4.124   4.556   3.026
  159SAPE   H6R17831   4.203   4.583   3.097
  159SAPE   C2717832   3.995   4.509   3.087
  159SAPE   H7R17833   3.962   4.414   3.039
  159SAPE   H7S17834   3.915   4.583   3.064
  159SAPE   C2817835   4.000   4.487   3.237
  159SAPE   H8R17836   3.997   4.381   3.268
  159SAPE   C2917837   4.013   4.582   3.331
  159SAPE   H9R17838   4.017   4.551   3.437
  159SAPE  C21017839   4.026   4.732   3.307
  159SAPE  H10R17840   3.997   4.754   3.201
  159SAPE  H10S17841   4.133   4.759   3.312
  159SAPE  C21117842   3.949   4.828   3.394
  159SAPE  H11R17843   3.898   4.907   3.337
  159SAPE  C21217844   3.940   4.835   3.528
  159SAPE  H12R17845   3.875   4.912   3.572
  159SAPE  C21317846   4.005   4.746   3.630
  159SAPE  H13R17847   4.057   4.810   3.705
  159SAPE  H13S17848   4.086   4.687   3.583
  159SAPE  C21417849   3.910   4.649   3.698
  159SAPE  H14R17850   3.860   4.580   3.630
  159SAPE  C21517851   3.875   4.650   3.828
  159SAPE  H15R17852   3.804   4.576   3.866
  159SAPE  C21617853   3.924   4.750   3.929
  159SAPE  H16R17854   3.928   4.852   3.884
  159SAPE  H16S17855   4.028   4.726   3.963
  159SAPE  C21717856   3.829   4.758   4.050
  159SAPE  H17R17857   3.834   4.665   4.110
  159SAPE  H17S17858   3.724   4.769   4.016
  159SAPE  C21817859   3.863   4.879   4.138
  159SAPE  H18R17860   3.967   4.910   4.112
  159SAPE  H18S17861   3.860   4.850   4.245
  159SAPE  C21917862   3.773   5.001   4.119
  159SAPE  H19R17863   3.676   4.984   4.170
  159SAPE  H19S17864   3.752   5.011   4.010
  159SAPE  C22017865   3.840   5.128   4.171
  159SAPE  H20R17866   3.933   5.149   4.114
  159SAPE  H20S17867   3.867   5.116   4.278
  159SAPE  H20T17868   3.773   5.216   4.161
  159SAPE   C3317869   4.066   5.116   3.066
  159SAPE   H3X17870   4.123   5.171   2.987
  159SAPE   H3Y17871   4.113   5.016   3.081
  159SAPE   C3417872   4.079   5.196   3.195
  159SAPE   H4X17873   4.034   5.142   3.281
  159SAPE   H4Y17874   4.025   5.293   3.185
  159SAPE   C3517875   4.226   5.227   3.225
  159SAPE   H5X17876   4.230   5.277   3.324
  159SAPE   H5Y17877   4.265   5.290   3.144
  159SAPE   C3617878   4.324   5.112   3.233
  159SAPE   H6X17879   4.427   5.155   3.237
  159SAPE   H6Y17880   4.319   5.048   3.143
  159SAPE   C3717881   4.301   5.034   3.360
  159SAPE   H7X17882   4.197   4.995   3.362
  159SAPE   H7Y17883   4.313   5.103   3.447
  159SAPE   C3817884   4.399   4.919   3.370
  159SAPE   H8X17885   4.502   4.960   3.381
  159SAPE   H8Y17886   4.394   4.860   3.276
  159SAPE   C3917887   4.368   4.827   3.487
  159SAPE   H9X17888   4.440   4.743   3.490
  159SAPE   H9Y17889   4.267   4.783   3.473
  159SAPE  C31017890   4.374   4.900   3.620
  159SAPE  H10X17891   4.296   4.980   3.623
  159SAPE  H10Y17892   4.473   4.948   3.635
  159SAPE  C31117893   4.345   4.799   3.730
  159SAPE  H11X17894   4.431   4.730   3.743
  159SAPE  H11Y17895   4.259   4.738   3.694
  159SAPE  C31217896   4.305   4.865   3.860
  159SAPE  H12X17897   4.262   4.787   3.927
  159SAPE  H12Y17898   4.226   4.940   3.841
  159SAPE  C31317899   4.425   4.929   3.930
  159SAPE  H13X17900   4.454   5.022   3.876
  159SAPE  H13Y17901   4.511   4.859   3.928
  159SAPE  C31417902   4.390   4.960   4.076
  159SAPE  H14X17903   4.470   5.024   4.120
  159SAPE  H14Y17904   4.388   4.863   4.131
  159SAPE  C31517905   4.254   5.028   4.092
  159SAPE  H15X17906   4.171   4.962   4.057
  159SAPE  H15Y17907   4.252   5.120   4.029
  159SAPE  C31617908   4.227   5.069   4.237
  159SAPE  H16X17909   4.130   5.124   4.244
  159SAPE  H16Y17910   4.309   5.140   4.261
  159SAPE  C31717911   4.230   4.957   4.342
  159SAPE  H17X17912   4.258   5.004   4.439
  159SAPE  H17Y17913   4.309   4.883   4.320
  159SAPE  C31817914   4.097   4.883   4.362
  159SAPE  H18X17915   4.076   4.816   4.277
  159SAPE  H18Y17916   4.014   4.956   4.373
  159SAPE  H18Z17917   4.098   4.822   4.455
  160SAPE     N17918   5.632   3.814   2.255
  160SAPE   HN117919   5.580   3.886   2.314
  160SAPE   HN217920   5.730   3.810   2.293
  160SAPE   HN317921   5.633   3.844   2.156
  160SAPE   C1217922   5.568   3.679   2.273
  160SAPE  H12A17923   5.459   3.692   2.260
  160SAPE  H12B17924   5.589   3.646   2.377
  160SAPE   C1117925   5.622   3.576   2.173
  160SAPE  H11A17926   5.602   3.607   2.068
  160SAPE  H11B17927   5.563   3.482   2.190
  160SAPE     P17928   5.819   3.406   2.187
  160SAPE   O1317929   5.754   3.341   2.071
  160SAPE   O1417930   5.966   3.416   2.185
  160SAPE   O1217931   5.763   3.556   2.188
  160SAPE   O1117932   5.759   3.355   2.326
  160SAPE    C117933   5.707   3.223   2.344
  160SAPE    HA17934   5.602   3.217   2.307
  160SAPE    HB17935   5.768   3.148   2.289
  160SAPE    C217936   5.711   3.183   2.495
  160SAPE    HS17937   5.695   3.073   2.500
  160SAPE   O2117938   5.606   3.254   2.565
  160SAPE   C2117939   5.605   3.264   2.699
  160SAPE   O2217940   5.665   3.196   2.778
  160SAPE   C2217941   5.520   3.387   2.734
  160SAPE   H2R17942   5.462   3.413   2.644
  160SAPE   H2S17943   5.451   3.358   2.815
  160SAPE    C317944   5.854   3.214   2.552
  160SAPE    HX17945   5.923   3.230   2.466
  160SAPE    HY17946   5.888   3.122   2.606
  160SAPE   O3117947   5.854   3.324   2.644
  160SAPE   C3117948   5.970   3.373   2.674
  160SAPE   O3217949   6.073   3.351   2.615
  160SAPE   C3217950   5.955   3.454   2.803
  160SAPE   H2X17951   5.851   3.491   2.811
  160SAPE   H2Y17952   6.019   3.542   2.788
  160SAPE   C2317953   5.600   3.513   2.778
  160SAPE   H3R17954   5.676   3.538   2.702
  160SAPE   H3S17955   5.648   3.492   2.876
  160SAPE   C2417956   5.506   3.634   2.793
  160SAPE   H4R17957   5.422   3.589   2.845
  160SAPE   H4S17958   5.469   3.664   2.692
  160SAPE   C2517959   5.544   3.756   2.874
  160SAPE   H5R17960   5.573   3.845   2.816
  160SAPE   C2617961   5.541   3.764   3.008
  160SAPE   H6R17962   5.569   3.859   3.055
  160SAPE   C2717963   5.500   3.654   3.104
  160SAPE   H7R17964   5.591   3.597   3.133
  160SAPE   H7S17965   5.434   3.579   3.055
  160SAPE   C2817966   5.428   3.706   3.225
  160SAPE   H8R17967   5.325   3.740   3.207
  160SAPE   C2917968   5.478   3.719   3.349
  160SAPE   H9R17969   5.411   3.754   3.428
  160SAPE  C21017970   5.618   3.686   3.396
  160SAPE  H10R17971   5.689   3.765   3.363
  160SAPE  H10S17972   5.653   3.592   3.348
  160SAPE  C21117973   5.626   3.672   3.546
  160SAPE  H11R17974   5.676   3.754   3.601
  160SAPE  C21217975   5.577   3.567   3.614
  160SAPE  H12R17976   5.600   3.555   3.720
  160SAPE  C21317977   5.508   3.446   3.558
  160SAPE  H13R17978   5.437   3.472   3.476
  160SAPE  H13S17979   5.448   3.398   3.638
  160SAPE  C21417980   5.618   3.356   3.508
  160SAPE  H14R17981   5.655   3.379   3.407
  160SAPE  C21517982   5.673   3.256   3.579
  160SAPE  H15R17983   5.759   3.201   3.537
  160SAPE  C21617984   5.632   3.218   3.720
  160SAPE  H16R17985   5.551   3.143   3.717
  160SAPE  H16S17986   5.593   3.307   3.774
  160SAPE  C21717987   5.745   3.163   3.808
  160SAPE  H17R17988   5.708   3.151   3.912
  160SAPE  H17S17989   5.824   3.241   3.809
  160SAPE  C21817990   5.807   3.031   3.762
  160SAPE  H18R17991   5.795   3.022   3.652
  160SAPE  H18S17992   5.754   2.946   3.808
  160SAPE  C21917993   5.958   3.023   3.793
  160SAPE  H19R17994   6.002   3.124   3.788
  160SAPE  H19S17995   6.007   2.964   3.713
  160SAPE  C22017996   5.990   2.961   3.928
  160SAPE  H20R17997   6.099   2.945   3.941
  160SAPE  H20S17998   5.938   2.865   3.943
  160SAPE  H20T17999   5.957   3.029   4.008
  160SAPE   C3318000   5.990   3.385   2.938
  160SAPE   H3X18001   6.033   3.464   3.004
  160SAPE   H3Y18002   6.065   3.307   2.921
  160SAPE   C3418003   5.868   3.327   3.011
  160SAPE   H4X18004   5.820   3.251   2.945
  160SAPE   H4Y18005   5.794   3.409   3.027
  160SAPE   C3518006   5.895   3.261   3.147
  160SAPE   H5X18007   5.931   3.156   3.133
  160SAPE   H5Y18008   5.796   3.254   3.200
  160SAPE   C3618009   5.993   3.334   3.239
  160SAPE   H6X18010   5.973   3.444   3.234
  160SAPE   H6Y18011   6.097   3.315   3.207
  160SAPE   C3718012   5.972   3.290   3.385
  160SAPE   H7X18013   5.967   3.180   3.394
  160SAPE   H7Y18014   5.873   3.332   3.412
  160SAPE   C3818015   6.073   3.345   3.486
  160SAPE   H8X18016   6.112   3.443   3.452
  160SAPE   H8Y18017   6.159   3.276   3.498
  160SAPE   C3918018   6.002   3.367   3.619
  160SAPE   H9X18019   5.937   3.281   3.642
  160SAPE   H9Y18020   5.935   3.454   3.600
  160SAPE  C31018021   6.096   3.389   3.738
  160SAPE  H10X18022   6.201   3.392   3.701
  160SAPE  H10Y18023   6.092   3.302   3.806
  160SAPE  C31118024   6.069   3.515   3.821
  160SAPE  H11X18025   6.138   3.594   3.785
  160SAPE  H11Y18026   6.098   3.496   3.926
  160SAPE  C31218027   5.927   3.573   3.818
  160SAPE  H12X18028   5.851   3.494   3.836
  160SAPE  H12Y18029   5.906   3.616   3.718
  160SAPE  C31318030   5.917   3.685   3.921
  160SAPE  H13X18031   6.005   3.750   3.899
  160SAPE  H13Y18032   5.934   3.647   4.024
  160SAPE  C31418033   5.791   3.771   3.911
  160SAPE  H14X18034   5.779   3.808   3.806
  160SAPE  H14Y18035   5.807   3.861   3.975
  160SAPE  C31518036   5.658   3.706   3.953
  160SAPE  H15X18037   5.609   3.672   3.861
  160SAPE  H15Y18038   5.592   3.785   3.995
  160SAPE  C31618039   5.654   3.588   4.051
  160SAPE  H16X18040   5.679   3.620   4.154
  160SAPE  H16Y18041   5.728   3.513   4.022
  160SAPE  C31718042   5.515   3.520   4.044
  160SAPE  H17X18043   5.519   3.432   3.976
  160SAPE  H17Y18044   5.446   3.593   3.997
  160SAPE  C31818045   5.450   3.479   4.176
  160SAPE  H18X18046   5.493   3.386   4.219
  160SAPE  H18Y18047   5.342   3.460   4.155
  160SAPE  H18Z18048   5.457   3.560   4.250
  161SAPE     N18049   5.335   4.853   2.104
  161SAPE   HN118050   5.272   4.824   2.026
  161SAPE   HN218051   5.292   4.828   2.195
  161SAPE   HN318052   5.340   4.957   2.094
  161SAPE   C1218053   5.474   4.797   2.079
  161SAPE  H12A18054   5.518   4.854   1.996
  161SAPE  H12B18055   5.465   4.690   2.049
  161SAPE   C1118056   5.566   4.808   2.201
  161SAPE  H11A18057   5.525   4.745   2.284
  161SAPE  H11B18058   5.570   4.914   2.237
  161SAPE     P18059   5.778   4.658   2.240
  161SAPE   O1318060   5.728   4.526   2.198
  161SAPE   O1418061   5.924   4.681   2.224
  161SAPE   O1218062   5.698   4.769   2.161
  161SAPE   O1118063   5.736   4.689   2.388
  161SAPE    C118064   5.772   4.818   2.438
  161SAPE    HA18065   5.761   4.899   2.363
  161SAPE    HB18066   5.702   4.843   2.520
  161SAPE    C218067   5.916   4.815   2.492
  161SAPE    HS18068   5.984   4.769   2.417
  161SAPE   O2118069   5.906   4.736   2.610
  161SAPE   C2118070   6.010   4.669   2.645
  161SAPE   O2218071   6.118   4.665   2.587
  161SAPE   C2218072   5.980   4.604   2.781
  161SAPE   H2R18073   5.871   4.605   2.802
  161SAPE   H2S18074   6.013   4.501   2.767
  161SAPE    C318075   5.973   4.957   2.520
  161SAPE    HX18076   5.929   5.031   2.448
  161SAPE    HY18077   6.082   4.952   2.498
  161SAPE   O3118078   5.953   4.993   2.659
  161SAPE   C3118079   5.824   5.013   2.684
  161SAPE   O3218080   5.748   5.081   2.618
  161SAPE   C3218081   5.775   4.919   2.793
  161SAPE   H2X18082   5.849   4.838   2.806
  161SAPE   H2Y18083   5.679   4.875   2.757
  161SAPE   C2318084   6.061   4.679   2.888
  161SAPE   H3R18085   6.039   4.788   2.886
  161SAPE   H3S18086   6.165   4.664   2.852
  161SAPE   C2418087   6.069   4.634   3.036
  161SAPE   H4R18088   6.136   4.710   3.080
  161SAPE   H4S18089   6.132   4.542   3.039
  161SAPE   C2518090   5.950   4.615   3.126
  161SAPE   H5R18091   5.868   4.554   3.085
  161SAPE   C2618092   5.939   4.662   3.252
  161SAPE   H6R18093   5.853   4.630   3.313
  161SAPE   C2718094   6.042   4.742   3.328
  161SAPE   H7R18095   5.992   4.825   3.383
  161SAPE   H7S18096   6.113   4.793   3.260
  161SAPE   C2818097   6.117   4.650   3.421
  161SAPE   H8R18098   6.126   4.545   3.386
  161SAPE   C2918099   6.175   4.682   3.537
  161SAPE   H9R18100   6.227   4.602   3.592
  161SAPE  C21018101   6.181   4.818   3.603
  161SAPE  H10R18102   6.134   4.896   3.540
  161SAPE  H10S18103   6.288   4.850   3.612
  161SAPE  C21118104   6.121   4.808   3.741
  161SAPE  H11R18105   6.184   4.755   3.813
  161SAPE  C21218106   6.001   4.854   3.783
  161SAPE  H12R18107   5.970   4.833   3.886
  161SAPE  C21318108   5.900   4.928   3.700
  161SAPE  H13R18109   5.943   4.935   3.598
  161SAPE  H13S18110   5.894   5.031   3.740
  161SAPE  C21418111   5.756   4.890   3.676
  161SAPE  H14R18112   5.736   4.867   3.570
  161SAPE  C21518113   5.654   4.894   3.763
  161SAPE  H15R18114   5.553   4.862   3.731
  161SAPE  C21618115   5.667   4.939   3.906
  161SAPE  H16R18116   5.773   4.926   3.939
  161SAPE  H16S18117   5.607   4.871   3.971
  161SAPE  C21718118   5.631   5.084   3.941
  161SAPE  H17R18119   5.521   5.102   3.932
  161SAPE  H17S18120   5.684   5.156   3.874
  161SAPE  C21818121   5.677   5.107   4.085
  161SAPE  H18R18122   5.788   5.101   4.087
  161SAPE  H18S18123   5.640   5.023   4.148
  161SAPE  C21918124   5.634   5.237   4.150
  161SAPE  H19R18125   5.523   5.246   4.154
  161SAPE  H19S18126   5.670   5.322   4.089
  161SAPE  C22018127   5.691   5.246   4.291
  161SAPE  H20R18128   5.739   5.344   4.309
  161SAPE  H20S18129   5.769   5.169   4.305
  161SAPE  H20T18130   5.613   5.230   4.368
  161SAPE   C3318131   5.757   4.988   2.927
  161SAPE   H3X18132   5.666   5.052   2.929
  161SAPE   H3Y18133   5.848   5.052   2.936
  161SAPE   C3418134   5.760   4.892   3.045
  161SAPE   H4X18135   5.822   4.937   3.125
  161SAPE   H4Y18136   5.810   4.799   3.013
  161SAPE   C3518137   5.622   4.859   3.106
  161SAPE   H5X18138   5.579   4.788   3.034
  161SAPE   H5Y18139   5.554   4.946   3.105
  161SAPE   C3618140   5.638   4.800   3.247
  161SAPE   H6X18141   5.719   4.854   3.300
  161SAPE   H6Y18142   5.674   4.697   3.234
  161SAPE   C3718143   5.517   4.794   3.342
  161SAPE   H7X18144   5.427   4.764   3.285
  161SAPE   H7Y18145   5.499   4.894   3.387
  161SAPE   C3818146   5.541   4.689   3.452
  161SAPE   H8X18147   5.614   4.727   3.525
  161SAPE   H8Y18148   5.588   4.600   3.405
  161SAPE   C3918149   5.419   4.636   3.529
  161SAPE   H9X18150   5.330   4.640   3.462
  161SAPE   H9Y18151   5.396   4.699   3.617
  161SAPE  C31018152   5.438   4.488   3.569
  161SAPE  H10X18153   5.480   4.433   3.483
  161SAPE  H10Y18154   5.338   4.444   3.592
  161SAPE  C31118155   5.533   4.458   3.687
  161SAPE  H11X18156   5.522   4.351   3.716
  161SAPE  H11Y18157   5.503   4.522   3.771
  161SAPE  C31218158   5.681   4.491   3.665
  161SAPE  H12X18159   5.687   4.602   3.663
  161SAPE  H12Y18160   5.719   4.454   3.568
  161SAPE  C31318161   5.770   4.448   3.783
  161SAPE  H13X18162   5.814   4.348   3.763
  161SAPE  H13Y18163   5.709   4.439   3.875
  161SAPE  C31418164   5.879   4.551   3.810
  161SAPE  H14X18165   5.836   4.652   3.800
  161SAPE  H14Y18166   5.955   4.543   3.729
  161SAPE  C31518167   5.949   4.541   3.947
  161SAPE  H15X18168   6.050   4.585   3.936
  161SAPE  H15Y18169   5.960   4.434   3.976
  161SAPE  C31618170   5.878   4.614   4.062
  161SAPE  H16X18171   5.800   4.546   4.102
  161SAPE  H16Y18172   5.827   4.705   4.024
  161SAPE  C31718173   5.975   4.654   4.175
  161SAPE  H17X18174   6.042   4.567   4.197
  161SAPE  H17Y18175   5.915   4.675   4.267
  161SAPE  C31818176   6.063   4.775   4.146
  161SAPE  H18X18177   6.154   4.743   4.091
  161SAPE  H18Y18178   6.094   4.823   4.242
  161SAPE  H18Z18179   6.010   4.851   4.086
  162SAPE     N18180   5.886   4.170   2.360
  162SAPE   HN118181   5.888   4.115   2.448
  162SAPE   HN218182   5.788   4.195   2.333
  162SAPE   HN318183   5.930   4.109   2.287
  162SAPE   C1218184   5.972   4.294   2.370
  162SAPE  H12A18185   6.006   4.305   2.474
  162SAPE  H12B18186   5.908   4.381   2.344
  162SAPE   C1118187   6.092   4.287   2.273
  162SAPE  H11A18188   6.152   4.380   2.285
  162SAPE  H11B18189   6.046   4.293   2.171
  162SAPE     P18190   6.243   4.111   2.158
  162SAPE   O1318191   6.126   4.093   2.070
  162SAPE   O1418192   6.359   4.190   2.109
  162SAPE   O1218193   6.178   4.171   2.293
  162SAPE   O1118194   6.296   3.967   2.198
  162SAPE    C118195   6.218   3.848   2.188
  162SAPE    HA18196   6.147   3.851   2.102
  162SAPE    HB18197   6.286   3.762   2.171
  162SAPE    C218198   6.141   3.828   2.320
  162SAPE    HS18199   6.060   3.904   2.314
  162SAPE   O2118200   6.232   3.852   2.429
  162SAPE   C2118201   6.188   3.936   2.520
  162SAPE   O2218202   6.074   3.980   2.529
  162SAPE   C2218203   6.303   3.977   2.611
  162SAPE   H2R18204   6.383   3.900   2.605
  162SAPE   H2S18205   6.342   4.072   2.569
  162SAPE    C318206   6.075   3.688   2.340
  162SAPE    HX18207   6.156   3.611   2.338
  162SAPE    HY18208   6.008   3.664   2.256
  162SAPE   O3118209   6.005   3.680   2.467
  162SAPE   C3118210   5.900   3.758   2.483
  162SAPE   O3218211   5.853   3.833   2.399
  162SAPE   C3218212   5.845   3.739   2.625
  162SAPE   H2X18213   5.853   3.632   2.647
  162SAPE   H2Y18214   5.737   3.766   2.624
  162SAPE   C2318215   6.264   4.000   2.758
  162SAPE   H3R18216   6.215   3.911   2.802
  162SAPE   H3S18217   6.191   4.084   2.765
  162SAPE   C2418218   6.390   4.035   2.839
  162SAPE   H4R18219   6.432   4.128   2.796
  162SAPE   H4S18220   6.467   3.957   2.820
  162SAPE   C2518221   6.361   4.048   2.986
  162SAPE   H5R18222   6.353   3.955   3.044
  162SAPE   C2618223   6.342   4.166   3.048
  162SAPE   H6R18224   6.317   4.166   3.155
  162SAPE   C2718225   6.347   4.300   2.980
  162SAPE   H7R18226   6.444   4.312   2.926
  162SAPE   H7S18227   6.344   4.382   3.055
  162SAPE   C2818228   6.233   4.316   2.881
  162SAPE   H8R18229   6.263   4.331   2.776
  162SAPE   C2918230   6.102   4.316   2.912
  162SAPE   H9R18231   6.028   4.321   2.831
  162SAPE  C21018232   6.044   4.302   3.050
  162SAPE  H10R18233   5.966   4.379   3.058
  162SAPE  H10S18234   6.120   4.326   3.127
  162SAPE  C21118235   5.973   4.175   3.081
  162SAPE  H11R18236   5.927   4.125   2.995
  162SAPE  C21218237   5.955   4.127   3.206
  162SAPE  H12R18238   5.902   4.033   3.218
  162SAPE  C21318239   6.002   4.191   3.335
  162SAPE  H13R18240   6.030   4.297   3.318
  162SAPE  H13S18241   6.094   4.139   3.368
  162SAPE  C21418242   5.896   4.187   3.442
  162SAPE  H14R18243   5.793   4.168   3.407
  162SAPE  C21518244   5.915   4.196   3.575
  162SAPE  H15R18245   5.827   4.182   3.640
  162SAPE  C21618246   6.046   4.209   3.650
  162SAPE  H16R18247   6.128   4.162   3.591
  162SAPE  H16S18248   6.029   4.150   3.743
  162SAPE  C21718249   6.106   4.340   3.707
  162SAPE  H17R18250   6.044   4.366   3.794
  162SAPE  H17S18251   6.101   4.422   3.633
  162SAPE  C21818252   6.251   4.325   3.760
  162SAPE  H18R18253   6.320   4.330   3.673
  162SAPE  H18S18254   6.263   4.224   3.806
  162SAPE  C21918255   6.296   4.430   3.864
  162SAPE  H19R18256   6.256   4.530   3.838
  162SAPE  H19S18257   6.407   4.437   3.861
  162SAPE  C22018258   6.259   4.395   4.009
  162SAPE  H20R18259   6.317   4.306   4.042
  162SAPE  H20S18260   6.152   4.370   4.018
  162SAPE  H20T18261   6.283   4.478   4.079
  162SAPE   C3318262   5.917   3.820   2.737
  162SAPE   H3X18263   5.880   3.925   2.735
  162SAPE   H3Y18264   6.026   3.823   2.718
  162SAPE   C3418265   5.898   3.759   2.878
  162SAPE   H4X18266   5.989   3.701   2.904
  162SAPE   H4Y18267   5.811   3.690   2.877
  162SAPE   C3518268   5.878   3.859   2.992
  162SAPE   H5X18269   5.789   3.921   2.969
  162SAPE   H5Y18270   5.967   3.925   2.995
  162SAPE   C3618271   5.860   3.792   3.131
  162SAPE   H6X18272   5.791   3.706   3.124
  162SAPE   H6Y18273   5.809   3.866   3.197
  162SAPE   C3718274   5.993   3.751   3.198
  162SAPE   H7X18275   6.067   3.832   3.178
  162SAPE   H7Y18276   6.031   3.659   3.149
  162SAPE   C3818277   5.989   3.732   3.351
  162SAPE   H8X18278   5.929   3.642   3.376
  162SAPE   H8Y18279   5.938   3.819   3.397
  162SAPE   C3918280   6.132   3.720   3.411
  162SAPE   H9X18281   6.195   3.803   3.372
  162SAPE   H9Y18282   6.176   3.625   3.373
  162SAPE  C31018283   6.141   3.721   3.566
  162SAPE  H10X18284   6.246   3.703   3.599
  162SAPE  H10Y18285   6.082   3.632   3.595
  162SAPE  C31118286   6.081   3.845   3.637
  162SAPE  H11X18287   5.976   3.819   3.663
  162SAPE  H11Y18288   6.073   3.924   3.559
  162SAPE  C31218289   6.145   3.914   3.763
  162SAPE  H12X18290   6.070   3.926   3.845
  162SAPE  H12Y18291   6.164   4.015   3.726
  162SAPE  C31318292   6.285   3.889   3.820
  162SAPE  H13X18293   6.332   3.986   3.847
  162SAPE  H13Y18294   6.346   3.845   3.738
  162SAPE  C31418295   6.292   3.799   3.945
  162SAPE  H14X18296   6.398   3.765   3.953
  162SAPE  H14Y18297   6.224   3.715   3.922
  162SAPE  C31518298   6.253   3.840   4.088
  162SAPE  H15X18299   6.151   3.884   4.090
  162SAPE  H15Y18300   6.328   3.913   4.122
  162SAPE  C31618301   6.262   3.714   4.177
  162SAPE  H16X18302   6.364   3.672   4.162
  162SAPE  H16Y18303   6.187   3.643   4.134
  162SAPE  C31718304   6.240   3.711   4.330
  162SAPE  H17X18305   6.290   3.617   4.365
  162SAPE  H17Y18306   6.132   3.695   4.352
  162SAPE  C31818307   6.293   3.826   4.416
  162SAPE  H18X18308   6.400   3.847   4.395
  162SAPE  H18Y18309   6.282   3.800   4.524
  162SAPE  H18Z18310   6.235   3.919   4.401
  163SAPE     N18311   4.803   5.779   2.290
  163SAPE   HN118312   4.900   5.817   2.295
  163SAPE   HN218313   4.791   5.685   2.338
  163SAPE   HN318314   4.777   5.765   2.191
  163SAPE   C1218315   4.707   5.882   2.344
  163SAPE  H12A18316   4.750   5.925   2.436
  163SAPE  H12B18317   4.611   5.831   2.368
  163SAPE   C1118318   4.686   5.992   2.239
  163SAPE  H11A18319   4.607   6.061   2.279
  163SAPE  H11B18320   4.647   5.950   2.143
  163SAPE     P18321   4.807   6.212   2.185
  163SAPE   O1318322   4.944   6.261   2.156
  163SAPE   O1418323   4.704   6.236   2.083
  163SAPE   O1218324   4.812   6.057   2.217
  163SAPE   O1118325   4.762   6.273   2.324
  163SAPE    C118326   4.833   6.381   2.383
  163SAPE    HA18327   4.939   6.389   2.349
  163SAPE    HB18328   4.783   6.478   2.359
  163SAPE    C218329   4.842   6.367   2.537
  163SAPE    HS18330   4.891   6.462   2.571
  163SAPE   O2118331   4.921   6.250   2.573
  163SAPE   C2118332   4.959   6.258   2.700
  163SAPE   O2218333   4.980   6.362   2.758
  163SAPE   C2218334   4.967   6.121   2.767
  163SAPE   H2R18335   5.056   6.070   2.725
  163SAPE   H2S18336   4.984   6.136   2.876
  163SAPE    C318337   4.702   6.359   2.606
  163SAPE    HX18338   4.629   6.415   2.543
  163SAPE    HY18339   4.714   6.415   2.701
  163SAPE   O3118340   4.662   6.223   2.639
  163SAPE   C3118341   4.552   6.175   2.582
  163SAPE   O3218342   4.483   6.234   2.501
  163SAPE   C3218343   4.518   6.037   2.640
  163SAPE   H2X18344   4.608   5.982   2.669
  163SAPE   H2Y18345   4.468   5.982   2.558
  163SAPE   C2318346   4.843   6.030   2.751
  163SAPE   H3R18347   4.809   6.030   2.645
  163SAPE   H3S18348   4.760   6.066   2.816
  163SAPE   C2418349   4.878   5.886   2.787
  163SAPE   H4R18350   4.958   5.887   2.863
  163SAPE   H4S18351   4.921   5.846   2.693
  163SAPE   C2518352   4.777   5.786   2.828
  163SAPE   H5R18353   4.753   5.713   2.748
  163SAPE   C2618354   4.720   5.765   2.947
  163SAPE   H6R18355   4.677   5.666   2.954
  163SAPE   C2718356   4.733   5.832   3.082
  163SAPE   H7R18357   4.652   5.906   3.090
  163SAPE   H7S18358   4.825   5.894   3.088
  163SAPE   C2818359   4.723   5.733   3.197
  163SAPE   H8R18360   4.731   5.627   3.167
  163SAPE   C2918361   4.706   5.757   3.329
  163SAPE   H9R18362   4.703   5.673   3.400
  163SAPE  C21018363   4.693   5.891   3.394
  163SAPE  H10R18364   4.585   5.903   3.412
  163SAPE  H10S18365   4.720   5.967   3.318
  163SAPE  C21118366   4.770   5.927   3.520
  163SAPE  H11R18367   4.851   5.996   3.493
  163SAPE  C21218368   4.765   5.897   3.653
  163SAPE  H12R18369   4.844   5.945   3.714
  163SAPE  C21318370   4.679   5.810   3.740
  163SAPE  H13R18371   4.584   5.795   3.687
  163SAPE  H13S18372   4.652   5.871   3.829
  163SAPE  C21418373   4.735   5.675   3.787
  163SAPE  H14R18374   4.773   5.612   3.705
  163SAPE  C21518375   4.738   5.622   3.913
  163SAPE  H15R18376   4.780   5.520   3.924
  163SAPE  C21618377   4.687   5.683   4.043
  163SAPE  H16R18378   4.587   5.640   4.062
  163SAPE  H16S18379   4.672   5.793   4.030
  163SAPE  C21718380   4.751   5.659   4.182
  163SAPE  H17R18381   4.837   5.589   4.173
  163SAPE  H17S18382   4.678   5.606   4.247
  163SAPE  C21818383   4.795   5.786   4.257
  163SAPE  H18R18384   4.848   5.858   4.191
  163SAPE  H18S18385   4.868   5.756   4.335
  163SAPE  C21918386   4.683   5.867   4.323
  163SAPE  H19R18387   4.629   5.803   4.396
  163SAPE  H19S18388   4.611   5.901   4.246
  163SAPE  C22018389   4.743   5.988   4.395
  163SAPE  H20R18390   4.664   6.057   4.432
  163SAPE  H20S18391   4.809   6.044   4.325
  163SAPE  H20T18392   4.805   5.954   4.481
  163SAPE   C3318393   4.420   6.041   2.760
  163SAPE   H3X18394   4.364   5.944   2.760
  163SAPE   H3Y18395   4.342   6.120   2.746
  163SAPE   C3418396   4.484   6.052   2.899
  163SAPE   H4X18397   4.550   6.142   2.903
  163SAPE   H4Y18398   4.548   5.963   2.914
  163SAPE   C3518399   4.379   6.056   3.013
  163SAPE   H5X18400   4.314   5.966   3.002
  163SAPE   H5Y18401   4.314   6.145   2.997
  163SAPE   C3618402   4.434   6.061   3.157
  163SAPE   H6X18403   4.500   5.976   3.180
  163SAPE   H6Y18404   4.347   6.052   3.226
  163SAPE   C3718405   4.507   6.192   3.185
  163SAPE   H7X18406   4.427   6.268   3.180
  163SAPE   H7Y18407   4.581   6.211   3.105
  163SAPE   C3818408   4.582   6.208   3.318
  163SAPE   H8X18409   4.600   6.317   3.328
  163SAPE   H8Y18410   4.684   6.165   3.309
  163SAPE   C3918411   4.510   6.159   3.444
  163SAPE   H9X18412   4.563   6.077   3.494
  163SAPE   H9Y18413   4.409   6.122   3.419
  163SAPE  C31018414   4.500   6.265   3.552
  163SAPE  H10X18415   4.449   6.221   3.641
  163SAPE  H10Y18416   4.433   6.340   3.506
  163SAPE  C31118417   4.632   6.331   3.599
  163SAPE  H11X18418   4.612   6.377   3.698
  163SAPE  H11Y18419   4.661   6.412   3.529
  163SAPE  C31218420   4.749   6.232   3.609
  163SAPE  H12X18421   4.769   6.191   3.508
  163SAPE  H12Y18422   4.715   6.150   3.676
  163SAPE  C31318423   4.884   6.286   3.660
  163SAPE  H13X18424   4.930   6.349   3.581
  163SAPE  H13Y18425   4.951   6.198   3.677
  163SAPE  C31418426   4.875   6.367   3.789
  163SAPE  H14X18427   4.821   6.462   3.766
  163SAPE  H14Y18428   4.977   6.395   3.823
  163SAPE  C31518429   4.803   6.297   3.905
  163SAPE  H15X18430   4.865   6.214   3.945
  163SAPE  H15Y18431   4.706   6.253   3.872
  163SAPE  C31618432   4.773   6.402   4.012
  163SAPE  H16X18433   4.708   6.480   3.968
  163SAPE  H16Y18434   4.869   6.450   4.041
  163SAPE  C31718435   4.706   6.350   4.139
  163SAPE  H17X18436   4.769   6.270   4.184
  163SAPE  H17Y18437   4.607   6.306   4.115
  163SAPE  C31818438   4.690   6.465   4.237
  163SAPE  H18X18439   4.728   6.436   4.337
  163SAPE  H18Y18440   4.584   6.496   4.245
  163SAPE  H18Z18441   4.748   6.554   4.204
  164SAPE     N18442   5.005   0.683   1.945
  164SAPE   HN118443   4.940   0.631   1.883
  164SAPE   HN218444   4.956   0.718   2.031
  164SAPE   HN318445   5.048   0.768   1.903
  164SAPE   C1218446   5.108   0.597   2.010
  164SAPE  H12A18447   5.187   0.574   1.936
  164SAPE  H12B18448   5.059   0.504   2.047
  164SAPE   C1118449   5.159   0.680   2.127
  164SAPE  H11A18450   5.228   0.756   2.082
  164SAPE  H11B18451   5.222   0.620   2.197
  164SAPE     P18452   5.078   0.864   2.282
  164SAPE   O1318453   5.224   0.883   2.281
  164SAPE   O1418454   4.997   0.980   2.236
  164SAPE   O1218455   5.045   0.738   2.194
  164SAPE   O1118456   5.027   0.810   2.421
  164SAPE    C118457   4.886   0.806   2.451
  164SAPE    HA18458   4.865   0.875   2.535
  164SAPE    HB18459   4.822   0.840   2.365
  164SAPE    C218460   4.828   0.668   2.497
  164SAPE    HS18461   4.720   0.682   2.517
  164SAPE   O2118462   4.894   0.628   2.619
  164SAPE   C2118463   4.843   0.522   2.679
  164SAPE   O2218464   4.759   0.446   2.635
  164SAPE   C2218465   4.895   0.506   2.819
  164SAPE   H2R18466   4.898   0.398   2.844
  164SAPE   H2S18467   4.995   0.549   2.821
  164SAPE    C318468   4.841   0.559   2.384
  164SAPE    HX18469   4.800   0.608   2.293
  164SAPE    HY18470   4.773   0.474   2.406
  164SAPE   O3118471   4.976   0.517   2.356
  164SAPE   C3118472   5.016   0.400   2.406
  164SAPE   O3218473   4.943   0.314   2.451
  164SAPE   C3218474   5.170   0.397   2.401
  164SAPE   H2X18475   5.204   0.477   2.333
  164SAPE   H2Y18476   5.200   0.300   2.359
  164SAPE   C2318477   4.806   0.582   2.919
  164SAPE   H3R18478   4.728   0.514   2.958
  164SAPE   H3S18479   4.755   0.667   2.866
  164SAPE   C2418480   4.886   0.648   3.031
  164SAPE   H4R18481   4.815   0.689   3.106
  164SAPE   H4S18482   4.938   0.735   2.985
  164SAPE   C2518483   4.996   0.565   3.089
  164SAPE   H5R18484   5.070   0.527   3.017
  164SAPE   C2618485   5.010   0.536   3.218
  164SAPE   H6R18486   5.105   0.493   3.251
  164SAPE   C2718487   4.918   0.581   3.327
  164SAPE   H7R18488   4.898   0.690   3.320
  164SAPE   H7S18489   4.968   0.564   3.424
  164SAPE   C2818490   4.790   0.500   3.320
  164SAPE   H8R18491   4.791   0.412   3.253
  164SAPE   C2918492   4.676   0.530   3.383
  164SAPE   H9R18493   4.591   0.461   3.374
  164SAPE  C21018494   4.654   0.649   3.471
  164SAPE  H10R18495   4.548   0.648   3.505
  164SAPE  H10S18496   4.662   0.740   3.406
  164SAPE  C21118497   4.749   0.664   3.588
  164SAPE  H11R18498   4.853   0.678   3.557
  164SAPE  C21218499   4.719   0.673   3.719
  164SAPE  H12R18500   4.804   0.681   3.788
  164SAPE  C21318501   4.582   0.673   3.782
  164SAPE  H13R18502   4.506   0.634   3.711
  164SAPE  H13S18503   4.554   0.778   3.797
  164SAPE  C21418504   4.565   0.600   3.913
  164SAPE  H14R18505   4.616   0.503   3.915
  164SAPE  C21518506   4.488   0.634   4.019
  164SAPE  H15R18507   4.487   0.568   4.107
  164SAPE  C21618508   4.397   0.754   4.030
  164SAPE  H16R18509   4.317   0.732   4.105
  164SAPE  H16S18510   4.344   0.777   3.935
  164SAPE  C21718511   4.472   0.878   4.083
  164SAPE  H17R18512   4.510   0.847   4.183
  164SAPE  H17S18513   4.400   0.961   4.098
  164SAPE  C21818514   4.588   0.929   3.997
  164SAPE  H18R18515   4.550   0.965   3.899
  164SAPE  H18S18516   4.659   0.846   3.977
  164SAPE  C21918517   4.667   1.043   4.063
  164SAPE  H19R18518   4.611   1.137   4.047
  164SAPE  H19S18519   4.765   1.052   4.011
  164SAPE  C22018520   4.690   1.024   4.213
  164SAPE  H20R18521   4.741   1.111   4.257
  164SAPE  H20S18522   4.750   0.932   4.234
  164SAPE  H20T18523   4.594   1.014   4.267
  164SAPE   C3318524   5.234   0.421   2.539
  164SAPE   H3X18525   5.344   0.404   2.532
  164SAPE   H3Y18526   5.193   0.347   2.612
  164SAPE   C3418527   5.211   0.563   2.591
  164SAPE   H4X18528   5.107   0.592   2.570
  164SAPE   H4Y18529   5.274   0.635   2.535
  164SAPE   C3518530   5.236   0.575   2.742
  164SAPE   H5X18531   5.339   0.540   2.761
  164SAPE   H5Y18532   5.171   0.504   2.796
  164SAPE   C3618533   5.218   0.716   2.800
  164SAPE   H6X18534   5.113   0.749   2.791
  164SAPE   H6Y18535   5.282   0.783   2.738
  164SAPE   C3718536   5.267   0.718   2.945
  164SAPE   H7X18537   5.377   0.730   2.941
  164SAPE   H7Y18538   5.242   0.618   2.986
  164SAPE   C3818539   5.217   0.818   3.050
  164SAPE   H8X18540   5.109   0.837   3.038
  164SAPE   H8Y18541   5.269   0.915   3.037
  164SAPE   C3918542   5.243   0.762   3.192
  164SAPE   H9X18543   5.291   0.662   3.192
  164SAPE   H9Y18544   5.144   0.752   3.242
  164SAPE  C31018545   5.321   0.859   3.278
  164SAPE  H10X18546   5.269   0.953   3.260
  164SAPE  H10Y18547   5.425   0.873   3.241
  164SAPE  C31118548   5.323   0.831   3.429
  164SAPE  H11X18549   5.311   0.928   3.480
  164SAPE  H11Y18550   5.424   0.797   3.451
  164SAPE  C31218551   5.223   0.732   3.493
  164SAPE  H12X18552   5.243   0.629   3.455
  164SAPE  H12Y18553   5.118   0.756   3.465
  164SAPE  C31318554   5.235   0.732   3.647
  164SAPE  H13X18555   5.301   0.815   3.679
  164SAPE  H13Y18556   5.287   0.638   3.676
  164SAPE  C31418557   5.105   0.743   3.728
  164SAPE  H14X18558   5.028   0.679   3.679
  164SAPE  H14Y18559   5.067   0.848   3.727
  164SAPE  C31518560   5.126   0.696   3.873
  164SAPE  H15X18561   5.138   0.779   3.944
  164SAPE  H15Y18562   5.220   0.637   3.875
  164SAPE  C31618563   5.021   0.601   3.928
  164SAPE  H16X18564   5.072   0.525   3.991
  164SAPE  H16Y18565   4.975   0.549   3.842
  164SAPE  C31718566   4.915   0.666   4.017
  164SAPE  H17X18567   4.821   0.607   4.004
  164SAPE  H17Y18568   4.893   0.770   3.984
  164SAPE  C31818569   4.953   0.662   4.164
  164SAPE  H18X18570   4.871   0.616   4.220
  164SAPE  H18Y18571   4.965   0.764   4.206
  164SAPE  H18Z18572   5.044   0.602   4.185
  165SAPE     N18573   1.154   1.540   2.050
  165SAPE   HN118574   1.252   1.571   2.073
  165SAPE   HN218575   1.158   1.492   1.957
  165SAPE   HN318576   1.091   1.623   2.046
  165SAPE   C1218577   1.119   1.443   2.159
  165SAPE  H12A18578   1.166   1.346   2.133
  165SAPE  H12B18579   1.009   1.430   2.162
  165SAPE   C1118580   1.174   1.495   2.293
  165SAPE  H11A18581   1.174   1.415   2.370
  165SAPE  H11B18582   1.106   1.574   2.331
  165SAPE     P18583   1.438   1.470   2.266
  165SAPE   O1318584   1.419   1.374   2.156
  165SAPE   O1418585   1.550   1.565   2.251
  165SAPE   O1218586   1.303   1.554   2.275
  165SAPE   O1118587   1.444   1.390   2.404
  165SAPE    C118588   1.392   1.256   2.415
  165SAPE    HA18589   1.289   1.247   2.372
  165SAPE    HB18590   1.457   1.185   2.360
  165SAPE    C218591   1.381   1.205   2.564
  165SAPE    HS18592   1.336   1.104   2.562
  165SAPE   O2118593   1.295   1.295   2.637
  165SAPE   C2118594   1.265   1.265   2.763
  165SAPE   O2218595   1.307   1.170   2.826
  165SAPE   C2218596   1.165   1.369   2.816
  165SAPE   H2R18597   1.212   1.469   2.807
  165SAPE   H2S18598   1.075   1.364   2.751
  165SAPE    C318599   1.525   1.194   2.626
  165SAPE    HX18600   1.577   1.114   2.568
  165SAPE    HY18601   1.522   1.155   2.731
  165SAPE   O3118602   1.602   1.315   2.612
  165SAPE   C3118603   1.578   1.403   2.708
  165SAPE   O3218604   1.513   1.380   2.809
  165SAPE   C3218605   1.649   1.534   2.680
  165SAPE   H2X18606   1.578   1.602   2.629
  165SAPE   H2Y18607   1.735   1.514   2.613
  165SAPE   C2318608   1.127   1.340   2.962
  165SAPE   H3R18609   1.217   1.355   3.028
  165SAPE   H3S18610   1.098   1.233   2.969
  165SAPE   C2418611   1.009   1.423   3.014
  165SAPE   H4R18612   0.920   1.404   2.949
  165SAPE   H4S18613   1.034   1.531   3.005
  165SAPE   C2518614   0.978   1.383   3.157
  165SAPE   H5R18615   0.926   1.287   3.167
  165SAPE   C2618616   1.012   1.450   3.268
  165SAPE   H6R18617   0.986   1.408   3.366
  165SAPE   C2718618   1.089   1.579   3.273
  165SAPE   H7R18619   1.153   1.590   3.182
  165SAPE   H7S18620   1.161   1.574   3.358
  165SAPE   C2818621   1.001   1.700   3.284
  165SAPE   H8R18622   0.970   1.745   3.188
  165SAPE   C2918623   0.955   1.751   3.399
  165SAPE   H9R18624   0.888   1.839   3.395
  165SAPE  C21018625   0.986   1.697   3.537
  165SAPE  H10R18626   1.071   1.626   3.537
  165SAPE  H10S18627   0.899   1.635   3.568
  165SAPE  C21118628   1.012   1.804   3.639
  165SAPE  H11R18629   1.008   1.909   3.604
  165SAPE  C21218630   1.031   1.780   3.770
  165SAPE  H12R18631   1.045   1.865   3.839
  165SAPE  C21318632   1.032   1.643   3.834
  165SAPE  H13R18633   1.070   1.655   3.938
  165SAPE  H13S18634   1.104   1.578   3.782
  165SAPE  C21418635   0.896   1.577   3.841
  165SAPE  H14R18636   0.813   1.646   3.836
  165SAPE  C21518637   0.864   1.448   3.845
  165SAPE  H15R18638   0.758   1.420   3.856
  165SAPE  C21618639   0.961   1.334   3.846
  165SAPE  H16R18640   1.055   1.360   3.792
  165SAPE  H16S18641   0.916   1.249   3.793
  165SAPE  C21718642   0.991   1.291   3.989
  165SAPE  H17R18643   1.052   1.198   3.985
  165SAPE  H17S18644   0.896   1.263   4.040
  165SAPE  C21818645   1.063   1.397   4.073
  165SAPE  H18R18646   1.000   1.489   4.078
  165SAPE  H18S18647   1.160   1.425   4.027
  165SAPE  C21918648   1.082   1.347   4.216
  165SAPE  H19R18649   1.164   1.272   4.219
  165SAPE  H19S18650   0.988   1.294   4.242
  165SAPE  C22018651   1.107   1.458   4.318
  165SAPE  H20R18652   1.127   1.413   4.418
  165SAPE  H20S18653   1.017   1.523   4.326
  165SAPE  H20T18654   1.194   1.520   4.289
  165SAPE   C3318655   1.694   1.592   2.815
  165SAPE   H3X18656   1.776   1.666   2.800
  165SAPE   H3Y18657   1.736   1.511   2.879
  165SAPE   C3418658   1.580   1.656   2.895
  165SAPE   H4X18659   1.486   1.597   2.886
  165SAPE   H4Y18660   1.553   1.755   2.852
  165SAPE   C3518661   1.616   1.662   3.043
  165SAPE   H5X18662   1.700   1.732   3.064
  165SAPE   H5Y18663   1.658   1.564   3.072
  165SAPE   C3618664   1.496   1.702   3.127
  165SAPE   H6X18665   1.430   1.772   3.069
  165SAPE   H6Y18666   1.531   1.759   3.216
  165SAPE   C3718667   1.416   1.582   3.177
  165SAPE   H7X18668   1.350   1.542   3.096
  165SAPE   H7Y18669   1.351   1.619   3.259
  165SAPE   C3818670   1.503   1.466   3.229
  165SAPE   H8X18671   1.592   1.510   3.281
  165SAPE   H8Y18672   1.540   1.405   3.143
  165SAPE   C3918673   1.430   1.378   3.329
  165SAPE   H9X18674   1.477   1.276   3.333
  165SAPE   H9Y18675   1.324   1.367   3.299
  165SAPE  C31018676   1.447   1.446   3.463
  165SAPE  H10X18677   1.429   1.556   3.449
  165SAPE  H10Y18678   1.553   1.434   3.492
  165SAPE  C31118679   1.354   1.404   3.576
  165SAPE  H11X18680   1.379   1.302   3.612
  165SAPE  H11Y18681   1.248   1.405   3.544
  165SAPE  C31218682   1.372   1.507   3.688
  165SAPE  H12X18683   1.309   1.473   3.772
  165SAPE  H12Y18684   1.333   1.606   3.657
  165SAPE  C31318685   1.522   1.525   3.722
  165SAPE  H13X18686   1.569   1.601   3.656
  165SAPE  H13Y18687   1.575   1.428   3.704
  165SAPE  C31418688   1.546   1.557   3.868
  165SAPE  H14X18689   1.510   1.658   3.897
  165SAPE  H14Y18690   1.655   1.554   3.888
  165SAPE  C31518691   1.472   1.450   3.947
  165SAPE  H15X18692   1.470   1.354   3.890
  165SAPE  H15Y18693   1.367   1.483   3.966
  165SAPE  C31618694   1.539   1.423   4.076
  165SAPE  H16X18695   1.472   1.364   4.143
  165SAPE  H16Y18696   1.551   1.523   4.120
  165SAPE  C31718697   1.672   1.350   4.057
  165SAPE  H17X18698   1.750   1.402   4.118
  165SAPE  H17Y18699   1.705   1.354   3.951
  165SAPE  C31818700   1.660   1.205   4.099
  165SAPE  H18X18701   1.626   1.141   4.014
  165SAPE  H18Y18702   1.589   1.193   4.183
  165SAPE  H18Z18703   1.756   1.166   4.132
  166SAPE     N18704   6.783   2.390   2.225
  166SAPE   HN118705   6.837   2.448   2.158
  166SAPE   HN218706   6.679   2.406   2.214
  166SAPE   HN318707   6.805   2.409   2.326
  166SAPE   C1218708   6.794   2.242   2.199
  166SAPE  H12A18709   6.774   2.190   2.295
  166SAPE  H12B18710   6.897   2.217   2.166
  166SAPE   C1118711   6.686   2.203   2.096
  166SAPE  H11A18712   6.676   2.092   2.090
  166SAPE  H11B18713   6.717   2.238   1.996
  166SAPE     P18714   6.482   2.240   2.254
  166SAPE   O1318715   6.337   2.243   2.222
  166SAPE   O1418716   6.540   2.122   2.321
  166SAPE   O1218717   6.561   2.266   2.122
  166SAPE   O1118718   6.531   2.372   2.328
  166SAPE    C118719   6.464   2.438   2.435
  166SAPE    HA18720   6.419   2.532   2.396
  166SAPE    HB18721   6.380   2.378   2.477
  166SAPE    C218722   6.567   2.469   2.548
  166SAPE    HS18723   6.655   2.517   2.497
  166SAPE   O2118724   6.594   2.345   2.611
  166SAPE   C2118725   6.719   2.315   2.602
  166SAPE   O2218726   6.792   2.330   2.504
  166SAPE   C2218727   6.764   2.294   2.745
  166SAPE   H2R18728   6.748   2.388   2.799
  166SAPE   H2S18729   6.699   2.218   2.792
  166SAPE    C318730   6.530   2.568   2.664
  166SAPE    HX18731   6.426   2.541   2.692
  166SAPE    HY18732   6.532   2.668   2.616
  166SAPE   O3118733   6.619   2.574   2.781
  166SAPE   C3118734   6.575   2.526   2.900
  166SAPE   O3218735   6.473   2.462   2.915
  166SAPE   C3218736   6.676   2.560   3.016
  166SAPE   H2X18737   6.735   2.647   2.984
  166SAPE   H2Y18738   6.740   2.470   3.025
  166SAPE   C2318739   6.913   2.267   2.755
  166SAPE   H3R18740   6.942   2.269   2.863
  166SAPE   H3S18741   6.971   2.348   2.705
  166SAPE   C2418742   6.951   2.132   2.694
  166SAPE   H4R18743   7.042   2.103   2.747
  166SAPE   H4S18744   6.979   2.151   2.588
  166SAPE   C2518745   6.848   2.021   2.699
  166SAPE   H5R18746   6.831   1.973   2.602
  166SAPE   C2618747   6.783   1.972   2.807
  166SAPE   H6R18748   6.715   1.887   2.791
  166SAPE   C2718749   6.798   2.016   2.951
  166SAPE   H7R18750   6.883   2.087   2.959
  166SAPE   H7S18751   6.832   1.926   3.007
  166SAPE   C2818752   6.683   2.076   3.029
  166SAPE   H8R18753   6.594   2.108   2.972
  166SAPE   C2918754   6.684   2.087   3.164
  166SAPE   H9R18755   6.596   2.130   3.216
  166SAPE  C21018756   6.799   2.041   3.252
  166SAPE  H10R18757   6.887   2.022   3.188
  166SAPE  H10S18758   6.771   1.942   3.294
  166SAPE  C21118759   6.853   2.125   3.364
  166SAPE  H11R18760   6.960   2.149   3.353
  166SAPE  C21218761   6.792   2.170   3.474
  166SAPE  H12R18762   6.852   2.226   3.547
  166SAPE  C21318763   6.650   2.146   3.517
  166SAPE  H13R18764   6.596   2.076   3.451
  166SAPE  H13S18765   6.594   2.242   3.514
  166SAPE  C21418766   6.660   2.091   3.657
  166SAPE  H14R18767   6.692   1.986   3.660
  166SAPE  C21518768   6.636   2.154   3.772
  166SAPE  H15R18769   6.645   2.098   3.867
  166SAPE  C21618770   6.594   2.298   3.788
  166SAPE  H16R18771   6.565   2.346   3.692
  166SAPE  H16S18772   6.676   2.359   3.831
  166SAPE  C21718773   6.472   2.302   3.882
  166SAPE  H17R18774   6.435   2.407   3.888
  166SAPE  H17S18775   6.503   2.272   3.985
  166SAPE  C21818776   6.358   2.210   3.835
  166SAPE  H18R18777   6.391   2.104   3.838
  166SAPE  H18S18778   6.331   2.233   3.730
  166SAPE  C21918779   6.236   2.224   3.926
  166SAPE  H19R18780   6.270   2.244   4.030
  166SAPE  H19S18781   6.182   2.127   3.927
  166SAPE  C22018782   6.142   2.334   3.879
  166SAPE  H20R18783   6.064   2.353   3.956
  166SAPE  H20S18784   6.089   2.303   3.787
  166SAPE  H20T18785   6.196   2.428   3.857
  166SAPE   C3318786   6.627   2.598   3.161
  166SAPE   H3X18787   6.670   2.528   3.234
  166SAPE   H3Y18788   6.518   2.579   3.166
  166SAPE   C3418789   6.662   2.744   3.210
  166SAPE   H4X18790   6.631   2.823   3.139
  166SAPE   H4Y18791   6.769   2.763   3.216
  166SAPE   C3518792   6.602   2.776   3.348
  166SAPE   H5X18793   6.568   2.680   3.393
  166SAPE   H5Y18794   6.514   2.844   3.340
  166SAPE   C3618795   6.697   2.845   3.445
  166SAPE   H6X18796   6.704   2.953   3.420
  166SAPE   H6Y18797   6.799   2.803   3.432
  166SAPE   C3718798   6.651   2.819   3.589
  166SAPE   H7X18799   6.608   2.717   3.598
  166SAPE   H7Y18800   6.566   2.883   3.616
  166SAPE   C3818801   6.765   2.832   3.690
  166SAPE   H8X18802   6.809   2.934   3.689
  166SAPE   H8Y18803   6.844   2.768   3.652
  166SAPE   C3918804   6.720   2.789   3.831
  166SAPE   H9X18805   6.693   2.681   3.828
  166SAPE   H9Y18806   6.630   2.847   3.858
  166SAPE  C31018807   6.821   2.812   3.945
  166SAPE  H10X18808   6.801   2.905   3.999
  166SAPE  H10Y18809   6.917   2.832   3.896
  166SAPE  C31118810   6.821   2.704   4.056
  166SAPE  H11X18811   6.915   2.717   4.114
  166SAPE  H11Y18812   6.822   2.601   4.014
  166SAPE  C31218813   6.705   2.724   4.156
  166SAPE  H12X18814   6.615   2.667   4.126
  166SAPE  H12Y18815   6.681   2.832   4.156
  166SAPE  C31318816   6.743   2.702   4.303
  166SAPE  H13X18817   6.831   2.768   4.320
  166SAPE  H13Y18818   6.777   2.597   4.319
  166SAPE  C31418819   6.638   2.742   4.409
  166SAPE  H14X18820   6.616   2.850   4.403
  166SAPE  H14Y18821   6.682   2.724   4.510
  166SAPE  C31518822   6.506   2.663   4.406
  166SAPE  H15X18823   6.448   2.693   4.316
  166SAPE  H15Y18824   6.444   2.688   4.496
  166SAPE  C31618825   6.533   2.513   4.402
  166SAPE  H16X18826   6.595   2.480   4.488
  166SAPE  H16Y18827   6.590   2.493   4.308
  166SAPE  C31718828   6.407   2.429   4.391
  166SAPE  H17X18829   6.341   2.486   4.322
  166SAPE  H17Y18830   6.353   2.419   4.488
  166SAPE  C31818831   6.433   2.295   4.325
  166SAPE  H18X18832   6.507   2.305   4.243
  166SAPE  H18Y18833   6.338   2.258   4.279
  166SAPE  H18Z18834   6.471   2.221   4.399
  167SAPE     N18835   3.561   7.393   2.381
  167SAPE   HN118836   3.460   7.416   2.365
  167SAPE   HN218837   3.568   7.290   2.397
  167SAPE   HN318838   3.591   7.444   2.467
  167SAPE   C1218839   3.647   7.429   2.262
  167SAPE  H12A18840   3.636   7.538   2.243
  167SAPE  H12B18841   3.610   7.373   2.174
  167SAPE   C1118842   3.794   7.398   2.287
  167SAPE  H11A18843   3.810   7.290   2.306
  167SAPE  H11B18844   3.827   7.454   2.378
  167SAPE     P18845   3.995   7.530   2.187
  167SAPE   O1318846   4.072   7.547   2.060
  167SAPE   O1418847   3.943   7.651   2.254
  167SAPE   O1218848   3.867   7.436   2.168
  167SAPE   O1118849   4.075   7.442   2.292
  167SAPE    C118850   4.110   7.309   2.248
  167SAPE    HA18851   4.039   7.266   2.173
  167SAPE    HB18852   4.206   7.315   2.195
  167SAPE    C218853   4.122   7.198   2.358
  167SAPE    HS18854   4.168   7.112   2.306
  167SAPE   O2118855   3.991   7.159   2.405
  167SAPE   C2118856   3.993   7.040   2.463
  167SAPE   O2218857   4.081   6.957   2.459
  167SAPE   C2218858   3.872   7.027   2.550
  167SAPE   H2R18859   3.827   7.127   2.566
  167SAPE   H2S18860   3.798   6.961   2.502
  167SAPE    C318861   4.210   7.235   2.482
  167SAPE    HX18862   4.307   7.269   2.442
  167SAPE    HY18863   4.231   7.142   2.541
  167SAPE   O3118864   4.154   7.341   2.561
  167SAPE   C3118865   4.117   7.318   2.686
  167SAPE   O3218866   4.133   7.215   2.748
  167SAPE   C3218867   4.054   7.446   2.741
  167SAPE   H2X18868   4.118   7.531   2.707
  167SAPE   H2Y18869   4.057   7.441   2.851
  167SAPE   C2318870   3.925   6.966   2.680
  167SAPE   H3R18871   4.008   7.028   2.723
  167SAPE   H3S18872   3.970   6.866   2.661
  167SAPE   C2418873   3.812   6.953   2.779
  167SAPE   H4R18874   3.837   6.876   2.854
  167SAPE   H4S18875   3.726   6.917   2.720
  167SAPE   C2518876   3.779   7.088   2.836
  167SAPE   H5R18877   3.764   7.168   2.763
  167SAPE   C2618878   3.775   7.117   2.966
  167SAPE   H6R18879   3.752   7.220   2.998
  167SAPE   C2718880   3.804   7.018   3.075
  167SAPE   H7R18881   3.866   6.932   3.041
  167SAPE   H7S18882   3.709   6.968   3.098
  167SAPE   C2818883   3.873   7.070   3.198
  167SAPE   H8R18884   3.820   7.061   3.294
  167SAPE   C2918885   3.990   7.136   3.192
  167SAPE   H9R18886   4.040   7.162   3.285
  167SAPE  C21018887   4.068   7.169   3.067
  167SAPE  H10R18888   4.003   7.223   2.996
  167SAPE  H10S18889   4.098   7.075   3.015
  167SAPE  C21118890   4.188   7.259   3.085
  167SAPE  H11R18891   4.283   7.216   3.050
  167SAPE  C21218892   4.188   7.383   3.139
  167SAPE  H12R18893   4.282   7.440   3.138
  167SAPE  C21318894   4.069   7.458   3.196
  167SAPE  H13R18895   3.977   7.397   3.200
  167SAPE  H13S18896   4.046   7.545   3.130
  167SAPE  C21418897   4.105   7.509   3.332
  167SAPE  H14R18898   4.124   7.617   3.334
  167SAPE  C21518899   4.108   7.448   3.451
  167SAPE  H15R18900   4.155   7.502   3.534
  167SAPE  C21618901   4.074   7.306   3.481
  167SAPE  H16R18902   4.145   7.237   3.430
  167SAPE  H16S18903   3.970   7.283   3.446
  167SAPE  C21718904   4.084   7.273   3.630
  167SAPE  H17R18905   4.192   7.270   3.655
  167SAPE  H17S18906   4.040   7.172   3.650
  167SAPE  C21818907   4.028   7.376   3.727
  167SAPE  H18R18908   3.925   7.350   3.753
  167SAPE  H18S18909   4.025   7.480   3.688
  167SAPE  C21918910   4.115   7.375   3.850
  167SAPE  H19R18911   4.220   7.402   3.826
  167SAPE  H19S18912   4.117   7.271   3.890
  167SAPE  C22018913   4.062   7.466   3.957
  167SAPE  H20R18914   3.951   7.461   3.967
  167SAPE  H20S18915   4.088   7.569   3.948
  167SAPE  H20T18916   4.112   7.438   4.050
  167SAPE   C3318917   3.910   7.468   2.689
  167SAPE   H3X18918   3.841   7.397   2.739
  167SAPE   H3Y18919   3.909   7.446   2.579
  167SAPE   C3418920   3.862   7.614   2.705
  167SAPE   H4X18921   3.768   7.628   2.646
  167SAPE   H4Y18922   3.939   7.682   2.662
  167SAPE   C3518923   3.834   7.655   2.849
  167SAPE   H5X18924   3.821   7.765   2.857
  167SAPE   H5Y18925   3.921   7.627   2.913
  167SAPE   C3618926   3.708   7.588   2.904
  167SAPE   H6X18927   3.715   7.478   2.889
  167SAPE   H6Y18928   3.618   7.624   2.852
  167SAPE   C3718929   3.695   7.613   3.053
  167SAPE   H7X18930   3.608   7.679   3.075
  167SAPE   H7Y18931   3.785   7.666   3.091
  167SAPE   C3818932   3.682   7.482   3.130
  167SAPE   H8X18933   3.772   7.419   3.112
  167SAPE   H8Y18934   3.593   7.425   3.095
  167SAPE   C3918935   3.671   7.515   3.276
  167SAPE   H9X18936   3.581   7.578   3.291
  167SAPE   H9Y18937   3.761   7.574   3.307
  167SAPE  C31018938   3.660   7.395   3.368
  167SAPE  H10X18939   3.735   7.317   3.341
  167SAPE  H10Y18940   3.558   7.350   3.359
  167SAPE  C31118941   3.685   7.443   3.510
  167SAPE  H11X18942   3.623   7.531   3.533
  167SAPE  H11Y18943   3.792   7.472   3.522
  167SAPE  C31218944   3.651   7.333   3.607
  167SAPE  H12X18945   3.728   7.256   3.582
  167SAPE  H12Y18946   3.551   7.289   3.588
  167SAPE  C31318947   3.658   7.379   3.752
  167SAPE  H13X18948   3.572   7.446   3.776
  167SAPE  H13Y18949   3.749   7.439   3.770
  167SAPE  C31418950   3.656   7.257   3.844
  167SAPE  H14X18951   3.552   7.218   3.846
  167SAPE  H14Y18952   3.682   7.289   3.947
  167SAPE  C31518953   3.751   7.146   3.798
  167SAPE  H15X18954   3.855   7.182   3.788
  167SAPE  H15Y18955   3.721   7.104   3.699
  167SAPE  C31618956   3.750   7.029   3.893
  167SAPE  H16X18957   3.749   7.069   3.996
  167SAPE  H16Y18958   3.840   6.965   3.879
  167SAPE  C31718959   3.625   6.950   3.869
  167SAPE  H17X18960   3.622   6.916   3.762
  167SAPE  H17Y18961   3.537   7.016   3.886
  167SAPE  C31818962   3.614   6.831   3.959
  167SAPE  H18X18963   3.522   6.778   3.930
  167SAPE  H18Y18964   3.608   6.864   4.066
  167SAPE  H18Z18965   3.699   6.760   3.946
  168SAPE     N18966   7.274   3.690   2.211
  168SAPE   HN118967   7.189   3.645   2.171
  168SAPE   HN218968   7.274   3.794   2.200
  168SAPE   HN318969   7.360   3.654   2.162
  168SAPE   C1218970   7.298   3.638   2.349
  168SAPE  H12A18971   7.213   3.574   2.377
  168SAPE  H12B18972   7.297   3.721   2.421
  168SAPE   C1118973   7.430   3.558   2.348
  168SAPE  H11A18974   7.425   3.480   2.427
  168SAPE  H11B18975   7.516   3.622   2.376
  168SAPE     P18976   7.391   3.364   2.182
  168SAPE   O1318977   7.378   3.346   2.035
  168SAPE   O1418978   7.467   3.266   2.258
  168SAPE   O1218979   7.455   3.504   2.216
  168SAPE   O1118980   7.248   3.385   2.244
  168SAPE    C118981   7.120   3.378   2.183
  168SAPE    HA18982   7.082   3.479   2.159
  168SAPE    HB18983   7.128   3.321   2.089
  168SAPE    C218984   7.015   3.296   2.266
  168SAPE    HS18985   6.929   3.277   2.199
  168SAPE   O2118986   6.962   3.350   2.389
  168SAPE   C2118987   6.946   3.478   2.411
  168SAPE   O2218988   6.953   3.567   2.328
  168SAPE   C2218989   6.905   3.502   2.559
  168SAPE   H2R18990   6.860   3.603   2.564
  168SAPE   H2S18991   6.827   3.429   2.587
  168SAPE    C318992   7.076   3.157   2.303
  168SAPE    HX18993   7.074   3.090   2.216
  168SAPE    HY18994   7.005   3.113   2.375
  168SAPE   O3118995   7.212   3.154   2.351
  168SAPE   C3118996   7.243   3.222   2.461
  168SAPE   O3218997   7.168   3.295   2.522
  168SAPE   C3218998   7.378   3.189   2.517
  168SAPE   H2X18999   7.436   3.284   2.521
  168SAPE   H2Y19000   7.430   3.117   2.451
  168SAPE   C2319001   7.024   3.491   2.660
  168SAPE   H3R19002   7.119   3.508   2.603
  168SAPE   H3S19003   7.026   3.386   2.698
  168SAPE   C2419004   7.027   3.588   2.779
  168SAPE   H4R19005   6.945   3.562   2.850
  168SAPE   H4S19006   7.011   3.692   2.743
  168SAPE   C2519007   7.162   3.572   2.847
  168SAPE   H5R19008   7.191   3.466   2.860
  168SAPE   C2619009   7.246   3.665   2.896
  168SAPE   H6R19010   7.342   3.632   2.939
  168SAPE   C2719011   7.223   3.814   2.897
  168SAPE   H7R19012   7.120   3.826   2.934
  168SAPE   H7S19013   7.226   3.855   2.794
  168SAPE   C2819014   7.310   3.897   2.988
  168SAPE   H8R19015   7.379   3.967   2.938
  168SAPE   C2919016   7.306   3.897   3.122
  168SAPE   H9R19017   7.377   3.961   3.176
  168SAPE  C21019018   7.213   3.816   3.209
  168SAPE  H10R19019   7.125   3.781   3.150
  168SAPE  H10S19020   7.170   3.882   3.288
  168SAPE  C21119021   7.281   3.698   3.275
  168SAPE  H11R19022   7.391   3.695   3.266
  168SAPE  C21219023   7.219   3.599   3.342
  168SAPE  H12R19024   7.281   3.517   3.382
  168SAPE  C21319025   7.070   3.586   3.365
  168SAPE  H13R19026   7.047   3.481   3.395
  168SAPE  H13S19027   7.021   3.596   3.266
  168SAPE  C21419028   7.000   3.683   3.459
  168SAPE  H14R19029   6.909   3.726   3.414
  168SAPE  C21519030   7.029   3.721   3.585
  168SAPE  H15R19031   6.963   3.795   3.633
  168SAPE  C21619032   7.142   3.677   3.674
  168SAPE  H16R19033   7.236   3.671   3.614
  168SAPE  H16S19034   7.123   3.575   3.711
  168SAPE  C21719035   7.170   3.768   3.797
  168SAPE  H17R19036   7.172   3.873   3.759
  168SAPE  H17S19037   7.271   3.739   3.832
  168SAPE  C21819038   7.067   3.762   3.912
  168SAPE  H18R19039   7.043   3.655   3.925
  168SAPE  H18S19040   6.978   3.819   3.877
  168SAPE  C21919041   7.096   3.803   4.058
  168SAPE  H19R19042   6.997   3.821   4.105
  168SAPE  H19S19043   7.147   3.900   4.065
  168SAPE  C22019044   7.162   3.693   4.143
  168SAPE  H20R19045   7.088   3.614   4.166
  168SAPE  H20S19046   7.200   3.733   4.240
  168SAPE  H20T19047   7.247   3.646   4.090
  168SAPE   C3319048   7.354   3.130   2.658
  168SAPE   H3X19049   7.320   3.025   2.644
  168SAPE   H3Y19050   7.273   3.183   2.712
  168SAPE   C3419051   7.480   3.130   2.743
  168SAPE   H4X19052   7.559   3.083   2.680
  168SAPE   H4Y19053   7.464   3.065   2.832
  168SAPE   C3519054   7.525   3.270   2.790
  168SAPE   H5X19055   7.546   3.331   2.699
  168SAPE   H5Y19056   7.620   3.258   2.846
  168SAPE   C3619057   7.426   3.345   2.879
  168SAPE   H6X19058   7.324   3.304   2.866
  168SAPE   H6Y19059   7.424   3.451   2.846
  168SAPE   C3719060   7.465   3.343   3.027
  168SAPE   H7X19061   7.482   3.237   3.057
  168SAPE   H7Y19062   7.380   3.381   3.088
  168SAPE   C3819063   7.590   3.427   3.057
  168SAPE   H8X19064   7.559   3.534   3.067
  168SAPE   H8Y19065   7.662   3.422   2.973
  168SAPE   C3919066   7.661   3.384   3.185
  168SAPE   H9X19067   7.744   3.455   3.206
  168SAPE   H9Y19068   7.706   3.283   3.171
  168SAPE  C31019069   7.564   3.381   3.303
  168SAPE  H10X19070   7.511   3.283   3.304
  168SAPE  H10Y19071   7.487   3.460   3.287
  168SAPE  C31119072   7.629   3.407   3.438
  168SAPE  H11X19073   7.698   3.495   3.430
  168SAPE  H11Y19074   7.690   3.320   3.468
  168SAPE  C31219075   7.528   3.436   3.549
  168SAPE  H12X19076   7.478   3.533   3.526
  168SAPE  H12Y19077   7.584   3.448   3.644
  168SAPE  C31319078   7.418   3.330   3.566
  168SAPE  H13X19079   7.460   3.236   3.610
  168SAPE  H13Y19080   7.372   3.303   3.469
  168SAPE  C31419081   7.305   3.385   3.653
  168SAPE  H14X19082   7.226   3.310   3.672
  168SAPE  H14Y19083   7.256   3.463   3.593
  168SAPE  C31519084   7.353   3.449   3.784
  168SAPE  H15X19085   7.266   3.481   3.845
  168SAPE  H15Y19086   7.409   3.542   3.763
  168SAPE  C31619087   7.441   3.363   3.873
  168SAPE  H16X19088   7.543   3.368   3.830
  168SAPE  H16Y19089   7.419   3.256   3.886
  168SAPE  C31719090   7.447   3.418   4.013
  168SAPE  H17X19091   7.447   3.529   4.015
  168SAPE  H17Y19092   7.548   3.374   4.027
  168SAPE  C31819093   7.367   3.360   4.131
  168SAPE  H18X19094   7.370   3.249   4.128
  168SAPE  H18Y19095   7.262   3.394   4.132
  168SAPE  H18Z19096   7.411   3.393   4.228
  169SAPE     N19097   1.448   0.422   2.003
  169SAPE   HN119098   1.383   0.468   1.934
  169SAPE   HN219099   1.479   0.329   1.969
  169SAPE   HN319100   1.396   0.407   2.092
  169SAPE   C1219101   1.563   0.515   2.028
  169SAPE  H12A19102   1.525   0.597   2.093
  169SAPE  H12B19103   1.594   0.559   1.930
  169SAPE   C1119104   1.679   0.440   2.093
  169SAPE  H11A19105   1.763   0.510   2.111
  169SAPE  H11B19106   1.718   0.365   2.021
  169SAPE     P19107   1.596   0.449   2.345
  169SAPE   O1319108   1.450   0.471   2.329
  169SAPE   O1419109   1.639   0.370   2.462
  169SAPE   O1219110   1.641   0.370   2.212
  169SAPE   O1119111   1.667   0.590   2.333
  169SAPE    C119112   1.809   0.608   2.343
  169SAPE    HA19113   1.866   0.514   2.323
  169SAPE    HB19114   1.839   0.679   2.263
  169SAPE    C219115   1.860   0.673   2.476
  169SAPE    HS19116   1.970   0.692   2.464
  169SAPE   O2119117   1.839   0.591   2.593
  169SAPE   C2119118   1.917   0.483   2.598
  169SAPE   O2219119   1.998   0.450   2.513
  169SAPE   C2219120   1.902   0.408   2.730
  169SAPE   H2R19121   1.796   0.378   2.739
  169SAPE   H2S19122   1.961   0.315   2.719
  169SAPE    C319123   1.794   0.812   2.501
  169SAPE    HX19124   1.823   0.877   2.416
  169SAPE    HY19125   1.840   0.856   2.593
  169SAPE   O3119126   1.650   0.805   2.505
  169SAPE   C3119127   1.592   0.827   2.621
  169SAPE   O3219128   1.641   0.886   2.715
  169SAPE   C3219129   1.448   0.772   2.616
  169SAPE   H2X19130   1.419   0.767   2.509
  169SAPE   H2Y19131   1.383   0.844   2.670
  169SAPE   C2319132   1.956   0.481   2.857
  169SAPE   H3R19133   2.066   0.469   2.856
  169SAPE   H3S19134   1.919   0.429   2.948
  169SAPE   C2419135   1.938   0.633   2.872
  169SAPE   H4R19136   1.976   0.684   2.781
  169SAPE   H4S19137   2.007   0.664   2.954
  169SAPE   C2519138   1.798   0.680   2.900
  169SAPE   H5R19139   1.730   0.671   2.814
  169SAPE   C2619140   1.748   0.726   3.016
  169SAPE   H6R19141   1.644   0.763   3.017
  169SAPE   C2719142   1.820   0.744   3.147
  169SAPE   H7R19143   1.930   0.732   3.135
  169SAPE   H7S19144   1.791   0.662   3.216
  169SAPE   C2819145   1.793   0.877   3.212
  169SAPE   H8R19146   1.878   0.946   3.206
  169SAPE   C2919147   1.678   0.924   3.267
  169SAPE   H9R19148   1.680   1.024   3.311
  169SAPE  C21019149   1.543   0.854   3.278
  169SAPE  H10R19150   1.489   0.866   3.182
  169SAPE  H10S19151   1.483   0.911   3.352
  169SAPE  C21119152   1.544   0.708   3.317
  169SAPE  H11R19153   1.556   0.638   3.232
  169SAPE  C21219154   1.535   0.658   3.442
  169SAPE  H12R19155   1.542   0.549   3.455
  169SAPE  C21319156   1.523   0.738   3.569
  169SAPE  H13R19157   1.467   0.678   3.644
  169SAPE  H13S19158   1.461   0.829   3.552
  169SAPE  C21419159   1.658   0.780   3.621
  169SAPE  H14R19160   1.721   0.833   3.546
  169SAPE  C21519161   1.708   0.765   3.745
  169SAPE  H15R19162   1.808   0.805   3.766
  169SAPE  C21619163   1.641   0.703   3.866
  169SAPE  H16R19164   1.694   0.611   3.898
  169SAPE  H16S19165   1.535   0.676   3.847
  169SAPE  C21719166   1.649   0.809   3.977
  169SAPE  H17R19167   1.600   0.902   3.941
  169SAPE  H17S19168   1.756   0.833   3.997
  169SAPE  C21819169   1.585   0.775   4.113
  169SAPE  H18R19170   1.634   0.688   4.160
  169SAPE  H18S19171   1.477   0.752   4.099
  169SAPE  C21919172   1.601   0.900   4.201
  169SAPE  H19R19173   1.551   0.982   4.145
  169SAPE  H19S19174   1.709   0.924   4.208
  169SAPE  C22019175   1.540   0.899   4.340
  169SAPE  H20R19176   1.566   0.806   4.396
  169SAPE  H20S19177   1.429   0.907   4.332
  169SAPE  H20T19178   1.576   0.987   4.399
  169SAPE   C3319179   1.435   0.631   2.679
  169SAPE   H3X19180   1.519   0.568   2.641
  169SAPE   H3Y19181   1.342   0.583   2.643
  169SAPE   C3419182   1.431   0.632   2.833
  169SAPE   H4X19183   1.335   0.677   2.867
  169SAPE   H4Y19184   1.512   0.697   2.870
  169SAPE   C3519185   1.445   0.493   2.899
  169SAPE   H5X19186   1.349   0.440   2.888
  169SAPE   H5Y19187   1.465   0.507   3.008
  169SAPE   C3619188   1.557   0.407   2.839
  169SAPE   H6X19189   1.645   0.472   2.825
  169SAPE   H6Y19190   1.526   0.372   2.738
  169SAPE   C3719191   1.598   0.285   2.923
  169SAPE   H7X19192   1.654   0.215   2.857
  169SAPE   H7Y19193   1.507   0.231   2.957
  169SAPE   C3819194   1.689   0.320   3.041
  169SAPE   H8X19195   1.713   0.429   3.038
  169SAPE   H8Y19196   1.785   0.264   3.033
  169SAPE   C3919197   1.623   0.290   3.175
  169SAPE   H9X19198   1.605   0.180   3.183
  169SAPE   H9Y19199   1.524   0.341   3.171
  169SAPE  C31019200   1.696   0.342   3.299
  169SAPE  H10X19201   1.631   0.325   3.389
  169SAPE  H10Y19202   1.711   0.451   3.289
  169SAPE  C31119203   1.831   0.275   3.325
  169SAPE  H11X19204   1.890   0.280   3.231
  169SAPE  H11Y19205   1.817   0.167   3.351
  169SAPE  C31219206   1.912   0.344   3.435
  169SAPE  H12X19207   1.927   0.451   3.407
  169SAPE  H12Y19208   2.012   0.296   3.440
  169SAPE  C31319209   1.849   0.338   3.575
  169SAPE  H13X19210   1.826   0.232   3.600
  169SAPE  H13Y19211   1.754   0.395   3.577
  169SAPE  C31419212   1.945   0.395   3.681
  169SAPE  H14X19213   1.964   0.502   3.659
  169SAPE  H14Y19214   2.042   0.341   3.674
  169SAPE  C31519215   1.892   0.381   3.824
  169SAPE  H15X19216   1.879   0.273   3.847
  169SAPE  H15Y19217   1.792   0.429   3.832
  169SAPE  C31619218   1.987   0.442   3.928
  169SAPE  H16X19219   1.985   0.553   3.921
  169SAPE  H16Y19220   2.091   0.409   3.904
  169SAPE  C31719221   1.954   0.399   4.072
  169SAPE  H17X19222   2.031   0.439   4.143
  169SAPE  H17Y19223   1.961   0.287   4.077
  169SAPE  C31819224   1.816   0.443   4.121
  169SAPE  H18X19225   1.812   0.554   4.129
  169SAPE  H18Y19226   1.793   0.399   4.221
  169SAPE  H18Z19227   1.738   0.410   4.049
  170SAPE     N19228   1.079   0.583   2.318
  170SAPE   HN119229   0.983   0.605   2.352
  170SAPE   HN219230   1.072   0.571   2.213
  170SAPE   HN319231   1.119   0.496   2.359
  170SAPE   C1219232   1.168   0.700   2.341
  170SAPE  H12A19233   1.272   0.670   2.317
  170SAPE  H12B19234   1.160   0.728   2.448
  170SAPE   C1119235   1.121   0.817   2.253
  170SAPE  H11A19236   1.145   0.793   2.146
  170SAPE  H11B19237   1.178   0.909   2.280
  170SAPE     P19238   0.890   0.893   2.158
  170SAPE   O1319239   0.964   0.991   2.074
  170SAPE   O1419240   0.836   0.771   2.095
  170SAPE   O1219241   0.982   0.838   2.274
  170SAPE   O1119242   0.780   0.968   2.240
  170SAPE    C119243   0.716   0.927   2.361
  170SAPE    HA19244   0.608   0.953   2.352
  170SAPE    HB19245   0.722   0.817   2.377
  170SAPE    C219246   0.770   1.002   2.487
  170SAPE    HS19247   0.763   1.111   2.465
  170SAPE   O2119248   0.907   0.962   2.508
  170SAPE   C2119249   0.968   1.020   2.608
  170SAPE   O2219250   0.941   1.128   2.658
  170SAPE   C2219251   1.082   0.930   2.653
  170SAPE   H2R19252   1.056   0.824   2.632
  170SAPE   H2S19253   1.170   0.960   2.593
  170SAPE    C319254   0.685   0.975   2.617
  170SAPE    HX19255   0.578   0.980   2.590
  170SAPE    HY19256   0.703   1.059   2.687
  170SAPE   O3119257   0.723   0.851   2.684
  170SAPE   C3119258   0.635   0.752   2.683
  170SAPE   O3219259   0.526   0.751   2.629
  170SAPE   C3219260   0.690   0.628   2.754
  170SAPE   H2X19261   0.801   0.628   2.749
  170SAPE   H2Y19262   0.653   0.543   2.692
  170SAPE   C2319263   1.116   0.948   2.803
  170SAPE   H3R19264   1.110   1.056   2.830
  170SAPE   H3S19265   1.222   0.918   2.819
  170SAPE   C2419266   1.030   0.869   2.902
  170SAPE   H4R19267   1.098   0.804   2.961
  170SAPE   H4S19268   0.963   0.800   2.846
  170SAPE   C2519269   0.948   0.955   2.997
  170SAPE   H5R19270   0.840   0.957   2.974
  170SAPE   C2619271   0.992   1.026   3.103
  170SAPE   H6R19272   0.916   1.077   3.163
  170SAPE   C2719273   1.133   1.040   3.156
  170SAPE   H7R19274   1.161   1.148   3.152
  170SAPE   H7S19275   1.204   0.992   3.085
  170SAPE   C2819276   1.169   0.995   3.296
  170SAPE   H8R19277   1.267   0.945   3.301
  170SAPE   C2919278   1.101   1.009   3.412
  170SAPE   H9R19279   1.148   0.968   3.503
  170SAPE  C21019280   0.968   1.077   3.432
  170SAPE  H10R19281   0.890   1.025   3.372
  170SAPE  H10S19282   0.974   1.181   3.395
  170SAPE  C21119283   0.925   1.081   3.577
  170SAPE  H11R19284   1.005   1.062   3.651
  170SAPE  C21219285   0.800   1.098   3.624
  170SAPE  H12R19286   0.785   1.087   3.732
  170SAPE  C21319287   0.673   1.117   3.544
  170SAPE  H13R19288   0.670   1.042   3.461
  170SAPE  H13S19289   0.674   1.216   3.495
  170SAPE  C21419290   0.547   1.102   3.626
  170SAPE  H14R19291   0.481   1.190   3.630
  170SAPE  C21519292   0.511   0.989   3.692
  170SAPE  H15R19293   0.416   0.986   3.748
  170SAPE  C21619294   0.595   0.863   3.693
  170SAPE  H16R19295   0.701   0.881   3.666
  170SAPE  H16S19296   0.563   0.797   3.610
  170SAPE  C21719297   0.603   0.787   3.827
  170SAPE  H17R19298   0.702   0.735   3.828
  170SAPE  H17S19299   0.525   0.708   3.831
  170SAPE  C21819300   0.592   0.870   3.956
  170SAPE  H18R19301   0.494   0.923   3.956
  170SAPE  H18S19302   0.673   0.946   3.961
  170SAPE  C21919303   0.595   0.781   4.081
  170SAPE  H19R19304   0.514   0.706   4.066
  170SAPE  H19S19305   0.569   0.842   4.170
  170SAPE  C22019306   0.724   0.703   4.107
  170SAPE  H20R19307   0.727   0.610   4.045
  170SAPE  H20S19308   0.729   0.672   4.214
  170SAPE  H20T19309   0.813   0.764   4.083
  170SAPE   C3319310   0.642   0.607   2.901
  170SAPE   H3X19311   0.658   0.501   2.930
  170SAPE   H3Y19312   0.533   0.624   2.910
  170SAPE   C3419313   0.725   0.687   3.001
  170SAPE   H4X19314   0.703   0.795   2.986
  170SAPE   H4Y19315   0.832   0.668   2.978
  170SAPE   C3519316   0.703   0.651   3.150
  170SAPE   H5X19317   0.722   0.543   3.168
  170SAPE   H5Y19318   0.597   0.670   3.176
  170SAPE   C3619319   0.793   0.733   3.244
  170SAPE   H6X19320   0.765   0.713   3.350
  170SAPE   H6Y19321   0.771   0.841   3.227
  170SAPE   C3719322   0.945   0.713   3.225
  170SAPE   H7X19323   0.997   0.786   3.289
  170SAPE   H7Y19324   0.972   0.737   3.121
  170SAPE   C3819325   1.002   0.573   3.249
  170SAPE   H8X19326   1.107   0.570   3.213
  170SAPE   H8Y19327   0.943   0.500   3.190
  170SAPE   C3919328   0.999   0.536   3.396
  170SAPE   H9X19329   1.015   0.426   3.406
  170SAPE   H9Y19330   0.899   0.560   3.434
  170SAPE  C31019331   1.095   0.612   3.488
  170SAPE  H10X19332   1.090   0.721   3.464
  170SAPE  H10Y19333   1.199   0.578   3.473
  170SAPE  C31119334   1.051   0.596   3.633
  170SAPE  H11X19335   1.056   0.490   3.665
  170SAPE  H11Y19336   0.944   0.627   3.642
  170SAPE  C31219337   1.130   0.685   3.728
  170SAPE  H12X19338   1.110   0.790   3.697
  170SAPE  H12Y19339   1.239   0.665   3.717
  170SAPE  C31319340   1.086   0.664   3.873
  170SAPE  H13X19341   1.104   0.558   3.902
  170SAPE  H13Y19342   0.976   0.682   3.879
  170SAPE  C31419343   1.157   0.757   3.971
  170SAPE  H14X19344   1.264   0.728   3.981
  170SAPE  H14Y19345   1.110   0.742   4.071
  170SAPE  C31519346   1.147   0.906   3.934
  170SAPE  H15X19347   1.141   0.958   4.031
  170SAPE  H15Y19348   1.052   0.928   3.881
  170SAPE  C31619349   1.268   0.959   3.853
  170SAPE  H16X19350   1.255   0.937   3.745
  170SAPE  H16Y19351   1.360   0.906   3.886
  170SAPE  C31719352   1.291   1.110   3.870
  170SAPE  H17X19353   1.204   1.164   3.826
  170SAPE  H17Y19354   1.380   1.139   3.810
  170SAPE  C31819355   1.313   1.155   4.014
  170SAPE  H18X19356   1.315   1.266   4.019
  170SAPE  H18Y19357   1.408   1.116   4.055
  170SAPE  H18Z19358   1.232   1.124   4.082
  171SAPE     N19359   5.442   0.018   2.224
  171SAPE   HN119360   5.372   0.093   2.212
  171SAPE   HN219361   5.494   0.001   2.135
  171SAPE   HN319362   5.393  -0.071   2.246
  171SAPE   C1219363   5.546   0.051   2.329
  171SAPE  H12A19364   5.619  -0.033   2.331
  171SAPE  H12B19365   5.492   0.054   2.427
  171SAPE   C1119366   5.624   0.184   2.307
  171SAPE  H11A19367   5.686   0.198   2.399
  171SAPE  H11B19368   5.554   0.269   2.301
  171SAPE     P19369   5.818   0.298   2.170
  171SAPE   O1319370   5.898   0.272   2.047
  171SAPE   O1419371   5.743   0.425   2.170
  171SAPE   O1219372   5.710   0.180   2.192
  171SAPE   O1119373   5.918   0.287   2.299
  171SAPE    C119374   6.051   0.225   2.287
  171SAPE    HA19375   6.040   0.131   2.227
  171SAPE    HB19376   6.121   0.292   2.232
  171SAPE    C219377   6.132   0.171   2.418
  171SAPE    HS19378   6.183   0.077   2.389
  171SAPE   O2119379   6.040   0.143   2.521
  171SAPE   C2119380   5.928   0.078   2.503
  171SAPE   O2219381   5.894   0.006   2.411
  171SAPE   C2219382   5.843   0.109   2.626
  171SAPE   H2R19383   5.812   0.215   2.619
  171SAPE   H2S19384   5.753   0.046   2.626
  171SAPE    C319385   6.250   0.266   2.480
  171SAPE    HX19386   6.208   0.366   2.502
  171SAPE    HY19387   6.319   0.278   2.394
  171SAPE   O3119388   6.337   0.220   2.591
  171SAPE   C3119389   6.397   0.313   2.674
  171SAPE   O3219390   6.354   0.425   2.689
  171SAPE   C3219391   6.538   0.271   2.734
  171SAPE   H2X19392   6.580   0.374   2.742
  171SAPE   H2Y19393   6.600   0.230   2.653
  171SAPE   C2319394   5.926   0.089   2.756
  171SAPE   H3R19395   5.999   0.172   2.761
  171SAPE   H3S19396   5.986  -0.003   2.748
  171SAPE   C2419397   5.847   0.086   2.887
  171SAPE   H4R19398   5.915   0.111   2.972
  171SAPE   H4S19399   5.806  -0.013   2.910
  171SAPE   C2519400   5.736   0.184   2.870
  171SAPE   H5R19401   5.644   0.148   2.822
  171SAPE   C2619402   5.747   0.310   2.907
  171SAPE   H6R19403   5.672   0.377   2.868
  171SAPE   C2719404   5.865   0.377   2.971
  171SAPE   H7R19405   5.886   0.466   2.910
  171SAPE   H7S19406   5.954   0.314   2.963
  171SAPE   C2819407   5.846   0.422   3.113
  171SAPE   H8R19408   5.774   0.504   3.121
  171SAPE   C2919409   5.900   0.392   3.230
  171SAPE   H9R19410   5.858   0.452   3.312
  171SAPE  C21019411   6.008   0.296   3.274
  171SAPE  H10R19412   6.097   0.308   3.210
  171SAPE  H10S19413   5.980   0.189   3.263
  171SAPE  C21119414   6.039   0.338   3.416
  171SAPE  H11R19415   6.140   0.378   3.432
  171SAPE  C21219416   5.956   0.329   3.524
  171SAPE  H12R19417   5.995   0.367   3.619
  171SAPE  C21319418   5.814   0.274   3.531
  171SAPE  H13R19419   5.745   0.357   3.506
  171SAPE  H13S19420   5.794   0.251   3.638
  171SAPE  C21419421   5.775   0.149   3.453
  171SAPE  H14R19422   5.855   0.105   3.392
  171SAPE  C21519423   5.658   0.081   3.450
  171SAPE  H15R19424   5.652  -0.009   3.389
  171SAPE  C21619425   5.530   0.109   3.525
  171SAPE  H16R19426   5.448   0.046   3.483
  171SAPE  H16S19427   5.498   0.215   3.512
  171SAPE  C21719428   5.541   0.078   3.675
  171SAPE  H17R19429   5.441   0.097   3.722
  171SAPE  H17S19430   5.614   0.150   3.720
  171SAPE  C21819431   5.589  -0.063   3.712
  171SAPE  H18R19432   5.678  -0.090   3.651
  171SAPE  H18S19433   5.509  -0.137   3.688
  171SAPE  C21919434   5.630  -0.076   3.860
  171SAPE  H19R19435   5.726  -0.021   3.873
  171SAPE  H19S19436   5.649  -0.183   3.883
  171SAPE  C22019437   5.527  -0.019   3.959
  171SAPE  H20R19438   5.432  -0.075   3.952
  171SAPE  H20S19439   5.507   0.088   3.937
  171SAPE  H20T19440   5.566  -0.025   4.063
  171SAPE   C3319441   6.582   0.225   2.883
  171SAPE   H3X19442   6.575   0.316   2.944
  171SAPE   H3Y19443   6.692   0.219   2.869
  171SAPE   C3419444   6.562   0.091   2.969
  171SAPE   H4X19445   6.657   0.038   2.963
  171SAPE   H4Y19446   6.495   0.017   2.931
  171SAPE   C3519447   6.530   0.098   3.121
  171SAPE   H5X19448   6.439   0.157   3.122
  171SAPE   H5Y19449   6.605   0.160   3.174
  171SAPE   C3619450   6.482  -0.023   3.212
  171SAPE   H6X19451   6.562  -0.092   3.246
  171SAPE   H6Y19452   6.410  -0.080   3.152
  171SAPE   C3719453   6.417   0.047   3.335
  171SAPE   H7X19454   6.334   0.100   3.287
  171SAPE   H7Y19455   6.499   0.114   3.370
  171SAPE   C3819456   6.350   0.004   3.469
  171SAPE   H8X19457   6.342   0.105   3.513
  171SAPE   H8Y19458   6.413  -0.050   3.541
  171SAPE   C3919459   6.199  -0.033   3.473
  171SAPE   H9X19460   6.192  -0.129   3.525
  171SAPE   H9Y19461   6.160  -0.042   3.370
  171SAPE  C31019462   6.093   0.039   3.561
  171SAPE  H10X19463   6.011  -0.035   3.578
  171SAPE  H10Y19464   6.046   0.110   3.494
  171SAPE  C31119465   6.128   0.102   3.698
  171SAPE  H11X19466   6.156   0.208   3.685
  171SAPE  H11Y19467   6.214   0.050   3.743
  171SAPE  C31219468   6.011   0.102   3.801
  171SAPE  H12X19469   6.009   0.012   3.864
  171SAPE  H12Y19470   5.915   0.096   3.745
  171SAPE  C31319471   6.004   0.230   3.887
  171SAPE  H13X19472   5.910   0.222   3.947
  171SAPE  H13Y19473   5.993   0.313   3.815
  171SAPE  C31419474   6.119   0.267   3.984
  171SAPE  H14X19475   6.147   0.373   3.978
  171SAPE  H14Y19476   6.213   0.220   3.949
  171SAPE  C31519477   6.084   0.229   4.131
  171SAPE  H15X19478   6.174   0.235   4.195
  171SAPE  H15Y19479   6.053   0.123   4.122
  171SAPE  C31619480   5.960   0.288   4.202
  171SAPE  H16X19481   5.922   0.207   4.268
  171SAPE  H16Y19482   5.878   0.311   4.132
  171SAPE  C31719483   5.985   0.410   4.292
  171SAPE  H17X19484   5.887   0.448   4.328
  171SAPE  H17Y19485   6.033   0.493   4.236
  171SAPE  C31819486   6.072   0.376   4.412
  171SAPE  H18X19487   6.036   0.282   4.456
  171SAPE  H18Y19488   6.068   0.457   4.487
  171SAPE  H18Z19489   6.178   0.358   4.384
  172SAPE     N19490   6.804   0.702   2.075
  172SAPE   HN119491   6.820   0.758   1.989
  172SAPE   HN219492   6.817   0.768   2.156
  172SAPE   HN319493   6.866   0.620   2.085
  172SAPE   C1219494   6.660   0.674   2.104
  172SAPE  H12A19495   6.627   0.586   2.047
  172SAPE  H12B19496   6.603   0.763   2.070
  172SAPE   C1119497   6.646   0.662   2.257
  172SAPE  H11A19498   6.679   0.561   2.290
  172SAPE  H11B19499   6.538   0.669   2.285
  172SAPE     P19500   6.691   0.916   2.306
  172SAPE   O1319501   6.747   0.996   2.416
  172SAPE   O1419502   6.742   0.947   2.171
  172SAPE   O1219503   6.726   0.761   2.324
  172SAPE   O1119504   6.536   0.905   2.300
  172SAPE    C119505   6.442   1.010   2.297
  172SAPE    HA19506   6.487   1.105   2.262
  172SAPE    HB19507   6.362   0.983   2.225
  172SAPE    C219508   6.376   1.034   2.435
  172SAPE    HS19509   6.288   1.099   2.418
  172SAPE   O2119510   6.480   1.104   2.507
  172SAPE   C2119511   6.496   1.095   2.637
  172SAPE   O2219512   6.417   1.052   2.719
  172SAPE   C2219513   6.631   1.155   2.681
  172SAPE   H2R19514   6.685   1.191   2.591
  172SAPE   H2S19515   6.606   1.242   2.745
  172SAPE    C319516   6.327   0.899   2.500
  172SAPE    HX19517   6.277   0.839   2.421
  172SAPE    HY19518   6.248   0.923   2.575
  172SAPE   O3119519   6.432   0.827   2.567
  172SAPE   C3119520   6.446   0.699   2.550
  172SAPE   O3219521   6.384   0.627   2.474
  172SAPE   C3219522   6.562   0.650   2.642
  172SAPE   H2X19523   6.656   0.654   2.584
  172SAPE   H2Y19524   6.543   0.545   2.665
  172SAPE   C2319525   6.714   1.051   2.763
  172SAPE   H3R19526   6.763   0.980   2.693
  172SAPE   H3S19527   6.644   0.997   2.829
  172SAPE   C2419528   6.819   1.108   2.861
  172SAPE   H4R19529   6.813   1.217   2.847
  172SAPE   H4S19530   6.921   1.074   2.830
  172SAPE   C2519531   6.804   1.090   3.010
  172SAPE   H5R19532   6.781   1.183   3.063
  172SAPE   C2619533   6.811   0.978   3.084
  172SAPE   H6R19534   6.791   0.989   3.192
  172SAPE   C2719535   6.837   0.837   3.040
  172SAPE   H7R19536   6.819   0.827   2.930
  172SAPE   H7S19537   6.760   0.777   3.090
  172SAPE   C2819538   6.965   0.769   3.076
  172SAPE   H8R19539   7.036   0.760   2.993
  172SAPE   C2919540   6.997   0.719   3.197
  172SAPE   H9R19541   7.095   0.669   3.211
  172SAPE  C21019542   6.910   0.723   3.320
  172SAPE  H10R19543   6.906   0.624   3.371
  172SAPE  H10S19544   6.804   0.747   3.295
  172SAPE  C21119545   6.972   0.823   3.413
  172SAPE  H11R19546   7.080   0.807   3.432
  172SAPE  C21219547   6.910   0.924   3.476
  172SAPE  H12R19548   6.972   0.991   3.538
  172SAPE  C21319549   6.764   0.958   3.466
  172SAPE  H13R19550   6.711   0.895   3.541
  172SAPE  H13S19551   6.720   0.926   3.369
  172SAPE  C21419552   6.735   1.105   3.486
  172SAPE  H14R19553   6.797   1.172   3.424
  172SAPE  C21519554   6.639   1.157   3.565
  172SAPE  H15R19555   6.627   1.266   3.570
  172SAPE  C21619556   6.542   1.077   3.648
  172SAPE  H16R19557   6.581   0.974   3.668
  172SAPE  H16S19558   6.446   1.067   3.593
  172SAPE  C21719559   6.510   1.129   3.788
  172SAPE  H17R19560   6.476   1.235   3.781
  172SAPE  H17S19561   6.605   1.123   3.844
  172SAPE  C21819562   6.406   1.044   3.864
  172SAPE  H18R19563   6.437   0.938   3.854
  172SAPE  H18S19564   6.306   1.053   3.816
  172SAPE  C21919565   6.392   1.073   4.015
  172SAPE  H19R19566   6.337   1.169   4.031
  172SAPE  H19S19567   6.493   1.086   4.061
  172SAPE  C22019568   6.320   0.961   4.089
  172SAPE  H20R19569   6.300   0.988   4.195
  172SAPE  H20S19570   6.381   0.869   4.089
  172SAPE  H20T19571   6.223   0.937   4.040
  172SAPE   C3319572   6.581   0.725   2.776
  172SAPE   H3X19573   6.605   0.828   2.749
  172SAPE   H3Y19574   6.670   0.682   2.828
  172SAPE   C3419575   6.462   0.722   2.874
  172SAPE   H4X19576   6.428   0.617   2.889
  172SAPE   H4Y19577   6.379   0.783   2.831
  172SAPE   C3519578   6.501   0.782   3.009
  172SAPE   H5X19579   6.528   0.890   2.993
  172SAPE   H5Y19580   6.589   0.725   3.040
  172SAPE   C3619581   6.404   0.775   3.127
  172SAPE   H6X19582   6.375   0.672   3.150
  172SAPE   H6Y19583   6.311   0.828   3.100
  172SAPE   C3719584   6.470   0.839   3.251
  172SAPE   H7X19585   6.546   0.910   3.210
  172SAPE   H7Y19586   6.528   0.766   3.311
  172SAPE   C3819587   6.376   0.927   3.335
  172SAPE   H8X19588   6.299   0.970   3.267
  172SAPE   H8Y19589   6.435   1.011   3.377
  172SAPE   C3919590   6.302   0.858   3.449
  172SAPE   H9X19591   6.234   0.783   3.405
  172SAPE   H9Y19592   6.240   0.935   3.502
  172SAPE  C31019593   6.387   0.788   3.554
  172SAPE  H10X19594   6.422   0.862   3.628
  172SAPE  H10Y19595   6.476   0.739   3.510
  172SAPE  C31119596   6.307   0.685   3.634
  172SAPE  H11X19597   6.295   0.595   3.571
  172SAPE  H11Y19598   6.205   0.721   3.653
  172SAPE  C31219599   6.372   0.653   3.768
  172SAPE  H12X19600   6.324   0.562   3.809
  172SAPE  H12Y19601   6.351   0.737   3.839
  172SAPE  C31319602   6.525   0.635   3.762
  172SAPE  H13X19603   6.577   0.727   3.729
  172SAPE  H13Y19604   6.547   0.558   3.686
  172SAPE  C31419605   6.581   0.591   3.897
  172SAPE  H14X19606   6.670   0.526   3.884
  172SAPE  H14Y19607   6.501   0.531   3.947
  172SAPE  C31519608   6.611   0.708   3.991
  172SAPE  H15X19609   6.563   0.684   4.088
  172SAPE  H15Y19610   6.563   0.800   3.952
  172SAPE  C31619611   6.760   0.735   4.016
  172SAPE  H16X19612   6.809   0.761   3.919
  172SAPE  H16Y19613   6.809   0.644   4.056
  172SAPE  C31719614   6.774   0.850   4.116
  172SAPE  H17X19615   6.708   0.933   4.081
  172SAPE  H17Y19616   6.879   0.888   4.115
  172SAPE  C31819617   6.735   0.813   4.259
  172SAPE  H18X19618   6.632   0.769   4.264
  172SAPE  H18Y19619   6.737   0.901   4.325
  172SAPE  H18Z19620   6.805   0.737   4.298
  173SAPS     N19621   2.022   2.239   6.221
  173SAPS   HN119622   1.923   2.218   6.249
  173SAPS   HN219623   2.048   2.338   6.246
  173SAPS   HN319624   2.030   2.221   6.119
  173SAPS   C1219625   2.108   2.140   6.295
  173SAPS  H12A19626   2.120   2.175   6.397
  173SAPS   C1319627   2.034   2.002   6.299
  173SAPS  O13A19628   1.918   1.996   6.247
  173SAPS  O13B19629   2.070   1.920   6.388
  173SAPS   C1119630   2.248   2.136   6.224
  173SAPS  H11A19631   2.254   2.225   6.156
  173SAPS  H11B19632   2.251   2.046   6.158
  173SAPS     P19633   2.505   2.140   6.240
  173SAPS   O1319634   2.487   2.244   6.135
  173SAPS   O1419635   2.619   2.155   6.334
  173SAPS   O1219636   2.360   2.140   6.316
  173SAPS   O1119637   2.505   1.999   6.169
  173SAPS    C119638   2.471   1.881   6.244
  173SAPS    HA19639   2.557   1.854   6.310
  173SAPS    HB19640   2.380   1.895   6.308
  173SAPS    C219641   2.444   1.756   6.154
  173SAPS    HS19642   2.422   1.671   6.222
  173SAPS   O2119643   2.561   1.732   6.076
  173SAPS   C2119644   2.596   1.611   6.044
  173SAPS   O2219645   2.539   1.507   6.071
  173SAPS   C2219646   2.718   1.617   5.957
  173SAPS   H2R19647   2.747   1.721   5.934
  173SAPS   H2S19648   2.802   1.570   6.011
  173SAPS    C319649   2.322   1.772   6.058
  173SAPS    HX19650   2.229   1.781   6.118
  173SAPS    HY19651   2.320   1.674   6.003
  173SAPS   O3119652   2.335   1.883   5.967
  173SAPS   C3119653   2.260   1.869   5.860
  173SAPS   O3219654   2.174   1.785   5.843
  173SAPS   C3219655   2.311   1.963   5.753
  173SAPS   H2X19656   2.421   1.954   5.747
  173SAPS   H2Y19657   2.284   2.067   5.779
  173SAPS   C2319658   2.686   1.534   5.834
  173SAPS   H3R19659   2.611   1.453   5.850
  173SAPS   H3S19660   2.780   1.480   5.811
  173SAPS   C2419661   2.636   1.626   5.724
  173SAPS   H4R19662   2.696   1.720   5.721
  173SAPS   H4S19663   2.529   1.655   5.738
  173SAPS   C2519664   2.661   1.549   5.600
  173SAPS   H5R19665   2.727   1.461   5.610
  173SAPS   C2619666   2.611   1.576   5.482
  173SAPS   H6R19667   2.659   1.522   5.400
  173SAPS   C2719668   2.518   1.688   5.443
  173SAPS   H7R19669   2.552   1.784   5.488
  173SAPS   H7S19670   2.415   1.668   5.480
  173SAPS   C2819671   2.515   1.700   5.293
  173SAPS   H8R19672   2.516   1.804   5.256
  173SAPS   C2919673   2.512   1.600   5.203
  173SAPS   H9R19674   2.510   1.631   5.099
  173SAPS  C21019675   2.509   1.449   5.219
  173SAPS  H10R19676   2.603   1.410   5.259
  173SAPS  H10S19677   2.507   1.402   5.118
  173SAPS  C21119678   2.393   1.396   5.301
  173SAPS  H11R19679   2.420   1.327   5.383
  173SAPS  C21219680   2.263   1.428   5.282
  173SAPS  H12R19681   2.188   1.377   5.345
  173SAPS  C21319682   2.208   1.522   5.174
  173SAPS  H13R19683   2.203   1.626   5.211
  173SAPS  H13S19684   2.104   1.486   5.161
  173SAPS  C21419685   2.279   1.508   5.041
  173SAPS  H14R19686   2.305   1.403   5.035
  173SAPS  C21519687   2.331   1.583   4.939
  173SAPS  H15R19688   2.374   1.522   4.859
  173SAPS  C21619689   2.345   1.730   4.903
  173SAPS  H16R19690   2.409   1.786   4.975
  173SAPS  H16S19691   2.248   1.779   4.903
  173SAPS  C21719692   2.389   1.759   4.756
  173SAPS  H17R19693   2.385   1.664   4.697
  173SAPS  H17S19694   2.494   1.796   4.754
  173SAPS  C21819695   2.300   1.853   4.674
  173SAPS  H18R19696   2.297   1.954   4.720
  173SAPS  H18S19697   2.196   1.814   4.672
  173SAPS  C21919698   2.348   1.866   4.528
  173SAPS  H19R19699   2.458   1.887   4.528
  173SAPS  H19S19700   2.299   1.955   4.481
  173SAPS  C22019701   2.318   1.743   4.442
  173SAPS  H20R19702   2.406   1.676   4.430
  173SAPS  H20S19703   2.285   1.773   4.341
  173SAPS  H20T19704   2.238   1.682   4.489
  173SAPS   C3319705   2.245   1.920   5.621
  173SAPS   H3X19706   2.254   1.810   5.604
  173SAPS   H3Y19707   2.300   1.968   5.537
  173SAPS   C3419708   2.096   1.959   5.620
  173SAPS   H4X19709   2.078   2.049   5.682
  173SAPS   H4Y19710   2.036   1.876   5.665
  173SAPS   C3519711   2.045   1.987   5.480
  173SAPS   H5X19712   1.934   1.996   5.482
  173SAPS   H5Y19713   2.069   1.898   5.419
  173SAPS   C3619714   2.105   2.116   5.420
  173SAPS   H6X19715   2.211   2.128   5.448
  173SAPS   H6Y19716   2.049   2.202   5.463
  173SAPS   C3719717   2.097   2.115   5.268
  173SAPS   H7X19718   2.122   2.214   5.226
  173SAPS   H7Y19719   1.990   2.095   5.242
  173SAPS   C3819720   2.186   2.005   5.207
  173SAPS   H8X19721   2.142   1.974   5.112
  173SAPS   H8Y19722   2.192   1.912   5.267
  173SAPS   C3919723   2.323   2.050   5.160
  173SAPS   H9X19724   2.384   1.958   5.144
  173SAPS   H9Y19725   2.373   2.113   5.236
  173SAPS  C31019726   2.308   2.120   5.024
  173SAPS  H10X19727   2.270   2.223   5.040
  173SAPS  H10Y19728   2.232   2.068   4.961
  173SAPS  C31119729   2.436   2.117   4.943
  173SAPS  H11X19730   2.465   2.012   4.923
  173SAPS  H11Y19731   2.516   2.165   5.004
  173SAPS  C31219732   2.418   2.193   4.811
  173SAPS  H12X19733   2.412   2.299   4.842
  173SAPS  H12Y19734   2.321   2.167   4.763
  173SAPS  C31319735   2.533   2.171   4.711
  173SAPS  H13X19736   2.534   2.254   4.637
  173SAPS  H13Y19737   2.513   2.077   4.653
  173SAPS  C31419738   2.668   2.157   4.782
  173SAPS  H14X19739   2.672   2.052   4.815
  173SAPS  H14Y19740   2.669   2.220   4.873
  173SAPS  C31519741   2.797   2.192   4.706
  173SAPS  H15X19742   2.883   2.165   4.773
  173SAPS  H15Y19743   2.800   2.302   4.692
  173SAPS  C31619744   2.817   2.125   4.570
  173SAPS  H16X19745   2.825   2.203   4.492
  173SAPS  H16Y19746   2.723   2.072   4.547
  173SAPS  C31719747   2.942   2.035   4.564
  173SAPS  H17X19748   2.921   1.939   4.615
  173SAPS  H17Y19749   3.025   2.085   4.620
  173SAPS  C31819750   2.993   2.008   4.422
  173SAPS  H18X19751   2.911   2.019   4.347
  173SAPS  H18Y19752   3.033   1.904   4.413
  173SAPS  H18Z19753   3.075   2.078   4.394
  174SAPS     N19754   4.442   6.241   6.324
  174SAPS   HN119755   4.369   6.311   6.303
  174SAPS   HN219756   4.482   6.267   6.418
  174SAPS   HN319757   4.513   6.235   6.249
  174SAPS   C1219758   4.380   6.109   6.359
  174SAPS  H12A19759   4.460   6.037   6.367
  174SAPS   C1319760   4.321   6.121   6.503
  174SAPS  O13A19761   4.349   6.228   6.566
  174SAPS  O13B19762   4.288   6.016   6.563
  174SAPS   C1119763   4.282   6.063   6.246
  174SAPS  H11A19764   4.313   6.110   6.150
  174SAPS  H11B19765   4.179   6.096   6.269
  174SAPS     P19766   4.237   5.840   6.106
  174SAPS   O1319767   4.315   5.714   6.100
  174SAPS   O1419768   4.090   5.834   6.105
  174SAPS   O1219769   4.287   5.921   6.233
  174SAPS   O1119770   4.287   5.934   5.990
  174SAPS    C119771   4.417   5.926   5.933
  174SAPS    HA19772   4.495   5.911   6.010
  174SAPS    HB19773   4.421   5.842   5.860
  174SAPS    C219774   4.446   6.057   5.856
  174SAPS    HS19775   4.451   6.139   5.931
  174SAPS   O2119776   4.339   6.082   5.763
  174SAPS   C2119777   4.330   6.204   5.715
  174SAPS   O2219778   4.409   6.296   5.732
  174SAPS   C2219779   4.192   6.212   5.649
  174SAPS   H2R19780   4.168   6.115   5.601
  174SAPS   H2S19781   4.121   6.227   5.733
  174SAPS    C319782   4.582   6.050   5.782
  174SAPS    HX19783   4.660   6.018   5.854
  174SAPS    HY19784   4.606   6.154   5.748
  174SAPS   O3119785   4.573   5.957   5.672
  174SAPS   C3119786   4.672   5.975   5.586
  174SAPS   O3219787   4.769   6.045   5.606
  174SAPS   C3219788   4.647   5.898   5.457
  174SAPS   H2X19789   4.545   5.857   5.457
  174SAPS   H2Y19790   4.720   5.815   5.454
  174SAPS   C2319791   4.174   6.328   5.550
  174SAPS   H3R19792   4.211   6.422   5.595
  174SAPS   H3S19793   4.064   6.339   5.535
  174SAPS   C2419794   4.238   6.300   5.413
  174SAPS   H4R19795   4.207   6.199   5.378
  174SAPS   H4S19796   4.349   6.299   5.424
  174SAPS   C2519797   4.193   6.404   5.314
  174SAPS   H5R19798   4.089   6.437   5.326
  174SAPS   C2619799   4.261   6.449   5.208
  174SAPS   H6R19800   4.215   6.525   5.142
  174SAPS   C2719801   4.398   6.406   5.164
  174SAPS   H7R19802   4.461   6.366   5.247
  174SAPS   H7S19803   4.454   6.492   5.121
  174SAPS   C2819804   4.373   6.298   5.062
  174SAPS   H8R19805   4.369   6.195   5.102
  174SAPS   C2919806   4.356   6.319   4.930
  174SAPS   H9R19807   4.334   6.233   4.866
  174SAPS  C21019808   4.359   6.454   4.861
  174SAPS  H10R19809   4.317   6.534   4.927
  174SAPS  H10S19810   4.293   6.452   4.772
  174SAPS  C21119811   4.500   6.490   4.821
  174SAPS  H11R19812   4.548   6.567   4.883
  174SAPS  C21219813   4.571   6.430   4.724
  174SAPS  H12R19814   4.674   6.464   4.705
  174SAPS  C21319815   4.522   6.316   4.638
  174SAPS  H13R19816   4.428   6.272   4.677
  174SAPS  H13S19817   4.597   6.234   4.642
  174SAPS  C21419818   4.504   6.358   4.495
  174SAPS  H14R19819   4.574   6.435   4.462
  174SAPS  C21519820   4.404   6.322   4.412
  174SAPS  H15R19821   4.403   6.365   4.310
  174SAPS  C21619822   4.287   6.232   4.443
  174SAPS  H16R19823   4.295   6.181   4.541
  174SAPS  H16S19824   4.275   6.155   4.364
  174SAPS  C21719825   4.166   6.326   4.442
  174SAPS  H17R19826   4.158   6.362   4.336
  174SAPS  H17S19827   4.185   6.414   4.509
  174SAPS  C21819828   4.029   6.271   4.484
  174SAPS  H18R19829   4.034   6.224   4.585
  174SAPS  H18S19830   3.996   6.193   4.411
  174SAPS  C21919831   3.925   6.385   4.486
  174SAPS  H19R19832   3.939   6.445   4.579
  174SAPS  H19S19833   3.822   6.343   4.490
  174SAPS  C22019834   3.937   6.480   4.366
  174SAPS  H20R19835   3.865   6.563   4.371
  174SAPS  H20S19836   3.922   6.424   4.271
  174SAPS  H20T19837   4.038   6.526   4.362
  174SAPS   C3319838   4.669   5.989   5.333
  174SAPS   H3X19839   4.766   6.043   5.343
  174SAPS   H3Y19840   4.589   6.066   5.327
  174SAPS   C3419841   4.673   5.908   5.203
  174SAPS   H4X19842   4.746   5.825   5.213
  174SAPS   H4Y19843   4.709   5.975   5.121
  174SAPS   C3519844   4.536   5.853   5.163
  174SAPS   H5X19845   4.465   5.939   5.156
  174SAPS   H5Y19846   4.496   5.783   5.240
  174SAPS   C3619847   4.541   5.781   5.028
  174SAPS   H6X19848   4.579   5.678   5.043
  174SAPS   H6Y19849   4.615   5.831   4.963
  174SAPS   C3719850   4.405   5.774   4.958
  174SAPS   H7X19851   4.328   5.739   5.030
  174SAPS   H7Y19852   4.412   5.696   4.879
  174SAPS   C3819853   4.361   5.907   4.895
  174SAPS   H8X19854   4.337   5.980   4.975
  174SAPS   H8Y19855   4.266   5.889   4.838
  174SAPS   C3919856   4.464   5.971   4.800
  174SAPS   H9X19857   4.547   6.014   4.859
  174SAPS   H9Y19858   4.415   6.056   4.747
  174SAPS  C31019859   4.522   5.874   4.695
  174SAPS  H10X19860   4.588   5.799   4.746
  174SAPS  H10Y19861   4.587   5.932   4.626
  174SAPS  C31119862   4.416   5.799   4.615
  174SAPS  H11X19863   4.352   5.736   4.681
  174SAPS  H11Y19864   4.467   5.729   4.544
  174SAPS  C31219865   4.325   5.892   4.535
  174SAPS  H12X19866   4.391   5.950   4.466
  174SAPS  H12Y19867   4.273   5.965   4.601
  174SAPS  C31319868   4.222   5.813   4.454
  174SAPS  H13X19869   4.131   5.792   4.515
  174SAPS  H13Y19870   4.269   5.715   4.429
  174SAPS  C31419871   4.187   5.885   4.324
  174SAPS  H14X19872   4.279   5.935   4.286
  174SAPS  H14Y19873   4.110   5.964   4.341
  174SAPS  C31519874   4.143   5.787   4.216
  174SAPS  H15X19875   4.041   5.748   4.235
  174SAPS  H15Y19876   4.212   5.699   4.221
  174SAPS  C31619877   4.157   5.844   4.074
  174SAPS  H16X19878   4.144   5.757   4.006
  174SAPS  H16Y19879   4.259   5.889   4.063
  174SAPS  C31719880   4.059   5.950   4.028
  174SAPS  H17X19881   4.061   5.952   3.916
  174SAPS  H17Y19882   4.092   6.050   4.064
  174SAPS  C31819883   3.920   5.921   4.077
  174SAPS  H18X19884   3.846   5.991   4.036
  174SAPS  H18Y19885   3.918   5.930   4.188
  174SAPS  H18Z19886   3.890   5.817   4.051
  175SAPS     N19887   3.265   0.779   6.294
  175SAPS   HN119888   3.199   0.704   6.326
  175SAPS   HN219889   3.293   0.763   6.195
  175SAPS   HN319890   3.350   0.766   6.352
  175SAPS   C1219891   3.210   0.917   6.315
  175SAPS  H12A19892   3.138   0.939   6.237
  175SAPS   C1319893   3.136   0.937   6.447
  175SAPS  O13A19894   3.140   0.847   6.535
  175SAPS  O13B19895   3.064   1.041   6.459
  175SAPS   C1119896   3.325   1.020   6.313
  175SAPS  H11A19897   3.417   0.969   6.351
  175SAPS  H11B19898   3.309   1.103   6.384
  175SAPS     P19899   3.482   1.108   6.131
  175SAPS   O1319900   3.481   1.212   6.026
  175SAPS   O1419901   3.574   1.127   6.247
  175SAPS   O1219902   3.337   1.079   6.184
  175SAPS   O1119903   3.510   0.964   6.069
  175SAPS    C119904   3.599   0.874   6.134
  175SAPS    HA19905   3.679   0.926   6.193
  175SAPS    HB19906   3.544   0.809   6.205
  175SAPS    C219907   3.676   0.786   6.032
  175SAPS    HS19908   3.763   0.743   6.086
  175SAPS   O2119909   3.727   0.854   5.915
  175SAPS   C2119910   3.756   0.981   5.919
  175SAPS   O2219911   3.772   1.052   6.016
  175SAPS   C2219912   3.791   1.028   5.781
  175SAPS   H2R19913   3.858   1.116   5.794
  175SAPS   H2S19914   3.848   0.948   5.729
  175SAPS    C319915   3.591   0.668   5.979
  175SAPS    HX19916   3.567   0.600   6.064
  175SAPS    HY19917   3.660   0.618   5.909
  175SAPS   O3119918   3.470   0.706   5.912
  175SAPS   C3119919   3.444   0.637   5.801
  175SAPS   O3219920   3.500   0.535   5.767
  175SAPS   C3219921   3.343   0.714   5.718
  175SAPS   H2X19922   3.293   0.640   5.652
  175SAPS   H2Y19923   3.402   0.782   5.653
  175SAPS   C2319924   3.666   1.071   5.702
  175SAPS   H3R19925   3.600   1.135   5.766
  175SAPS   H3S19926   3.608   0.980   5.676
  175SAPS   C2419927   3.703   1.150   5.577
  175SAPS   H4R19928   3.746   1.248   5.608
  175SAPS   H4S19929   3.611   1.172   5.519
  175SAPS   C2519930   3.804   1.071   5.497
  175SAPS   H5R19931   3.909   1.083   5.527
  175SAPS   C2619932   3.774   0.978   5.406
  175SAPS   H6R19933   3.857   0.925   5.355
  175SAPS   C2719934   3.634   0.939   5.369
  175SAPS   H7R19935   3.589   1.025   5.318
  175SAPS   H7S19936   3.571   0.919   5.459
  175SAPS   C2819937   3.634   0.819   5.279
  175SAPS   H8R19938   3.721   0.815   5.212
  175SAPS   C2919939   3.541   0.724   5.261
  175SAPS   H9R19940   3.574   0.635   5.206
  175SAPS  C21019941   3.406   0.701   5.321
  175SAPS  H10R19942   3.346   0.795   5.319
  175SAPS  H10S19943   3.421   0.676   5.428
  175SAPS  C21119944   3.331   0.587   5.254
  175SAPS  H11R19945   3.276   0.525   5.327
  175SAPS  C21219946   3.321   0.550   5.124
  175SAPS  H12R19947   3.259   0.461   5.101
  175SAPS  C21319948   3.382   0.613   5.000
  175SAPS  H13R19949   3.445   0.701   5.026
  175SAPS  H13S19950   3.299   0.656   4.943
  175SAPS  C21419951   3.462   0.527   4.905
  175SAPS  H14R19952   3.550   0.479   4.950
  175SAPS  C21519953   3.443   0.510   4.773
  175SAPS  H15R19954   3.507   0.438   4.718
  175SAPS  C21619955   3.335   0.575   4.690
  175SAPS  H16R19956   3.247   0.600   4.754
  175SAPS  H16S19957   3.296   0.504   4.614
  175SAPS  C21719958   3.372   0.703   4.613
  175SAPS  H17R19959   3.423   0.778   4.677
  175SAPS  H17S19960   3.274   0.746   4.583
  175SAPS  C21819961   3.453   0.673   4.487
  175SAPS  H18R19962   3.420   0.575   4.444
  175SAPS  H18S19963   3.561   0.662   4.514
  175SAPS  C21919964   3.435   0.778   4.376
  175SAPS  H19R19965   3.500   0.748   4.290
  175SAPS  H19S19966   3.472   0.876   4.414
  175SAPS  C22019967   3.293   0.796   4.324
  175SAPS  H20R19968   3.226   0.836   4.403
  175SAPS  H20S19969   3.253   0.698   4.290
  175SAPS  H20T19970   3.291   0.866   4.238
  175SAPS   C3319971   3.237   0.794   5.796
  175SAPS   H3X19972   3.284   0.883   5.844
  175SAPS   H3Y19973   3.193   0.734   5.879
  175SAPS   C3419974   3.124   0.837   5.701
  175SAPS   H4X19975   3.051   0.899   5.758
  175SAPS   H4Y19976   3.070   0.748   5.663
  175SAPS   C3519977   3.177   0.919   5.583
  175SAPS   H5X19978   3.090   0.959   5.526
  175SAPS   H5Y19979   3.232   0.852   5.514
  175SAPS   C3619980   3.270   1.034   5.624
  175SAPS   H6X19981   3.369   0.993   5.653
  175SAPS   H6Y19982   3.228   1.085   5.713
  175SAPS   C3719983   3.293   1.138   5.514
  175SAPS   H7X19984   3.390   1.188   5.533
  175SAPS   H7Y19985   3.215   1.217   5.523
  175SAPS   C3819986   3.290   1.081   5.371
  175SAPS   H8X19987   3.197   1.023   5.353
  175SAPS   H8Y19988   3.375   1.011   5.359
  175SAPS   C3919989   3.293   1.190   5.264
  175SAPS   H9X19990   3.380   1.256   5.281
  175SAPS   H9Y19991   3.204   1.251   5.280
  175SAPS  C31019992   3.296   1.135   5.120
  175SAPS  H10X19993   3.294   1.219   5.048
  175SAPS  H10Y19994   3.206   1.074   5.101
  175SAPS  C31119995   3.424   1.052   5.100
  175SAPS  H11X19996   3.409   0.947   5.133
  175SAPS  H11Y19997   3.495   1.100   5.170
  175SAPS  C31219998   3.497   1.060   4.965
  175SAPS  H12X19999   3.454   1.142   4.904
  175SAPS  H12Y20000   3.482   0.964   4.910
  175SAPS  C31320001   3.647   1.084   4.988
  175SAPS  H13X20002   3.683   1.009   5.062
  175SAPS  H13Y20003   3.661   1.185   5.034
  175SAPS  C31420004   3.737   1.074   4.864
  175SAPS  H14X20005   3.720   0.975   4.815
  175SAPS  H14Y20006   3.844   1.079   4.895
  175SAPS  C31520007   3.713   1.184   4.760
  175SAPS  H15X20008   3.752   1.281   4.798
  175SAPS  H15Y20009   3.604   1.194   4.744
  175SAPS  C31620010   3.779   1.149   4.626
  175SAPS  H16X20011   3.749   1.046   4.598
  175SAPS  H16Y20012   3.890   1.153   4.635
  175SAPS  C31720013   3.734   1.242   4.514
  175SAPS  H17X20014   3.624   1.244   4.517
  175SAPS  H17Y20015   3.760   1.201   4.414
  175SAPS  C31820016   3.796   1.381   4.525
  175SAPS  H18X20017   3.901   1.371   4.560
  175SAPS  H18Y20018   3.741   1.445   4.598
  175SAPS  H18Z20019   3.797   1.431   4.426
  176SAPS     N20020   1.905   1.062   6.354
  176SAPS   HN120021   1.875   1.053   6.453
  176SAPS   HN220022   1.820   1.086   6.299
  176SAPS   HN320023   1.947   0.971   6.326
  176SAPS   C1220024   2.014   1.167   6.349
  176SAPS  H12A20025   1.978   1.258   6.396
  176SAPS   C1320026   2.145   1.127   6.419
  176SAPS  O13A20027   2.163   1.005   6.444
  176SAPS  O13B20028   2.214   1.217   6.474
  176SAPS   C1120029   2.051   1.192   6.201
  176SAPS  H11A20030   1.959   1.197   6.140
  176SAPS  H11B20031   2.108   1.105   6.160
  176SAPS     P20032   2.072   1.454   6.170
  176SAPS   O1320033   1.990   1.486   6.290
  176SAPS   O1420034   2.188   1.538   6.136
  176SAPS   O1220035   2.130   1.308   6.187
  176SAPS   O1120036   1.973   1.429   6.047
  176SAPS    C120037   1.834   1.403   6.073
  176SAPS    HA20038   1.817   1.355   6.172
  176SAPS    HB20039   1.780   1.501   6.074
  176SAPS    C220040   1.761   1.309   5.969
  176SAPS    HS20041   1.663   1.279   6.014
  176SAPS   O2120042   1.839   1.189   5.939
  176SAPS   C2120043   1.783   1.106   5.851
  176SAPS   O2220044   1.664   1.101   5.825
  176SAPS   C2220045   1.888   1.012   5.792
  176SAPS   H2R20046   1.970   1.076   5.752
  176SAPS   H2S20047   1.926   0.950   5.875
  176SAPS    C320048   1.729   1.391   5.839
  176SAPS    HX20049   1.641   1.454   5.865
  176SAPS    HY20050   1.694   1.325   5.757
  176SAPS   O3120051   1.833   1.481   5.797
  176SAPS   C3120052   1.911   1.442   5.699
  176SAPS   O3220053   1.915   1.330   5.651
  176SAPS   C3220054   1.991   1.563   5.642
  176SAPS   H2X20055   2.097   1.538   5.665
  176SAPS   H2Y20056   1.965   1.655   5.698
  176SAPS   C2320057   1.831   0.922   5.680
  176SAPS   H3R20058   1.731   0.881   5.707
  176SAPS   H3S20059   1.900   0.837   5.666
  176SAPS   C2420060   1.821   0.997   5.546
  176SAPS   H4R20061   1.914   1.057   5.533
  176SAPS   H4S20062   1.738   1.069   5.557
  176SAPS   C2520063   1.797   0.908   5.427
  176SAPS   H5R20064   1.705   0.847   5.430
  176SAPS   C2620065   1.877   0.895   5.320
  176SAPS   H6R20066   1.844   0.831   5.238
  176SAPS   C2720067   2.009   0.965   5.298
  176SAPS   H7R20068   2.065   0.907   5.222
  176SAPS   H7S20069   2.072   0.959   5.389
  176SAPS   C2820070   1.996   1.109   5.256
  176SAPS   H8R20071   1.983   1.182   5.338
  176SAPS   C2920072   2.006   1.154   5.130
  176SAPS   H9R20073   2.002   1.262   5.110
  176SAPS  C21020074   2.033   1.066   5.011
  176SAPS  H10R20075   1.996   1.116   4.919
  176SAPS  H10S20076   1.977   0.970   5.017
  176SAPS  C21120077   2.181   1.039   5.005
  176SAPS  H11R20078   2.213   0.946   5.052
  176SAPS  C21220079   2.274   1.114   4.943
  176SAPS  H12R20080   2.378   1.092   4.968
  176SAPS  C21320081   2.257   1.241   4.865
  176SAPS  H13R20082   2.349   1.298   4.888
  176SAPS  H13S20083   2.173   1.299   4.908
  176SAPS  C21420084   2.257   1.248   4.715
  176SAPS  H14R20085   2.330   1.321   4.677
  176SAPS  C21520086   2.178   1.190   4.623
  176SAPS  H15R20087   2.206   1.206   4.518
  176SAPS  C21620088   2.062   1.097   4.640
  176SAPS  H16R20089   2.000   1.097   4.547
  176SAPS  H16S20090   1.995   1.133   4.720
  176SAPS  C21720091   2.096   0.952   4.676
  176SAPS  H17R20092   1.999   0.898   4.690
  176SAPS  H17S20093   2.149   0.947   4.773
  176SAPS  C21820094   2.181   0.877   4.574
  176SAPS  H18R20095   2.176   0.771   4.602
  176SAPS  H18S20096   2.287   0.907   4.581
  176SAPS  C21920097   2.131   0.892   4.432
  176SAPS  H19R20098   2.157   0.995   4.402
  176SAPS  H19S20099   2.020   0.880   4.434
  176SAPS  C22020100   2.189   0.792   4.333
  176SAPS  H20R20101   2.298   0.810   4.320
  176SAPS  H20S20102   2.139   0.800   4.234
  176SAPS  H20T20103   2.173   0.689   4.370
  176SAPS   C3320104   1.990   1.584   5.486
  176SAPS   H3X20105   2.004   1.485   5.437
  176SAPS   H3Y20106   2.079   1.647   5.462
  176SAPS   C3420107   1.874   1.657   5.416
  176SAPS   H4X20108   1.890   1.768   5.418
  176SAPS   H4Y20109   1.780   1.643   5.471
  176SAPS   C3520110   1.867   1.612   5.267
  176SAPS   H5X20111   1.913   1.512   5.256
  176SAPS   H5Y20112   1.932   1.683   5.212
  176SAPS   C3620113   1.728   1.606   5.198
  176SAPS   H6X20114   1.683   1.701   5.223
  176SAPS   H6Y20115   1.669   1.526   5.241
  176SAPS   C3720116   1.734   1.601   5.045
  176SAPS   H7X20117   1.781   1.506   5.013
  176SAPS   H7Y20118   1.802   1.686   5.046
  176SAPS   C3820119   1.641   1.665   4.937
  176SAPS   H8X20120   1.581   1.747   4.980
  176SAPS   H8Y20121   1.571   1.582   4.917
  176SAPS   C3920122   1.690   1.705   4.788
  176SAPS   H9X20123   1.602   1.757   4.748
  176SAPS   H9Y20124   1.693   1.612   4.735
  176SAPS  C31020125   1.814   1.785   4.727
  176SAPS  H10X20126   1.912   1.753   4.752
  176SAPS  H10Y20127   1.812   1.891   4.761
  176SAPS  C31120128   1.838   1.778   4.570
  176SAPS  H11X20129   1.898   1.868   4.548
  176SAPS  H11Y20130   1.739   1.787   4.523
  176SAPS  C31220131   1.943   1.679   4.508
  176SAPS  H12X20132   1.918   1.575   4.526
  176SAPS  H12Y20133   2.038   1.704   4.562
  176SAPS  C31320134   1.984   1.682   4.358
  176SAPS  H13X20135   2.063   1.759   4.344
  176SAPS  H13Y20136   1.896   1.718   4.300
  176SAPS  C31420137   2.028   1.548   4.286
  176SAPS  H14X20138   2.084   1.578   4.195
  176SAPS  H14Y20139   1.934   1.500   4.250
  176SAPS  C31520140   2.112   1.435   4.352
  176SAPS  H15X20141   2.078   1.418   4.457
  176SAPS  H15Y20142   2.219   1.466   4.356
  176SAPS  C31620143   2.108   1.298   4.277
  176SAPS  H16X20144   2.171   1.224   4.330
  176SAPS  H16Y20145   2.155   1.309   4.177
  176SAPS  C31720146   1.969   1.232   4.259
  176SAPS  H17X20147   1.923   1.280   4.170
  176SAPS  H17Y20148   1.905   1.256   4.347
  176SAPS  C31820149   1.966   1.079   4.240
  176SAPS  H18X20150   1.921   1.029   4.328
  176SAPS  H18Y20151   2.067   1.039   4.225
  176SAPS  H18Z20152   1.909   1.047   4.151
  177SAPS     N20153   6.767   2.183   6.430
  177SAPS   HN120154   6.862   2.152   6.460
  177SAPS   HN220155   6.695   2.165   6.505
  177SAPS   HN320156   6.742   2.125   6.346
  177SAPS   C1220157   6.767   2.324   6.391
  177SAPS  H12A20158   6.666   2.351   6.364
  177SAPS   C1320159   6.811   2.412   6.508
  177SAPS  O13A20160   6.876   2.363   6.605
  177SAPS  O13B20161   6.773   2.532   6.505
  177SAPS   C1120162   6.869   2.351   6.275
  177SAPS  H11A20163   6.973   2.346   6.315
  177SAPS  H11B20164   6.851   2.456   6.243
  177SAPS     P20165   6.890   2.114   6.154
  177SAPS   O1320166   6.923   2.074   6.017
  177SAPS   O1420167   6.991   2.090   6.261
  177SAPS   O1220168   6.856   2.268   6.159
  177SAPS   O1120169   6.749   2.055   6.197
  177SAPS    C120170   6.628   2.120   6.154
  177SAPS    HA20171   6.550   2.102   6.232
  177SAPS    HB20172   6.636   2.231   6.142
  177SAPS    C220173   6.574   2.059   6.024
  177SAPS    HS20174   6.566   1.950   6.050
  177SAPS   O2120175   6.662   2.089   5.911
  177SAPS   C2120176   6.693   1.979   5.840
  177SAPS   O2220177   6.656   1.866   5.870
  177SAPS   C2220178   6.766   2.005   5.704
  177SAPS   H2R20179   6.783   1.903   5.665
  177SAPS   H2S20180   6.696   2.057   5.636
  177SAPS    C320181   6.428   2.112   5.998
  177SAPS    HX20182   6.370   2.093   6.091
  177SAPS    HY20183   6.376   2.050   5.923
  177SAPS   O3120184   6.421   2.253   5.966
  177SAPS   C3120185   6.444   2.275   5.836
  177SAPS   O3220186   6.468   2.190   5.752
  177SAPS   C3220187   6.429   2.422   5.806
  177SAPS   H2X20188   6.332   2.457   5.844
  177SAPS   H2Y20189   6.428   2.433   5.695
  177SAPS   C2320190   6.902   2.081   5.707
  177SAPS   H3R20191   6.961   2.041   5.793
  177SAPS   H3S20192   6.880   2.188   5.729
  177SAPS   C2420193   7.004   2.075   5.587
  177SAPS   H4R20194   7.056   1.977   5.588
  177SAPS   H4S20195   7.079   2.146   5.625
  177SAPS   C2520196   6.978   2.120   5.444
  177SAPS   H5R20197   7.040   2.205   5.412
  177SAPS   C2620198   6.920   2.048   5.347
  177SAPS   H6R20199   6.897   2.089   5.248
  177SAPS   C2720200   6.875   1.909   5.376
  177SAPS   H7R20201   6.821   1.914   5.472
  177SAPS   H7S20202   6.971   1.859   5.393
  177SAPS   C2820203   6.798   1.810   5.295
  177SAPS   H8R20204   6.770   1.727   5.361
  177SAPS   C2920205   6.758   1.796   5.169
  177SAPS   H9R20206   6.694   1.707   5.157
  177SAPS  C21020207   6.767   1.881   5.044
  177SAPS  H10R20208   6.869   1.922   5.027
  177SAPS  H10S20209   6.701   1.969   5.054
  177SAPS  C21120210   6.717   1.792   4.932
  177SAPS  H11R20211   6.625   1.736   4.956
  177SAPS  C21220212   6.766   1.773   4.808
  177SAPS  H12R20213   6.718   1.698   4.744
  177SAPS  C21320214   6.887   1.839   4.749
  177SAPS  H13R20215   6.949   1.887   4.827
  177SAPS  H13S20216   6.847   1.923   4.689
  177SAPS  C21420217   6.976   1.749   4.668
  177SAPS  H14R20218   6.982   1.643   4.698
  177SAPS  C21520219   7.007   1.773   4.541
  177SAPS  H15R20220   7.069   1.702   4.484
  177SAPS  C21620221   6.955   1.891   4.465
  177SAPS  H16R20222   7.020   1.902   4.377
  177SAPS  H16S20223   6.961   1.985   4.524
  177SAPS  C21720224   6.809   1.861   4.420
  177SAPS  H17R20225   6.779   1.928   4.336
  177SAPS  H17S20226   6.740   1.880   4.505
  177SAPS  C21820227   6.797   1.714   4.377
  177SAPS  H18R20228   6.774   1.647   4.463
  177SAPS  H18S20229   6.899   1.688   4.340
  177SAPS  C21920230   6.715   1.674   4.257
  177SAPS  H19R20231   6.724   1.751   4.179
  177SAPS  H19S20232   6.606   1.665   4.278
  177SAPS  C22020233   6.773   1.541   4.210
  177SAPS  H20R20234   6.883   1.537   4.216
  177SAPS  H20S20235   6.750   1.525   4.104
  177SAPS  H20T20236   6.732   1.456   4.269
  177SAPS   C3320237   6.544   2.506   5.866
  177SAPS   H3X20238   6.538   2.507   5.977
  177SAPS   H3Y20239   6.530   2.610   5.831
  177SAPS   C3420240   6.683   2.461   5.820
  177SAPS   H4X20241   6.693   2.350   5.822
  177SAPS   H4Y20242   6.761   2.501   5.887
  177SAPS   C3520243   6.707   2.514   5.678
  177SAPS   H5X20244   6.708   2.626   5.683
  177SAPS   H5Y20245   6.622   2.485   5.613
  177SAPS   C3620246   6.835   2.466   5.612
  177SAPS   H6X20247   6.828   2.355   5.600
  177SAPS   H6Y20248   6.924   2.486   5.677
  177SAPS   C3720249   6.852   2.534   5.476
  177SAPS   H7X20250   6.936   2.607   5.482
  177SAPS   H7Y20251   6.759   2.590   5.453
  177SAPS   C3820252   6.875   2.433   5.364
  177SAPS   H8X20253   6.954   2.369   5.405
  177SAPS   H8Y20254   6.921   2.477   5.275
  177SAPS   C3920255   6.748   2.353   5.327
  177SAPS   H9X20256   6.693   2.328   5.420
  177SAPS   H9Y20257   6.777   2.258   5.279
  177SAPS  C31020258   6.652   2.423   5.229
  177SAPS  H10X20259   6.629   2.524   5.269
  177SAPS  H10Y20260   6.557   2.366   5.224
  177SAPS  C31120261   6.709   2.437   5.087
  177SAPS  H11X20262   6.817   2.465   5.094
  177SAPS  H11Y20263   6.658   2.521   5.034
  177SAPS  C31220264   6.702   2.312   4.998
  177SAPS  H12X20265   6.598   2.295   4.965
  177SAPS  H12Y20266   6.735   2.223   5.056
  177SAPS  C31320267   6.796   2.331   4.878
  177SAPS  H13X20268   6.899   2.338   4.919
  177SAPS  H13Y20269   6.773   2.429   4.830
  177SAPS  C31420270   6.790   2.222   4.771
  177SAPS  H14X20271   6.686   2.214   4.732
  177SAPS  H14Y20272   6.816   2.124   4.816
  177SAPS  C31520273   6.886   2.251   4.653
  177SAPS  H15X20274   6.857   2.349   4.608
  177SAPS  H15Y20275   6.872   2.173   4.576
  177SAPS  C31620276   7.034   2.257   4.696
  177SAPS  H16X20277   7.062   2.161   4.745
  177SAPS  H16Y20278   7.046   2.339   4.770
  177SAPS  C31720279   7.133   2.287   4.582
  177SAPS  H17X20280   7.230   2.318   4.627
  177SAPS  H17Y20281   7.094   2.373   4.524
  177SAPS  C31820282   7.160   2.174   4.484
  177SAPS  H18X20283   7.240   2.205   4.415
  177SAPS  H18Y20284   7.069   2.151   4.425
  177SAPS  H18Z20285   7.193   2.082   4.537
  178SAPS     N20286   0.122   2.167   6.258
  178SAPS   HN120287   0.120   2.079   6.312
  178SAPS   HN220288   0.029   2.187   6.211
  178SAPS   HN320289   0.200   2.169   6.187
  178SAPS   C1220290   0.160   2.283   6.344
  178SAPS  H12A20291   0.092   2.363   6.322
  178SAPS   C1320292   0.152   2.258   6.497
  178SAPS  O13A20293   0.102   2.150   6.538
  178SAPS  O13B20294   0.172   2.357   6.571
  178SAPS   C1120295   0.302   2.327   6.300
  178SAPS  H11A20296   0.381   2.271   6.355
  178SAPS  H11B20297   0.311   2.436   6.329
  178SAPS     P20298   0.405   2.408   6.076
  178SAPS   O1320299   0.358   2.543   6.107
  178SAPS   O1420300   0.545   2.371   6.099
  178SAPS   O1220301   0.318   2.304   6.159
  178SAPS   O1120302   0.358   2.373   5.932
  178SAPS    C120303   0.385   2.247   5.872
  178SAPS    HA20304   0.495   2.229   5.869
  178SAPS    HB20305   0.336   2.165   5.929
  178SAPS    C220306   0.328   2.253   5.729
  178SAPS    HS20307   0.348   2.157   5.677
  178SAPS   O2120308   0.385   2.362   5.657
  178SAPS   C2120309   0.510   2.350   5.626
  178SAPS   O2220310   0.575   2.247   5.624
  178SAPS   C2220311   0.558   2.491   5.593
  178SAPS   H2R20312   0.470   2.544   5.553
  178SAPS   H2S20313   0.586   2.538   5.690
  178SAPS    C320314   0.177   2.278   5.729
  178SAPS    HX20315   0.155   2.370   5.789
  178SAPS    HY20316   0.128   2.191   5.779
  178SAPS   O3120317   0.138   2.302   5.591
  178SAPS   C3120318   0.027   2.243   5.557
  178SAPS   O3220319  -0.048   2.186   5.633
  178SAPS   C3220320   0.008   2.247   5.406
  178SAPS   H2X20321  -0.090   2.198   5.385
  178SAPS   H2Y20322   0.087   2.184   5.363
  178SAPS   C2320323   0.674   2.502   5.493
  178SAPS   H3R20324   0.766   2.459   5.538
  178SAPS   H3S20325   0.692   2.610   5.475
  178SAPS   C2420326   0.648   2.435   5.357
  178SAPS   H4R20327   0.629   2.326   5.373
  178SAPS   H4S20328   0.744   2.442   5.302
  178SAPS   C2520329   0.542   2.498   5.270
  178SAPS   H5R20330   0.569   2.596   5.229
  178SAPS   C2620331   0.426   2.444   5.229
  178SAPS   H6R20332   0.362   2.505   5.164
  178SAPS   C2720333   0.372   2.307   5.260
  178SAPS   H7R20334   0.261   2.312   5.262
  178SAPS   H7S20335   0.402   2.276   5.363
  178SAPS   C2820336   0.419   2.204   5.160
  178SAPS   H8R20337   0.528   2.202   5.146
  178SAPS   C2920338   0.344   2.115   5.091
  178SAPS   H9R20339   0.397   2.047   5.021
  178SAPS  C21020340   0.194   2.094   5.094
  178SAPS  H10R20341   0.150   2.151   5.177
  178SAPS  H10S20342   0.173   1.988   5.119
  178SAPS  C21120343   0.118   2.131   4.968
  178SAPS  H11R20344   0.045   2.212   4.978
  178SAPS  C21220345   0.124   2.073   4.847
  178SAPS  H12R20346   0.064   2.116   4.765
  178SAPS  C21320347   0.210   1.956   4.810
  178SAPS  H13R20348   0.148   1.891   4.744
  178SAPS  H13S20349   0.231   1.895   4.900
  178SAPS  C21420350   0.341   1.988   4.744
  178SAPS  H14R20351   0.427   1.994   4.811
  178SAPS  C21520352   0.362   2.001   4.612
  178SAPS  H15R20353   0.463   2.027   4.578
  178SAPS  C21620354   0.259   1.987   4.504
  178SAPS  H16R20355   0.170   2.048   4.529
  178SAPS  H16S20356   0.222   1.882   4.497
  178SAPS  C21720357   0.321   2.028   4.370
  178SAPS  H17R20358   0.256   1.997   4.286
  178SAPS  H17S20359   0.418   1.976   4.354
  178SAPS  C21820360   0.345   2.180   4.363
  178SAPS  H18R20361   0.397   2.204   4.267
  178SAPS  H18S20362   0.413   2.210   4.445
  178SAPS  C21920363   0.216   2.262   4.372
  178SAPS  H19R20364   0.238   2.356   4.427
  178SAPS  H19S20365   0.135   2.211   4.427
  178SAPS  C22020366   0.167   2.296   4.233
  178SAPS  H20R20367   0.144   2.204   4.176
  178SAPS  H20S20368   0.253   2.345   4.182
  178SAPS  H20T20369   0.079   2.364   4.234
  178SAPS   C3320370   0.008   2.388   5.346
  178SAPS   H3X20371   0.111   2.429   5.345
  178SAPS   H3Y20372  -0.054   2.457   5.407
  178SAPS   C3420373  -0.050   2.385   5.204
  178SAPS   H4X20374  -0.157   2.353   5.212
  178SAPS   H4Y20375   0.003   2.308   5.145
  178SAPS   C3520376  -0.044   2.519   5.131
  178SAPS   H5X20377  -0.071   2.597   5.205
  178SAPS   H5Y20378  -0.120   2.520   5.049
  178SAPS   C3620379   0.090   2.557   5.070
  178SAPS   H6X20380   0.164   2.571   5.152
  178SAPS   H6Y20381   0.077   2.655   5.020
  178SAPS   C3720382   0.146   2.461   4.964
  178SAPS   H7X20383   0.063   2.422   4.901
  178SAPS   H7Y20384   0.195   2.376   5.017
  178SAPS   C3820385   0.250   2.528   4.874
  178SAPS   H8X20386   0.330   2.565   4.940
  178SAPS   H8Y20387   0.204   2.614   4.821
  178SAPS   C3920388   0.323   2.437   4.776
  178SAPS   H9X20389   0.255   2.396   4.698
  178SAPS   H9Y20390   0.363   2.351   4.835
  178SAPS  C31020391   0.441   2.511   4.712
  178SAPS  H10X20392   0.467   2.599   4.776
  178SAPS  H10Y20393   0.413   2.552   4.612
  178SAPS  C31120394   0.568   2.425   4.702
  178SAPS  H11X20395   0.544   2.340   4.634
  178SAPS  H11Y20396   0.591   2.382   4.802
  178SAPS  C31220397   0.690   2.502   4.650
  178SAPS  H12X20398   0.754   2.535   4.735
  178SAPS  H12Y20399   0.656   2.596   4.601
  178SAPS  C31320400   0.772   2.419   4.551
  178SAPS  H13X20401   0.721   2.323   4.528
  178SAPS  H13Y20402   0.870   2.393   4.598
  178SAPS  C31420403   0.801   2.490   4.419
  178SAPS  H14X20404   0.859   2.417   4.358
  178SAPS  H14Y20405   0.869   2.576   4.439
  178SAPS  C31520406   0.680   2.543   4.339
  178SAPS  H15X20407   0.725   2.597   4.253
  178SAPS  H15Y20408   0.619   2.616   4.395
  178SAPS  C31620409   0.588   2.438   4.275
  178SAPS  H16X20410   0.505   2.412   4.343
  178SAPS  H16Y20411   0.648   2.346   4.258
  178SAPS  C31720412   0.533   2.485   4.139
  178SAPS  H17X20413   0.603   2.555   4.089
  178SAPS  H17Y20414   0.438   2.542   4.155
  178SAPS  C31820415   0.509   2.367   4.046
  178SAPS  H18X20416   0.530   2.270   4.095
  178SAPS  H18Y20417   0.571   2.374   3.954
  178SAPS  H18Z20418   0.403   2.367   4.017
  179SAPS     N20419   7.142   5.069   6.157
  179SAPS   HN120420   7.084   4.981   6.173
  179SAPS   HN220421   7.108   5.124   6.077
  179SAPS   HN320422   7.239   5.036   6.146
  179SAPS   C1220423   7.127   5.148   6.283
  179SAPS  H12A20424   7.184   5.098   6.361
  179SAPS   C1320425   7.181   5.293   6.269
  179SAPS  O13A20426   7.237   5.323   6.159
  179SAPS  O13B20427   7.205   5.358   6.373
  179SAPS   C1120428   6.978   5.149   6.326
  179SAPS  H11A20429   6.910   5.170   6.240
  179SAPS  H11B20430   6.963   5.231   6.400
  179SAPS     P20431   6.929   4.886   6.327
  179SAPS   O1320432   7.057   4.852   6.260
  179SAPS   O1420433   6.879   4.796   6.434
  179SAPS   O1220434   6.941   5.028   6.391
  179SAPS   O1120435   6.826   4.918   6.213
  179SAPS    C120436   6.692   4.872   6.224
  179SAPS    HA20437   6.686   4.760   6.229
  179SAPS    HB20438   6.646   4.911   6.318
  179SAPS    C220439   6.602   4.918   6.105
  179SAPS    HS20440   6.501   4.877   6.128
  179SAPS   O2120441   6.650   4.873   5.974
  179SAPS   C2120442   6.588   4.766   5.922
  179SAPS   O2220443   6.503   4.699   5.977
  179SAPS   C2220444   6.631   4.742   5.776
  179SAPS   H2R20445   6.665   4.838   5.733
  179SAPS   H2S20446   6.715   4.671   5.782
  179SAPS    C320447   6.584   5.075   6.101
  179SAPS    HX20448   6.530   5.106   6.193
  179SAPS    HY20449   6.515   5.092   6.016
  179SAPS   O3120450   6.706   5.154   6.088
  179SAPS   C3120451   6.709   5.232   5.981
  179SAPS   O3220452   6.614   5.273   5.917
  179SAPS   C3220453   6.853   5.248   5.936
  179SAPS   H2X20454   6.915   5.165   5.976
  179SAPS   H2Y20455   6.893   5.346   5.969
  179SAPS   C2320456   6.533   4.671   5.680
  179SAPS   H3R20457   6.450   4.738   5.651
  179SAPS   H3S20458   6.492   4.579   5.728
  179SAPS   C2420459   6.607   4.631   5.551
  179SAPS   H4R20460   6.701   4.578   5.579
  179SAPS   H4S20461   6.636   4.726   5.501
  179SAPS   C2520462   6.526   4.546   5.457
  179SAPS   H5R20463   6.480   4.456   5.502
  179SAPS   C2620464   6.518   4.565   5.324
  179SAPS   H6R20465   6.456   4.495   5.266
  179SAPS   C2720466   6.587   4.674   5.243
  179SAPS   H7R20467   6.610   4.632   5.144
  179SAPS   H7S20468   6.683   4.697   5.292
  179SAPS   C2820469   6.524   4.809   5.225
  179SAPS   H8R20470   6.466   4.841   5.312
  179SAPS   C2920471   6.538   4.899   5.124
  179SAPS   H9R20472   6.472   4.985   5.126
  179SAPS  C21020473   6.619   4.896   4.998
  179SAPS  H10R20474   6.622   4.797   4.950
  179SAPS  H10S20475   6.722   4.917   5.031
  179SAPS  C21120476   6.574   5.004   4.900
  179SAPS  H11R20477   6.516   5.085   4.948
  179SAPS  C21220478   6.602   5.023   4.770
  179SAPS  H12R20479   6.570   5.117   4.723
  179SAPS  C21320480   6.689   4.941   4.678
  179SAPS  H13R20481   6.787   4.955   4.721
  179SAPS  H13S20482   6.693   4.993   4.579
  179SAPS  C21420483   6.682   4.792   4.664
  179SAPS  H14R20484   6.671   4.735   4.757
  179SAPS  C21520485   6.704   4.726   4.550
  179SAPS  H15R20486   6.701   4.616   4.549
  179SAPS  C21620487   6.737   4.790   4.418
  179SAPS  H16R20488   6.786   4.714   4.354
  179SAPS  H16S20489   6.811   4.872   4.426
  179SAPS  C21720490   6.609   4.846   4.350
  179SAPS  H17R20491   6.637   4.868   4.245
  179SAPS  H17S20492   6.581   4.942   4.397
  179SAPS  C21820493   6.488   4.751   4.359
  179SAPS  H18R20494   6.447   4.754   4.463
  179SAPS  H18S20495   6.521   4.646   4.343
  179SAPS  C21920496   6.371   4.779   4.262
  179SAPS  H19R20497   6.289   4.827   4.320
  179SAPS  H19S20498   6.333   4.681   4.226
  179SAPS  C22020499   6.406   4.868   4.143
  179SAPS  H20R20500   6.323   4.872   4.069
  179SAPS  H20S20501   6.496   4.830   4.090
  179SAPS  H20T20502   6.425   4.971   4.178
  179SAPS   C3320503   6.842   5.241   5.784
  179SAPS   H3X20504   6.777   5.323   5.745
  179SAPS   H3Y20505   6.792   5.145   5.756
  179SAPS   C3420506   6.973   5.247   5.710
  179SAPS   H4X20507   7.046   5.174   5.752
  179SAPS   H4Y20508   7.016   5.349   5.715
  179SAPS   C3520509   6.940   5.210   5.566
  179SAPS   H5X20510   6.855   5.272   5.530
  179SAPS   H5Y20511   6.907   5.104   5.564
  179SAPS   C3620512   7.057   5.227   5.473
  179SAPS   H6X20513   7.147   5.181   5.519
  179SAPS   H6Y20514   7.078   5.336   5.458
  179SAPS   C3720515   7.025   5.162   5.340
  179SAPS   H7X20516   6.967   5.068   5.357
  179SAPS   H7Y20517   7.118   5.132   5.288
  179SAPS   C3820518   6.947   5.255   5.248
  179SAPS   H8X20519   6.990   5.358   5.253
  179SAPS   H8Y20520   6.841   5.261   5.282
  179SAPS   C3920521   6.956   5.207   5.104
  179SAPS   H9X20522   7.059   5.229   5.067
  179SAPS   H9Y20523   6.884   5.262   5.040
  179SAPS  C31020524   6.932   5.057   5.090
  179SAPS  H10X20525   6.835   5.034   5.139
  179SAPS  H10Y20526   7.009   4.997   5.143
  179SAPS  C31120527   6.930   5.015   4.944
  179SAPS  H11X20528   6.839   5.062   4.899
  179SAPS  H11Y20529   6.918   4.904   4.937
  179SAPS  C31220530   7.048   5.059   4.857
  179SAPS  H12X20531   7.141   5.014   4.895
  179SAPS  H12Y20532   7.059   5.169   4.857
  179SAPS  C31320533   7.019   5.012   4.714
  179SAPS  H13X20534   6.937   5.073   4.670
  179SAPS  H13Y20535   6.984   4.907   4.723
  179SAPS  C31420536   7.135   5.013   4.616
  179SAPS  H14X20537   7.224   4.969   4.668
  179SAPS  H14Y20538   7.159   5.116   4.585
  179SAPS  C31520539   7.095   4.927   4.495
  179SAPS  H15X20540   7.029   4.983   4.427
  179SAPS  H15Y20541   7.034   4.840   4.529
  179SAPS  C31620542   7.217   4.869   4.423
  179SAPS  H16X20543   7.285   4.823   4.498
  179SAPS  H16Y20544   7.271   4.954   4.375
  179SAPS  C31720545   7.176   4.763   4.321
  179SAPS  H17X20546   7.109   4.688   4.368
  179SAPS  H17Y20547   7.268   4.708   4.289
  179SAPS  C31820548   7.108   4.821   4.197
  179SAPS  H18X20549   7.128   4.753   4.112
  179SAPS  H18Y20550   7.149   4.921   4.172
  179SAPS  H18Z20551   6.999   4.831   4.211
  180SAPS     N20552   6.059  -0.134   6.479
  180SAPS   HN120553   6.153  -0.149   6.522
  180SAPS   HN220554   6.020  -0.041   6.506
  180SAPS   HN320555   5.993  -0.210   6.509
  180SAPS   C1220556   6.070  -0.151   6.329
  180SAPS  H12A20557   6.173  -0.134   6.300
  180SAPS   C1320558   6.033  -0.294   6.281
  180SAPS  O13A20559   5.969  -0.366   6.363
  180SAPS  O13B20560   6.025  -0.314   6.157
  180SAPS   C1120561   5.971  -0.052   6.260
  180SAPS  H11A20562   5.867  -0.087   6.280
  180SAPS  H11B20563   5.985  -0.057   6.149
  180SAPS     P20564   6.111   0.169   6.282
  180SAPS   O1320565   6.067   0.286   6.204
  180SAPS   O1420566   6.168   0.196   6.416
  180SAPS   O1220567   5.983   0.081   6.308
  180SAPS   O1120568   6.208   0.077   6.202
  180SAPS    C120569   6.343   0.123   6.202
  180SAPS    HA20570   6.371   0.194   6.286
  180SAPS    HB20571   6.410   0.037   6.220
  180SAPS    C220572   6.378   0.198   6.071
  180SAPS    HS20573   6.442   0.282   6.105
  180SAPS   O2120574   6.261   0.243   5.998
  180SAPS   C2120575   6.286   0.351   5.927
  180SAPS   O2220576   6.374   0.432   5.950
  180SAPS   C2220577   6.201   0.359   5.799
  180SAPS   H2R20578   6.170   0.257   5.769
  180SAPS   H2S20579   6.112   0.419   5.819
  180SAPS    C320580   6.461   0.107   5.978
  180SAPS    HX20581   6.521   0.038   6.038
  180SAPS    HY20582   6.531   0.173   5.922
  180SAPS   O3120583   6.378   0.024   5.896
  180SAPS   C3120584   6.367   0.064   5.773
  180SAPS   O3220585   6.417   0.163   5.724
  180SAPS   C3220586   6.298  -0.045   5.696
  180SAPS   H2X20587   6.189  -0.027   5.695
  180SAPS   H2Y20588   6.319  -0.142   5.744
  180SAPS   C2320589   6.284   0.427   5.685
  180SAPS   H3R20590   6.388   0.385   5.684
  180SAPS   H3S20591   6.299   0.534   5.710
  180SAPS   C2420592   6.230   0.413   5.541
  180SAPS   H4R20593   6.256   0.312   5.503
  180SAPS   H4S20594   6.287   0.485   5.477
  180SAPS   C2520595   6.082   0.441   5.532
  180SAPS   H5R20596   6.046   0.509   5.610
  180SAPS   C2620597   5.994   0.395   5.442
  180SAPS   H6R20598   5.888   0.422   5.455
  180SAPS   C2720599   6.019   0.303   5.324
  180SAPS   H7R20600   6.082   0.357   5.250
  180SAPS   H7S20601   5.922   0.285   5.273
  180SAPS   C2820602   6.078   0.167   5.357
  180SAPS   H8R20603   6.024   0.110   5.434
  180SAPS   C2920604   6.189   0.114   5.302
  180SAPS   H9R20605   6.218   0.012   5.332
  180SAPS  C21020606   6.279   0.173   5.197
  180SAPS  H10R20607   6.366   0.106   5.180
  180SAPS  H10S20608   6.319   0.272   5.230
  180SAPS  C21120609   6.202   0.187   5.069
  180SAPS  H11R20610   6.108   0.132   5.069
  180SAPS  C21220611   6.234   0.259   4.961
  180SAPS  H12R20612   6.164   0.258   4.876
  180SAPS  C21320613   6.357   0.343   4.943
  180SAPS  H13R20614   6.442   0.297   4.996
  180SAPS  H13S20615   6.344   0.445   4.984
  180SAPS  C21420616   6.386   0.344   4.795
  180SAPS  H14R20617   6.388   0.244   4.749
  180SAPS  C21520618   6.408   0.449   4.716
  180SAPS  H15R20619   6.418   0.427   4.609
  180SAPS  C21620620   6.410   0.596   4.749
  180SAPS  H16R20621   6.508   0.625   4.793
  180SAPS  H16S20622   6.331   0.619   4.824
  180SAPS  C21720623   6.383   0.680   4.622
  180SAPS  H17R20624   6.473   0.683   4.557
  180SAPS  H17S20625   6.360   0.784   4.653
  180SAPS  C21820626   6.265   0.623   4.541
  180SAPS  H18R20627   6.190   0.585   4.615
  180SAPS  H18S20628   6.298   0.535   4.481
  180SAPS  C21920629   6.192   0.718   4.446
  180SAPS  H19R20630   6.187   0.820   4.489
  180SAPS  H19S20631   6.087   0.680   4.438
  180SAPS  C22020632   6.247   0.719   4.304
  180SAPS  H20R20633   6.205   0.807   4.250
  180SAPS  H20S20634   6.214   0.629   4.250
  180SAPS  H20T20635   6.358   0.723   4.303
  180SAPS   C3320636   6.362  -0.040   5.558
  180SAPS   H3X20637   6.473  -0.029   5.565
  180SAPS   H3Y20638   6.324   0.051   5.508
  180SAPS   C3420639   6.338  -0.165   5.477
  180SAPS   H4X20640   6.403  -0.247   5.514
  180SAPS   H4Y20641   6.369  -0.144   5.372
  180SAPS   C3520642   6.193  -0.210   5.484
  180SAPS   H5X20643   6.128  -0.120   5.487
  180SAPS   H5Y20644   6.175  -0.267   5.577
  180SAPS   C3620645   6.159  -0.290   5.359
  180SAPS   H6X20646   6.222  -0.380   5.349
  180SAPS   H6Y20647   6.186  -0.224   5.273
  180SAPS   C3720648   6.011  -0.326   5.351
  180SAPS   H7X20649   5.961  -0.299   5.447
  180SAPS   H7Y20650   5.996  -0.435   5.334
  180SAPS   C3820651   5.948  -0.245   5.238
  180SAPS   H8X20652   5.968  -0.137   5.258
  180SAPS   H8Y20653   5.839  -0.256   5.236
  180SAPS   C3920654   5.999  -0.281   5.098
  180SAPS   H9X20655   5.940  -0.366   5.058
  180SAPS   H9Y20656   6.105  -0.314   5.100
  180SAPS  C31020657   5.984  -0.160   5.007
  180SAPS  H10X20658   6.026  -0.180   4.906
  180SAPS  H10Y20659   6.044  -0.077   5.051
  180SAPS  C31120660   5.838  -0.118   4.994
  180SAPS  H11X20661   5.798  -0.082   5.091
  180SAPS  H11Y20662   5.779  -0.205   4.960
  180SAPS  C31220663   5.816  -0.011   4.888
  180SAPS  H12X20664   5.709   0.013   4.884
  180SAPS  H12Y20665   5.843  -0.059   4.791
  180SAPS  C31320666   5.900   0.113   4.911
  180SAPS  H13X20667   6.006   0.082   4.919
  180SAPS  H13Y20668   5.871   0.166   5.005
  180SAPS  C31420669   5.896   0.209   4.794
  180SAPS  H14X20670   5.963   0.295   4.816
  180SAPS  H14Y20671   5.792   0.247   4.785
  180SAPS  C31520672   5.938   0.146   4.661
  180SAPS  H15X20673   5.913   0.221   4.585
  180SAPS  H15Y20674   5.873   0.060   4.636
  180SAPS  C31620675   6.085   0.102   4.653
  180SAPS  H16X20676   6.110   0.037   4.739
  180SAPS  H16Y20677   6.151   0.191   4.657
  180SAPS  C31720678   6.115   0.021   4.526
  180SAPS  H17X20679   6.053   0.058   4.441
  180SAPS  H17Y20680   6.087  -0.084   4.545
  180SAPS  C31820681   6.261   0.023   4.485
  180SAPS  H18X20682   6.324  -0.002   4.573
  180SAPS  H18Y20683   6.291   0.123   4.445
  180SAPS  H18Z20684   6.282  -0.053   4.407
  181SAPS     N20685   2.775   4.182   2.046
  181SAPS   HN120686   2.807   4.141   1.955
  181SAPS   HN220687   2.670   4.181   2.047
  181SAPS   HN320688   2.812   4.277   2.065
  181SAPS   C1220689   2.827   4.086   2.146
  181SAPS  H12A20690   2.752   4.068   2.222
  181SAPS   C1320691   2.863   3.954   2.075
  181SAPS  O13A20692   2.896   3.961   1.952
  181SAPS  O13B20693   2.887   3.854   2.148
  181SAPS   C1120694   2.956   4.147   2.209
  181SAPS  H11A20695   3.039   4.132   2.137
  181SAPS  H11B20696   2.982   4.090   2.301
  181SAPS     P20697   2.863   4.343   2.359
  181SAPS   O1320698   2.949   4.447   2.419
  181SAPS   O1420699   2.727   4.380   2.312
  181SAPS   O1220700   2.941   4.287   2.233
  181SAPS   O1120701   2.850   4.216   2.454
  181SAPS    C120702   2.719   4.176   2.499
  181SAPS    HA20703   2.668   4.265   2.544
  181SAPS    HB20704   2.656   4.144   2.414
  181SAPS    C220705   2.716   4.066   2.614
  181SAPS    HS20706   2.645   4.102   2.690
  181SAPS   O2120707   2.846   4.051   2.672
  181SAPS   C2120708   2.876   4.164   2.738
  181SAPS   O2220709   2.798   4.253   2.766
  181SAPS   C2220710   3.020   4.160   2.787
  181SAPS   H2R20711   3.073   4.074   2.741
  181SAPS   H2S20712   3.067   4.254   2.753
  181SAPS    C320713   2.663   3.927   2.561
  181SAPS    HX20714   2.744   3.888   2.496
  181SAPS    HY20715   2.583   3.951   2.487
  181SAPS   O3120716   2.611   3.819   2.643
  181SAPS   C3120717   2.558   3.762   2.756
  181SAPS   O3220718   2.527   3.644   2.754
  181SAPS   C3220719   2.524   3.838   2.888
  181SAPS   H2X20720   2.466   3.755   2.937
  181SAPS   H2Y20721   2.449   3.914   2.872
  181SAPS   C2320722   3.016   4.150   2.941
  181SAPS   H3R20723   3.051   4.048   2.967
  181SAPS   H3S20724   2.912   4.159   2.981
  181SAPS   C2420725   3.095   4.259   3.016
  181SAPS   H4R20726   3.202   4.252   2.986
  181SAPS   H4S20727   3.090   4.231   3.123
  181SAPS   C2520728   3.045   4.400   2.996
  181SAPS   H5R20729   3.052   4.437   2.892
  181SAPS   C2620730   2.991   4.485   3.087
  181SAPS   H6R20731   2.970   4.588   3.054
  181SAPS   C2720732   2.967   4.463   3.234
  181SAPS   H7R20733   2.886   4.388   3.245
  181SAPS   H7S20734   2.924   4.558   3.276
  181SAPS   C2820735   3.085   4.422   3.319
  181SAPS   H8R20736   3.171   4.381   3.264
  181SAPS   C2920737   3.093   4.432   3.453
  181SAPS   H9R20738   3.184   4.396   3.503
  181SAPS  C21020739   2.985   4.488   3.544
  181SAPS  H10R20740   2.907   4.411   3.561
  181SAPS  H10S20741   2.934   4.572   3.494
  181SAPS  C21120742   3.031   4.537   3.679
  181SAPS  H11R20743   3.005   4.643   3.699
  181SAPS  C21220744   3.099   4.471   3.774
  181SAPS  H12R20745   3.125   4.527   3.864
  181SAPS  C21320746   3.150   4.329   3.776
  181SAPS  H13R20747   3.145   4.280   3.677
  181SAPS  H13S20748   3.085   4.268   3.843
  181SAPS  C21420749   3.292   4.331   3.828
  181SAPS  H14R20750   3.355   4.414   3.793
  181SAPS  C21520751   3.346   4.244   3.914
  181SAPS  H15R20752   3.447   4.264   3.951
  181SAPS  C21620753   3.277   4.126   3.978
  181SAPS  H16R20754   3.348   4.051   4.018
  181SAPS  H16S20755   3.217   4.072   3.902
  181SAPS  C21720756   3.186   4.172   4.092
  181SAPS  H17R20757   3.133   4.084   4.133
  181SAPS  H17S20758   3.109   4.241   4.049
  181SAPS  C21820759   3.250   4.241   4.212
  181SAPS  H18R20760   3.327   4.315   4.180
  181SAPS  H18S20761   3.299   4.165   4.277
  181SAPS  C21920762   3.138   4.313   4.289
  181SAPS  H19R20763   3.066   4.239   4.325
  181SAPS  H19S20764   3.081   4.375   4.217
  181SAPS  C22020765   3.183   4.399   4.407
  181SAPS  H20R20766   3.292   4.390   4.418
  181SAPS  H20S20767   3.135   4.365   4.501
  181SAPS  H20T20768   3.158   4.506   4.392
  181SAPS   C3320769   2.606   3.884   3.016
  181SAPS   H3X20770   2.584   3.812   3.098
  181SAPS   H3Y20771   2.557   3.980   3.048
  181SAPS   C3420772   2.755   3.917   3.024
  181SAPS   H4X20773   2.780   4.005   2.961
  181SAPS   H4Y20774   2.821   3.833   2.995
  181SAPS   C3520775   2.790   3.940   3.173
  181SAPS   H5X20776   2.739   3.862   3.233
  181SAPS   H5Y20777   2.750   4.038   3.204
  181SAPS   C3620778   2.940   3.928   3.202
  181SAPS   H6X20779   2.990   4.017   3.159
  181SAPS   H6Y20780   2.981   3.838   3.150
  181SAPS   C3720781   2.978   3.920   3.350
  181SAPS   H7X20782   3.074   3.864   3.357
  181SAPS   H7Y20783   2.903   3.862   3.407
  181SAPS   C3820784   3.002   4.060   3.410
  181SAPS   H8X20785   3.051   4.122   3.332
  181SAPS   H8Y20786   3.073   4.054   3.495
  181SAPS   C3920787   2.874   4.131   3.456
  181SAPS   H9X20788   2.786   4.097   3.398
  181SAPS   H9Y20789   2.885   4.239   3.435
  181SAPS  C31020790   2.847   4.114   3.606
  181SAPS  H10X20791   2.747   4.157   3.630
  181SAPS  H10Y20792   2.923   4.174   3.662
  181SAPS  C31120793   2.854   3.969   3.654
  181SAPS  H11X20794   2.954   3.926   3.633
  181SAPS  H11Y20795   2.781   3.908   3.597
  181SAPS  C31220796   2.826   3.953   3.804
  181SAPS  H12X20797   2.819   3.843   3.823
  181SAPS  H12Y20798   2.729   3.999   3.832
  181SAPS  C31320799   2.935   4.012   3.894
  181SAPS  H13X20800   2.929   4.123   3.897
  181SAPS  H13Y20801   3.032   3.985   3.847
  181SAPS  C31420802   2.930   3.952   4.035
  181SAPS  H14X20803   3.034   3.930   4.068
  181SAPS  H14Y20804   2.878   3.854   4.029
  181SAPS  C31520805   2.864   4.032   4.146
  181SAPS  H15X20806   2.760   4.053   4.114
  181SAPS  H15Y20807   2.914   4.130   4.162
  181SAPS  C31620808   2.860   3.950   4.276
  181SAPS  H16X20809   2.866   3.842   4.253
  181SAPS  H16Y20810   2.762   3.965   4.323
  181SAPS  C31720811   2.962   3.984   4.385
  181SAPS  H17X20812   2.970   4.093   4.396
  181SAPS  H17Y20813   3.063   3.943   4.361
  181SAPS  C31820814   2.912   3.932   4.519
  181SAPS  H18X20815   2.859   3.835   4.504
  181SAPS  H18Y20816   2.839   4.005   4.561
  181SAPS  H18Z20817   2.995   3.917   4.592
  182SAPS     N20818   2.760   5.365   2.115
  182SAPS   HN120819   2.833   5.402   2.049
  182SAPS   HN220820   2.763   5.260   2.112
  182SAPS   HN320821   2.668   5.403   2.089
  182SAPS   C1220822   2.798   5.408   2.253
  182SAPS  H12A20823   2.708   5.414   2.312
  182SAPS   C1320824   2.888   5.303   2.322
  182SAPS  O13A20825   2.897   5.192   2.262
  182SAPS  O13B20826   2.904   5.312   2.446
  182SAPS   C1120827   2.863   5.550   2.243
  182SAPS  H11A20828   2.971   5.538   2.219
  182SAPS  H11B20829   2.857   5.601   2.342
  182SAPS     P20830   2.652   5.675   2.137
  182SAPS   O1320831   2.620   5.705   1.996
  182SAPS   O1420832   2.566   5.571   2.200
  182SAPS   O1220833   2.803   5.631   2.140
  182SAPS   O1120834   2.652   5.808   2.222
  182SAPS    C120835   2.578   5.823   2.341
  182SAPS    HA20836   2.508   5.908   2.329
  182SAPS    HB20837   2.517   5.734   2.370
  182SAPS    C220838   2.666   5.863   2.460
  182SAPS    HS20839   2.728   5.949   2.426
  182SAPS   O2120840   2.748   5.752   2.504
  182SAPS   C2120841   2.834   5.796   2.597
  182SAPS   O2220842   2.850   5.913   2.624
  182SAPS   C2220843   2.894   5.681   2.673
  182SAPS   H2R20844   2.816   5.610   2.704
  182SAPS   H2S20845   2.966   5.629   2.605
  182SAPS    C320846   2.570   5.909   2.574
  182SAPS    HX20847   2.494   5.978   2.532
  182SAPS    HY20848   2.628   5.970   2.646
  182SAPS   O3120849   2.505   5.792   2.631
  182SAPS   C3120850   2.541   5.768   2.757
  182SAPS   O3220851   2.592   5.850   2.831
  182SAPS   C3220852   2.512   5.624   2.799
  182SAPS   H2X20853   2.408   5.621   2.837
  182SAPS   H2Y20854   2.581   5.604   2.884
  182SAPS   C2320855   2.967   5.736   2.796
  182SAPS   H3R20856   2.901   5.794   2.865
  182SAPS   H3S20857   3.043   5.806   2.756
  182SAPS   C2420858   3.044   5.628   2.870
  182SAPS   H4R20859   3.122   5.674   2.935
  182SAPS   H4S20860   3.095   5.577   2.787
  182SAPS   C2520861   2.963   5.526   2.945
  182SAPS   H5R20862   2.966   5.424   2.902
  182SAPS   C2620863   2.891   5.549   3.055
  182SAPS   H6R20864   2.838   5.464   3.101
  182SAPS   C2720865   2.876   5.680   3.127
  182SAPS   H7R20866   2.780   5.726   3.097
  182SAPS   H7S20867   2.955   5.752   3.096
  182SAPS   C2820868   2.875   5.660   3.277
  182SAPS   H8R20869   2.786   5.607   3.315
  182SAPS   C2920870   2.964   5.708   3.366
  182SAPS   H9R20871   2.950   5.681   3.472
  182SAPS  C21020872   3.085   5.793   3.335
  182SAPS  H10R20873   3.059   5.898   3.364
  182SAPS  H10S20874   3.107   5.798   3.227
  182SAPS  C21120875   3.210   5.756   3.409
  182SAPS  H11R20876   3.287   5.700   3.352
  182SAPS  C21220877   3.233   5.788   3.537
  182SAPS  H12R20878   3.327   5.754   3.584
  182SAPS  C21320879   3.139   5.864   3.629
  182SAPS  H13R20880   3.177   5.841   3.729
  182SAPS  H13S20881   3.040   5.816   3.617
  182SAPS  C21420882   3.110   6.013   3.629
  182SAPS  H14R20883   3.084   6.050   3.529
  182SAPS  C21520884   3.117   6.104   3.729
  182SAPS  H15R20885   3.087   6.206   3.703
  182SAPS  C21620886   3.158   6.093   3.876
  182SAPS  H16R20887   3.232   6.172   3.903
  182SAPS  H16S20888   3.211   5.998   3.895
  182SAPS  C21720889   3.042   6.104   3.980
  182SAPS  H17R20890   2.957   6.044   3.944
  182SAPS  H17S20891   3.002   6.206   3.987
  182SAPS  C21820892   3.086   6.057   4.121
  182SAPS  H18R20893   3.127   6.141   4.181
  182SAPS  H18S20894   3.172   5.988   4.108
  182SAPS  C21920895   2.983   5.986   4.212
  182SAPS  H19R20896   2.969   6.051   4.302
  182SAPS  H19S20897   3.036   5.895   4.249
  182SAPS  C22020898   2.845   5.941   4.161
  182SAPS  H20R20899   2.801   6.008   4.084
  182SAPS  H20S20900   2.774   5.936   4.246
  182SAPS  H20T20901   2.844   5.838   4.122
  182SAPS   C3320902   2.532   5.516   2.689
  182SAPS   H3X20903   2.630   5.530   2.639
  182SAPS   H3Y20904   2.454   5.531   2.612
  182SAPS   C3420905   2.524   5.372   2.744
  182SAPS   H4X20906   2.527   5.304   2.656
  182SAPS   H4Y20907   2.426   5.358   2.794
  182SAPS   C3520908   2.637   5.331   2.842
  182SAPS   H5X20909   2.628   5.389   2.936
  182SAPS   H5Y20910   2.735   5.357   2.795
  182SAPS   C3620911   2.636   5.180   2.874
  182SAPS   H6X20912   2.652   5.128   2.776
  182SAPS   H6Y20913   2.537   5.150   2.912
  182SAPS   C3720914   2.748   5.126   2.967
  182SAPS   H7X20915   2.846   5.152   2.921
  182SAPS   H7Y20916   2.739   5.015   2.968
  182SAPS   C3820917   2.749   5.174   3.114
  182SAPS   H8X20918   2.780   5.280   3.115
  182SAPS   H8Y20919   2.827   5.116   3.168
  182SAPS   C3920920   2.617   5.160   3.192
  182SAPS   H9X20921   2.592   5.052   3.198
  182SAPS   H9Y20922   2.535   5.210   3.135
  182SAPS  C31020923   2.620   5.217   3.336
  182SAPS  H10X20924   2.692   5.158   3.396
  182SAPS  H10Y20925   2.519   5.202   3.380
  182SAPS  C31120926   2.655   5.367   3.351
  182SAPS  H11X20927   2.583   5.425   3.288
  182SAPS  H11Y20928   2.757   5.387   3.311
  182SAPS  C31220929   2.644   5.423   3.496
  182SAPS  H12X20930   2.540   5.408   3.529
  182SAPS  H12Y20931   2.661   5.533   3.493
  182SAPS  C31320932   2.740   5.365   3.604
  182SAPS  H13X20933   2.831   5.429   3.608
  182SAPS  H13Y20934   2.773   5.263   3.575
  182SAPS  C31420935   2.675   5.359   3.746
  182SAPS  H14X20936   2.654   5.255   3.778
  182SAPS  H14Y20937   2.577   5.413   3.740
  182SAPS  C31520938   2.754   5.433   3.856
  182SAPS  H15X20939   2.759   5.531   3.806
  182SAPS  H15Y20940   2.857   5.393   3.869
  182SAPS  C31620941   2.689   5.445   3.996
  182SAPS  H16X20942   2.703   5.348   4.049
  182SAPS  H16Y20943   2.580   5.462   3.982
  182SAPS  C31720944   2.742   5.557   4.092
  182SAPS  H17X20945   2.673   5.566   4.179
  182SAPS  H17Y20946   2.737   5.655   4.041
  182SAPS  C31820947   2.883   5.534   4.147
  182SAPS  H18X20948   2.889   5.438   4.202
  182SAPS  H18Y20949   2.914   5.616   4.216
  182SAPS  H18Z20950   2.956   5.530   4.064
  183SAPS     N20951   1.224   3.999   2.197
  183SAPS   HN120952   1.276   3.910   2.179
  183SAPS   HN220953   1.211   4.017   2.299
  183SAPS   HN320954   1.134   3.993   2.148
  183SAPS   C1220955   1.296   4.112   2.131
  183SAPS  H12A20956   1.391   4.128   2.180
  183SAPS   C1320957   1.318   4.088   1.980
  183SAPS  O13A20958   1.221   4.028   1.924
  183SAPS  O13B20959   1.388   4.175   1.921
  183SAPS   C1120960   1.210   4.242   2.133
  183SAPS  H11A20961   1.137   4.242   2.050
  183SAPS  H11B20962   1.279   4.329   2.111
  183SAPS     P20963   1.191   4.351   2.368
  183SAPS   O1320964   1.220   4.485   2.312
  183SAPS   O1420965   1.097   4.341   2.480
  183SAPS   O1220966   1.136   4.257   2.253
  183SAPS   O1120967   1.325   4.275   2.405
  183SAPS    C120968   1.450   4.344   2.419
  183SAPS    HA20969   1.532   4.275   2.387
  183SAPS    HB20970   1.458   4.431   2.351
  183SAPS    C220971   1.485   4.385   2.566
  183SAPS    HS20972   1.592   4.417   2.565
  183SAPS   O2120973   1.467   4.283   2.662
  183SAPS   C2120974   1.516   4.166   2.657
  183SAPS   O2220975   1.567   4.105   2.564
  183SAPS   C2220976   1.505   4.120   2.803
  183SAPS   H2R20977   1.580   4.043   2.824
  183SAPS   H2S20978   1.528   4.206   2.869
  183SAPS    C320979   1.408   4.504   2.628
  183SAPS    HX20980   1.298   4.484   2.630
  183SAPS    HY20981   1.428   4.592   2.563
  183SAPS   O3120982   1.464   4.528   2.759
  183SAPS   C3120983   1.392   4.505   2.867
  183SAPS   O3220984   1.271   4.499   2.874
  183SAPS   C3220985   1.491   4.490   2.985
  183SAPS   H2X20986   1.534   4.591   3.004
  183SAPS   H2Y20987   1.575   4.425   2.953
  183SAPS   C2320988   1.360   4.075   2.823
  183SAPS   H3R20989   1.335   4.003   2.741
  183SAPS   H3S20990   1.293   4.163   2.809
  183SAPS   C2420991   1.332   4.003   2.955
  183SAPS   H4R20992   1.410   3.926   2.971
  183SAPS   H4S20993   1.235   3.949   2.942
  183SAPS   C2520994   1.320   4.093   3.075
  183SAPS   H5R20995   1.392   4.073   3.156
  183SAPS   C2620996   1.228   4.189   3.093
  183SAPS   H6R20997   1.235   4.249   3.185
  183SAPS   C2720998   1.116   4.230   2.999
  183SAPS   H7R20999   1.065   4.140   2.957
  183SAPS   H7S21000   1.158   4.284   2.911
  183SAPS   C2821001   1.016   4.321   3.066
  183SAPS   H8R21002   1.022   4.427   3.035
  183SAPS   C2921003   0.922   4.283   3.155
  183SAPS   H9R21004   0.857   4.359   3.200
  183SAPS  C21021005   0.903   4.141   3.203
  183SAPS  H10R21006   0.992   4.079   3.179
  183SAPS  H10S21007   0.821   4.096   3.142
  183SAPS  C21121008   0.869   4.122   3.349
  183SAPS  H11R21009   0.769   4.082   3.368
  183SAPS  C21221010   0.949   4.147   3.455
  183SAPS  H12R21011   0.910   4.125   3.555
  183SAPS  C21321012   1.091   4.199   3.453
  183SAPS  H13R21013   1.129   4.198   3.349
  183SAPS  H13S21014   1.157   4.128   3.508
  183SAPS  C21421015   1.108   4.338   3.510
  183SAPS  H14R21016   1.140   4.414   3.436
  183SAPS  C21521017   1.086   4.375   3.637
  183SAPS  H15R21018   1.102   4.480   3.666
  183SAPS  C21621019   1.039   4.284   3.747
  183SAPS  H16R21020   1.082   4.182   3.735
  183SAPS  H16S21021   0.928   4.273   3.740
  183SAPS  C21721022   1.070   4.332   3.890
  183SAPS  H17R21023   1.179   4.351   3.903
  183SAPS  H17S21024   1.044   4.250   3.960
  183SAPS  C21821025   0.988   4.457   3.928
  183SAPS  H18R21026   0.890   4.451   3.875
  183SAPS  H18S21027   1.041   4.547   3.890
  183SAPS  C21921028   0.959   4.472   4.078
  183SAPS  H19R21029   0.883   4.396   4.108
  183SAPS  H19S21030   0.913   4.572   4.095
  183SAPS  C22021031   1.081   4.457   4.168
  183SAPS  H20R21032   1.055   4.480   4.273
  183SAPS  H20S21033   1.162   4.527   4.136
  183SAPS  H20T21034   1.121   4.354   4.163
  183SAPS   C3321035   1.434   4.438   3.120
  183SAPS   H3X21036   1.474   4.336   3.139
  183SAPS   H3Y21037   1.323   4.434   3.117
  183SAPS   C3421038   1.472   4.529   3.237
  183SAPS   H4X21039   1.409   4.620   3.234
  183SAPS   H4Y21040   1.579   4.560   3.225
  183SAPS   C3521041   1.461   4.465   3.375
  183SAPS   H5X21042   1.520   4.370   3.378
  183SAPS   H5Y21043   1.355   4.439   3.398
  183SAPS   C3621044   1.514   4.560   3.482
  183SAPS   H6X21045   1.465   4.659   3.470
  183SAPS   H6Y21046   1.624   4.575   3.467
  183SAPS   C3721047   1.490   4.513   3.625
  183SAPS   H7X21048   1.381   4.524   3.649
  183SAPS   H7Y21049   1.545   4.578   3.696
  183SAPS   C3821050   1.530   4.367   3.648
  183SAPS   H8X21051   1.637   4.352   3.623
  183SAPS   H8Y21052   1.469   4.299   3.585
  183SAPS   C3921053   1.506   4.333   3.794
  183SAPS   H9X21054   1.399   4.353   3.818
  183SAPS   H9Y21055   1.568   4.404   3.853
  183SAPS  C31021056   1.538   4.189   3.833
  183SAPS  H10X21057   1.648   4.172   3.826
  183SAPS  H10Y21058   1.487   4.118   3.764
  183SAPS  C31121059   1.489   4.164   3.976
  183SAPS  H11X21060   1.517   4.062   4.008
  183SAPS  H11Y21061   1.378   4.171   3.979
  183SAPS  C31221062   1.549   4.267   4.072
  183SAPS  H12X21063   1.518   4.371   4.047
  183SAPS  H12Y21064   1.660   4.262   4.062
  183SAPS  C31321065   1.511   4.242   4.216
  183SAPS  H13X21066   1.594   4.289   4.274
  183SAPS  H13Y21067   1.510   4.134   4.240
  183SAPS  C31421068   1.384   4.313   4.264
  183SAPS  H14X21069   1.297   4.244   4.256
  183SAPS  H14Y21070   1.362   4.402   4.200
  183SAPS  C31521071   1.407   4.358   4.408
  183SAPS  H15X21072   1.487   4.436   4.409
  183SAPS  H15Y21073   1.446   4.271   4.465
  183SAPS  C31621074   1.284   4.411   4.481
  183SAPS  H16X21075   1.296   4.391   4.590
  183SAPS  H16Y21076   1.195   4.357   4.444
  183SAPS  C31721077   1.268   4.562   4.464
  183SAPS  H17X21078   1.262   4.585   4.355
  183SAPS  H17Y21079   1.359   4.608   4.506
  183SAPS  C31821080   1.147   4.621   4.533
  183SAPS  H18X21081   1.149   4.601   4.643
  183SAPS  H18Y21082   1.059   4.572   4.489
  183SAPS  H18Z21083   1.138   4.730   4.516
  184SAPS     N21084   3.355   6.608   2.082
  184SAPS   HN121085   3.414   6.609   1.996
  184SAPS   HN221086   3.272   6.670   2.074
  184SAPS   HN321087   3.419   6.638   2.159
  184SAPS   C1221088   3.317   6.465   2.112
  184SAPS  H12A21089   3.275   6.420   2.023
  184SAPS   C1321090   3.446   6.388   2.152
  184SAPS  O13A21091   3.542   6.457   2.199
  184SAPS  O13B21092   3.466   6.282   2.086
  184SAPS   C1121093   3.210   6.462   2.227
  184SAPS  H11A21094   3.140   6.548   2.213
  184SAPS  H11B21095   3.266   6.480   2.323
  184SAPS     P21096   3.063   6.304   2.374
  184SAPS   O1321097   3.077   6.418   2.467
  184SAPS   O1421098   2.928   6.248   2.350
  184SAPS   O1221099   3.130   6.342   2.232
  184SAPS   O1121100   3.157   6.187   2.425
  184SAPS    C121101   3.179   6.076   2.337
  184SAPS    HA21102   3.089   6.010   2.339
  184SAPS    HB21103   3.197   6.108   2.232
  184SAPS    C221104   3.303   5.990   2.378
  184SAPS    HS21105   3.286   5.887   2.340
  184SAPS   O2121106   3.326   5.986   2.520
  184SAPS   C2121107   3.233   5.922   2.589
  184SAPS   O2221108   3.134   5.868   2.543
  184SAPS   C2221109   3.288   5.896   2.730
  184SAPS   H2R21110   3.277   5.787   2.746
  184SAPS   H2S21111   3.397   5.918   2.731
  184SAPS    C321112   3.430   6.045   2.308
  184SAPS    HX21113   3.408   6.049   2.199
  184SAPS    HY21114   3.515   5.973   2.321
  184SAPS   O3121115   3.461   6.178   2.353
  184SAPS   C3121116   3.531   6.179   2.465
  184SAPS   O3221117   3.592   6.084   2.510
  184SAPS   C3221118   3.529   6.317   2.532
  184SAPS   H2X21119   3.430   6.362   2.514
  184SAPS   H2Y21120   3.607   6.379   2.485
  184SAPS   C2321121   3.222   5.968   2.851
  184SAPS   H3R21122   3.272   5.925   2.942
  184SAPS   H3S21123   3.114   5.951   2.863
  184SAPS   C2421124   3.251   6.118   2.855
  184SAPS   H4R21125   3.357   6.127   2.826
  184SAPS   H4S21126   3.247   6.148   2.961
  184SAPS   C2521127   3.167   6.213   2.772
  184SAPS   H5R21128   3.190   6.214   2.664
  184SAPS   C2621129   3.067   6.291   2.817
  184SAPS   H6R21130   3.021   6.360   2.744
  184SAPS   C2721131   3.016   6.301   2.960
  184SAPS   H7R21132   3.068   6.226   3.024
  184SAPS   H7S21133   2.910   6.266   2.960
  184SAPS   C2821134   3.025   6.433   3.032
  184SAPS   H8R21135   3.087   6.510   2.982
  184SAPS   C2921136   2.959   6.465   3.146
  184SAPS   H9R21137   2.971   6.568   3.186
  184SAPS  C21021138   2.863   6.377   3.223
  184SAPS  H10R21139   2.845   6.280   3.171
  184SAPS  H10S21140   2.770   6.434   3.208
  184SAPS  C21121141   2.873   6.356   3.374
  184SAPS  H11R21142   2.903   6.449   3.425
  184SAPS  C21221143   2.854   6.246   3.455
  184SAPS  H12R21144   2.867   6.262   3.563
  184SAPS  C21321145   2.816   6.102   3.423
  184SAPS  H13R21146   2.910   6.044   3.425
  184SAPS  H13S21147   2.789   6.098   3.315
  184SAPS  C21421148   2.715   6.014   3.498
  184SAPS  H14R21149   2.628   5.992   3.435
  184SAPS  C21521150   2.705   5.954   3.620
  184SAPS  H15R21151   2.619   5.886   3.632
  184SAPS  C21621152   2.792   5.946   3.743
  184SAPS  H16R21153   2.767   6.032   3.809
  184SAPS  H16S21154   2.898   5.954   3.720
  184SAPS  C21721155   2.778   5.818   3.831
  184SAPS  H17R21156   2.692   5.756   3.796
  184SAPS  H17S21157   2.752   5.851   3.933
  184SAPS  C21821158   2.904   5.728   3.836
  184SAPS  H18R21159   2.932   5.698   3.733
  184SAPS  H18S21160   2.885   5.636   3.892
  184SAPS  C21921161   3.023   5.777   3.919
  184SAPS  H19R21162   2.997   5.785   4.025
  184SAPS  H19S21163   3.045   5.877   3.881
  184SAPS  C22021164   3.147   5.687   3.914
  184SAPS  H20R21165   3.147   5.609   3.993
  184SAPS  H20S21166   3.237   5.752   3.929
  184SAPS  H20T21167   3.153   5.638   3.815
  184SAPS   C3321168   3.557   6.299   2.684
  184SAPS   H3X21169   3.658   6.255   2.701
  184SAPS   H3Y21170   3.483   6.226   2.722
  184SAPS   C3421171   3.541   6.426   2.767
  184SAPS   H4X21172   3.438   6.465   2.754
  184SAPS   H4Y21173   3.613   6.497   2.718
  184SAPS   C3521174   3.578   6.422   2.919
  184SAPS   H5X21175   3.584   6.521   2.968
  184SAPS   H5Y21176   3.682   6.382   2.920
  184SAPS   C3621177   3.495   6.332   3.012
  184SAPS   H6X21178   3.566   6.307   3.093
  184SAPS   H6Y21179   3.470   6.242   2.953
  184SAPS   C3721180   3.368   6.371   3.092
  184SAPS   H7X21181   3.312   6.275   3.104
  184SAPS   H7Y21182   3.303   6.436   3.029
  184SAPS   C3821183   3.375   6.423   3.239
  184SAPS   H8X21184   3.277   6.401   3.286
  184SAPS   H8Y21185   3.381   6.532   3.232
  184SAPS   C3921186   3.486   6.380   3.341
  184SAPS   H9X21187   3.568   6.336   3.285
  184SAPS   H9Y21188   3.445   6.308   3.415
  184SAPS  C31021189   3.552   6.501   3.411
  184SAPS  H10X21190   3.474   6.579   3.405
  184SAPS  H10Y21191   3.639   6.532   3.347
  184SAPS  C31121192   3.596   6.510   3.560
  184SAPS  H11X21193   3.624   6.619   3.567
  184SAPS  H11Y21194   3.690   6.455   3.581
  184SAPS  C31221195   3.492   6.490   3.674
  184SAPS  H12X21196   3.510   6.572   3.747
  184SAPS  H12Y21197   3.512   6.398   3.731
  184SAPS  C31321198   3.345   6.495   3.631
  184SAPS  H13X21199   3.331   6.461   3.527
  184SAPS  H13Y21200   3.313   6.600   3.639
  184SAPS  C31421201   3.241   6.420   3.715
  184SAPS  H14X21202   3.260   6.312   3.708
  184SAPS  H14Y21203   3.141   6.442   3.671
  184SAPS  C31521204   3.239   6.466   3.859
  184SAPS  H15X21205   3.255   6.575   3.857
  184SAPS  H15Y21206   3.325   6.420   3.913
  184SAPS  C31621207   3.106   6.442   3.931
  184SAPS  H16X21208   3.053   6.361   3.877
  184SAPS  H16Y21209   3.042   6.532   3.925
  184SAPS  C31721210   3.128   6.407   4.079
  184SAPS  H17X21211   3.207   6.471   4.120
  184SAPS  H17Y21212   3.169   6.305   4.081
  184SAPS  C31821213   3.005   6.418   4.169
  184SAPS  H18X21214   3.028   6.423   4.278
  184SAPS  H18Y21215   2.947   6.325   4.155
  184SAPS  H18Z21216   2.944   6.507   4.142
  185SAPS     N21217   4.206   1.073   2.258
  185SAPS   HN121218   4.223   1.117   2.165
  185SAPS   HN221219   4.140   1.131   2.313
  185SAPS   HN321220   4.297   1.054   2.307
  185SAPS   C1221221   4.152   0.937   2.230
  185SAPS  H12A21222   4.117   0.892   2.323
  185SAPS   C1321223   4.038   0.932   2.126
  185SAPS  O13A21224   4.064   0.974   2.010
  185SAPS  O13B21225   3.941   0.856   2.152
  185SAPS   C1121226   4.272   0.857   2.173
  185SAPS  H11A21227   4.288   0.886   2.067
  185SAPS  H11B21228   4.243   0.748   2.171
  185SAPS     P21229   4.464   0.767   2.322
  185SAPS   O1321230   4.499   0.661   2.226
  185SAPS   O1421231   4.562   0.825   2.415
  185SAPS   O1221232   4.393   0.885   2.246
  185SAPS   O1121233   4.338   0.719   2.400
  185SAPS    C121234   4.284   0.788   2.511
  185SAPS    HA21235   4.290   0.899   2.500
  185SAPS    HB21236   4.177   0.758   2.518
  185SAPS    C221237   4.355   0.742   2.638
  185SAPS    HS21238   4.455   0.792   2.641
  185SAPS   O2121239   4.364   0.600   2.625
  185SAPS   C2121240   4.475   0.547   2.670
  185SAPS   O2221241   4.563   0.606   2.730
  185SAPS   C2221242   4.458   0.397   2.656
  185SAPS   H2R21243   4.384   0.375   2.577
  185SAPS   H2S21244   4.553   0.350   2.624
  185SAPS    C321245   4.273   0.782   2.764
  185SAPS    HX21246   4.178   0.724   2.760
  185SAPS    HY21247   4.247   0.890   2.758
  185SAPS   O3121248   4.339   0.750   2.887
  185SAPS   C3121249   4.433   0.836   2.923
  185SAPS   O3221250   4.472   0.930   2.857
  185SAPS   C3221251   4.466   0.810   3.070
  185SAPS   H2X21252   4.557   0.869   3.094
  185SAPS   H2Y21253   4.490   0.703   3.083
  185SAPS   C2321254   4.415   0.341   2.792
  185SAPS   H3R21255   4.509   0.307   2.842
  185SAPS   H3S21256   4.350   0.252   2.773
  185SAPS   C2421257   4.341   0.438   2.887
  185SAPS   H4R21258   4.245   0.471   2.841
  185SAPS   H4S21259   4.403   0.528   2.907
  185SAPS   C2521260   4.323   0.368   3.018
  185SAPS   H5R21261   4.385   0.278   3.027
  185SAPS   C2621262   4.255   0.403   3.127
  185SAPS   H6R21263   4.261   0.332   3.209
  185SAPS   C2721264   4.173   0.525   3.158
  185SAPS   H7R21265   4.091   0.535   3.083
  185SAPS   H7S21266   4.239   0.612   3.143
  185SAPS   C2821267   4.114   0.531   3.298
  185SAPS   H8R21268   4.005   0.548   3.300
  185SAPS   C2921269   4.179   0.514   3.416
  185SAPS   H9R21270   4.121   0.520   3.510
  185SAPS  C21021271   4.326   0.485   3.437
  185SAPS  H10R21272   4.362   0.548   3.521
  185SAPS  H10S21273   4.383   0.521   3.348
  185SAPS  C21121274   4.362   0.339   3.457
  185SAPS  H11R21275   4.332   0.271   3.376
  185SAPS  C21221276   4.436   0.283   3.554
  185SAPS  H12R21277   4.445   0.173   3.555
  185SAPS  C21321278   4.502   0.355   3.668
  185SAPS  H13R21279   4.446   0.448   3.686
  185SAPS  H13S21280   4.605   0.387   3.640
  185SAPS  C21421281   4.508   0.275   3.795
  185SAPS  H14R21282   4.587   0.198   3.800
  185SAPS  C21521283   4.418   0.283   3.893
  185SAPS  H15R21284   4.429   0.213   3.978
  185SAPS  C21621285   4.293   0.369   3.901
  185SAPS  H16R21286   4.271   0.389   4.009
  185SAPS  H16S21287   4.225   0.295   3.858
  185SAPS  C21721288   4.235   0.490   3.821
  185SAPS  H17R21289   4.238   0.467   3.712
  185SAPS  H17S21290   4.299   0.578   3.838
  185SAPS  C21821291   4.088   0.532   3.858
  185SAPS  H18R21292   4.056   0.617   3.795
  185SAPS  H18S21293   4.103   0.569   3.961
  185SAPS  C21921294   3.974   0.426   3.866
  185SAPS  H19R21295   3.990   0.380   3.966
  185SAPS  H19S21296   3.988   0.349   3.788
  185SAPS  C22021297   3.825   0.464   3.875
  185SAPS  H20R21298   3.767   0.422   3.789
  185SAPS  H20S21299   3.807   0.573   3.880
  185SAPS  H20T21300   3.781   0.418   3.967
  185SAPS   C3321301   4.348   0.854   3.162
  185SAPS   H3X21302   4.255   0.804   3.128
  185SAPS   H3Y21303   4.330   0.963   3.147
  185SAPS   C3421304   4.369   0.829   3.313
  185SAPS   H4X21305   4.417   0.731   3.332
  185SAPS   H4Y21306   4.270   0.829   3.363
  185SAPS   C3521307   4.452   0.945   3.369
  185SAPS   H5X21308   4.386   1.034   3.355
  185SAPS   H5Y21309   4.543   0.955   3.306
  185SAPS   C3621310   4.498   0.948   3.515
  185SAPS   H6X21311   4.551   1.044   3.532
  185SAPS   H6Y21312   4.571   0.869   3.536
  185SAPS   C3721313   4.390   0.933   3.622
  185SAPS   H7X21314   4.444   0.919   3.718
  185SAPS   H7Y21315   4.330   0.840   3.605
  185SAPS   C3821316   4.306   1.057   3.648
  185SAPS   H8X21317   4.290   1.123   3.560
  185SAPS   H8Y21318   4.365   1.117   3.723
  185SAPS   C3921319   4.174   1.016   3.711
  185SAPS   H9X21320   4.096   0.997   3.634
  185SAPS   H9Y21321   4.189   0.920   3.767
  185SAPS  C31021322   4.129   1.124   3.809
  185SAPS  H10X21323   4.072   1.199   3.750
  185SAPS  H10Y21324   4.217   1.176   3.852
  185SAPS  C31121325   4.048   1.066   3.925
  185SAPS  H11X21326   4.002   0.968   3.898
  185SAPS  H11Y21327   3.965   1.137   3.946
  185SAPS  C31221328   4.137   1.048   4.050
  185SAPS  H12X21329   4.227   1.113   4.044
  185SAPS  H12Y21330   4.174   0.943   4.052
  185SAPS  C31321331   4.064   1.086   4.179
  185SAPS  H13X21332   3.956   1.092   4.154
  185SAPS  H13Y21333   4.096   1.187   4.212
  185SAPS  C31421334   4.082   0.987   4.295
  185SAPS  H14X21335   4.180   1.005   4.345
  185SAPS  H14Y21336   4.085   0.885   4.254
  185SAPS  C31521337   3.966   0.996   4.396
  185SAPS  H15X21338   3.894   1.070   4.358
  185SAPS  H15Y21339   4.001   1.036   4.493
  185SAPS  C31621340   3.892   0.863   4.416
  185SAPS  H16X21341   3.890   0.833   4.522
  185SAPS  H16Y21342   3.950   0.781   4.372
  185SAPS  C31721343   3.745   0.863   4.366
  185SAPS  H17X21344   3.686   0.917   4.444
  185SAPS  H17Y21345   3.711   0.757   4.367
  185SAPS  C31821346   3.711   0.924   4.229
  185SAPS  H18X21347   3.712   0.846   4.150
  185SAPS  H18Y21348   3.782   1.003   4.199
  185SAPS  H18Z21349   3.610   0.970   4.230
  186SAPS     N21350   6.342   5.468   2.264
  186SAPS   HN121351   6.345   5.499   2.364
  186SAPS   HN221352   6.355   5.365   2.259
  186SAPS   HN321353   6.417   5.514   2.209
  186SAPS   C1221354   6.209   5.505   2.203
  186SAPS  H12A21355   6.182   5.602   2.241
  186SAPS   C1321356   6.203   5.516   2.048
  186SAPS  O13A21357   6.305   5.479   1.984
  186SAPS  O13B21358   6.122   5.600   2.000
  186SAPS   C1121359   6.105   5.401   2.250
  186SAPS  H11A21360   6.123   5.379   2.358
  186SAPS  H11B21361   6.121   5.304   2.197
  186SAPS     P21362   5.865   5.457   2.338
  186SAPS   O1321363   5.765   5.560   2.301
  186SAPS   O1421364   5.825   5.318   2.366
  186SAPS   O1221365   5.973   5.451   2.224
  186SAPS   O1121366   5.962   5.513   2.449
  186SAPS    C121367   5.992   5.652   2.454
  186SAPS    HA21368   6.087   5.676   2.404
  186SAPS    HB21369   5.914   5.716   2.404
  186SAPS    C221370   5.992   5.688   2.602
  186SAPS    HS21371   5.993   5.800   2.608
  186SAPS   O2121372   6.100   5.634   2.681
  186SAPS   C2121373   6.199   5.567   2.625
  186SAPS   O2221374   6.266   5.603   2.529
  186SAPS   C2221375   6.228   5.434   2.700
  186SAPS   H2R21376   6.336   5.440   2.723
  186SAPS   H2S21377   6.170   5.431   2.794
  186SAPS    C321378   5.856   5.638   2.662
  186SAPS    HX21379   5.778   5.656   2.585
  186SAPS    HY21380   5.828   5.699   2.751
  186SAPS   O3121381   5.855   5.497   2.691
  186SAPS   C3121382   5.904   5.466   2.809
  186SAPS   O3221383   5.954   5.544   2.888
  186SAPS   C3221384   5.870   5.319   2.843
  186SAPS   H2X21385   5.957   5.257   2.833
  186SAPS   H2Y21386   5.804   5.284   2.761
  186SAPS   C2321387   6.216   5.303   2.618
  186SAPS   H3R21388   6.303   5.299   2.548
  186SAPS   H3S21389   6.122   5.304   2.558
  186SAPS   C2421390   6.217   5.171   2.701
  186SAPS   H4R21391   6.220   5.089   2.626
  186SAPS   H4S21392   6.119   5.158   2.749
  186SAPS   C2521393   6.333   5.148   2.796
  186SAPS   H5R21394   6.430   5.164   2.745
  186SAPS   C2621395   6.340   5.122   2.930
  186SAPS   H6R21396   6.441   5.109   2.970
  186SAPS   C2721397   6.236   5.106   3.040
  186SAPS   H7R21398   6.281   5.102   3.142
  186SAPS   H7S21399   6.180   5.011   3.026
  186SAPS   C2821400   6.146   5.223   3.023
  186SAPS   H8R21401   6.100   5.209   2.927
  186SAPS   C2921402   6.099   5.330   3.090
  186SAPS   H9R21403   6.028   5.388   3.030
  186SAPS  C21021404   6.115   5.395   3.224
  186SAPS  H10R21405   6.219   5.383   3.253
  186SAPS  H10S21406   6.053   5.343   3.302
  186SAPS  C21121407   6.073   5.541   3.214
  186SAPS  H11R21408   6.082   5.583   3.112
  186SAPS  C21221409   6.024   5.628   3.304
  186SAPS  H12R21410   6.002   5.729   3.268
  186SAPS  C21321411   5.992   5.607   3.449
  186SAPS  H13R21412   5.954   5.503   3.453
  186SAPS  H13S21413   5.903   5.671   3.458
  186SAPS  C21421414   6.062   5.639   3.582
  186SAPS  H14R21415   6.104   5.550   3.631
  186SAPS  C21521416   6.076   5.757   3.647
  186SAPS  H15R21417   6.124   5.755   3.745
  186SAPS  C21621418   6.033   5.899   3.620
  186SAPS  H16R21419   6.027   5.918   3.511
  186SAPS  H16S21420   6.112   5.966   3.659
  186SAPS  C21721421   5.902   5.942   3.690
  186SAPS  H17R21422   5.817   5.890   3.641
  186SAPS  H17S21423   5.886   6.050   3.672
  186SAPS  C21821424   5.892   5.915   3.843
  186SAPS  H18R21425   5.872   5.806   3.858
  186SAPS  H18S21426   5.800   5.967   3.879
  186SAPS  C21921427   6.010   5.956   3.933
  186SAPS  H19R21428   5.969   6.025   4.011
  186SAPS  H19S21429   6.085   6.014   3.875
  186SAPS  C22021430   6.081   5.842   4.008
  186SAPS  H20R21431   6.007   5.774   4.056
  186SAPS  H20S21432   6.148   5.881   4.086
  186SAPS  H20T21433   6.142   5.780   3.940
  186SAPS   C3321434   5.789   5.308   2.977
  186SAPS   H3X21435   5.702   5.247   2.946
  186SAPS   H3Y21436   5.759   5.411   3.005
  186SAPS   C3421437   5.826   5.238   3.110
  186SAPS   H4X21438   5.873   5.315   3.174
  186SAPS   H4Y21439   5.896   5.153   3.097
  186SAPS   C3521440   5.709   5.191   3.197
  186SAPS   H5X21441   5.635   5.128   3.144
  186SAPS   H5Y21442   5.656   5.281   3.233
  186SAPS   C3621443   5.756   5.127   3.325
  186SAPS   H6X21444   5.842   5.060   3.301
  186SAPS   H6Y21445   5.676   5.063   3.370
  186SAPS   C3721446   5.797   5.238   3.423
  186SAPS   H7X21447   5.710   5.258   3.490
  186SAPS   H7Y21448   5.819   5.333   3.371
  186SAPS   C3821449   5.920   5.191   3.498
  186SAPS   H8X21450   5.994   5.146   3.428
  186SAPS   H8Y21451   5.873   5.111   3.556
  186SAPS   C3921452   5.990   5.288   3.593
  186SAPS   H9X21453   5.906   5.349   3.632
  186SAPS   H9Y21454   6.061   5.354   3.539
  186SAPS  C31021455   6.064   5.216   3.707
  186SAPS  H10X21456   6.082   5.113   3.668
  186SAPS  H10Y21457   5.998   5.205   3.796
  186SAPS  C31121458   6.204   5.263   3.752
  186SAPS  H11X21459   6.204   5.363   3.801
  186SAPS  H11Y21460   6.273   5.268   3.665
  186SAPS  C31221461   6.252   5.153   3.850
  186SAPS  H12X21462   6.249   5.059   3.792
  186SAPS  H12Y21463   6.174   5.145   3.929
  186SAPS  C31321464   6.390   5.156   3.917
  186SAPS  H13X21465   6.457   5.085   3.864
  186SAPS  H13Y21466   6.377   5.116   4.021
  186SAPS  C31421467   6.461   5.290   3.930
  186SAPS  H14X21468   6.433   5.353   3.843
  186SAPS  H14Y21469   6.571   5.276   3.927
  186SAPS  C31521470   6.421   5.360   4.059
  186SAPS  H15X21471   6.393   5.290   4.141
  186SAPS  H15Y21472   6.330   5.417   4.031
  186SAPS  C31621473   6.522   5.459   4.113
  186SAPS  H16X21474   6.591   5.488   4.031
  186SAPS  H16Y21475   6.585   5.413   4.193
  186SAPS  C31721476   6.451   5.583   4.163
  186SAPS  H17X21477   6.447   5.584   4.274
  186SAPS  H17Y21478   6.346   5.588   4.125
  186SAPS  C31821479   6.517   5.708   4.113
  186SAPS  H18X21480   6.597   5.726   4.185
  186SAPS  H18Y21481   6.450   5.796   4.108
  186SAPS  H18Z21482   6.565   5.692   4.014
  187SAPS     N21483   5.865   0.770   2.043
  187SAPS   HN121484   5.935   0.766   1.966
  187SAPS   HN221485   5.903   0.727   2.132
  187SAPS   HN321486   5.776   0.724   2.016
  187SAPS   C1221487   5.838   0.914   2.079
  187SAPS  H12A21488   5.934   0.961   2.096
  187SAPS   C1321489   5.767   0.999   1.973
  187SAPS  O13A21490   5.742   0.943   1.862
  187SAPS  O13B21491   5.755   1.123   1.994
  187SAPS   C1121492   5.763   0.915   2.214
  187SAPS  H11A21493   5.665   0.863   2.205
  187SAPS  H11B21494   5.745   1.019   2.249
  187SAPS     P21495   5.862   0.845   2.456
  187SAPS   O1321496   5.981   0.922   2.494
  187SAPS   O1421497   5.734   0.877   2.523
  187SAPS   O1221498   5.849   0.843   2.302
  187SAPS   O1121499   5.890   0.696   2.471
  187SAPS    C121500   5.801   0.594   2.434
  187SAPS    HA21501   5.694   0.625   2.429
  187SAPS    HB21502   5.832   0.561   2.333
  187SAPS    C221503   5.826   0.484   2.537
  187SAPS    HS21504   5.772   0.393   2.503
  187SAPS   O2121505   5.785   0.527   2.669
  187SAPS   C2121506   5.654   0.537   2.679
  187SAPS   O2221507   5.575   0.472   2.612
  187SAPS   C2221508   5.611   0.643   2.782
  187SAPS   H2R21509   5.678   0.730   2.763
  187SAPS   H2S21510   5.509   0.670   2.749
  187SAPS    C321511   5.977   0.451   2.536
  187SAPS    HX21512   6.012   0.452   2.431
  187SAPS    HY21513   5.986   0.349   2.575
  187SAPS   O3121514   6.057   0.546   2.608
  187SAPS   C3121515   6.087   0.511   2.730
  187SAPS   O3221516   6.081   0.399   2.776
  187SAPS   C3221517   6.129   0.636   2.807
  187SAPS   H2X21518   6.069   0.722   2.769
  187SAPS   H2Y21519   6.235   0.650   2.779
  187SAPS   C2321520   5.610   0.610   2.935
  187SAPS   H3R21521   5.583   0.705   2.988
  187SAPS   H3S21522   5.713   0.590   2.965
  187SAPS   C2421523   5.507   0.503   2.984
  187SAPS   H4R21524   5.472   0.451   2.892
  187SAPS   H4S21525   5.422   0.557   3.025
  187SAPS   C2521526   5.526   0.397   3.089
  187SAPS   H5R21527   5.520   0.294   3.050
  187SAPS   C2621528   5.550   0.410   3.221
  187SAPS   H6R21529   5.560   0.318   3.280
  187SAPS   C2721530   5.564   0.540   3.295
  187SAPS   H7R21531   5.504   0.619   3.245
  187SAPS   H7S21532   5.670   0.574   3.289
  187SAPS   C2821533   5.523   0.531   3.440
  187SAPS   H8R21534   5.454   0.449   3.465
  187SAPS   C2921535   5.561   0.611   3.541
  187SAPS   H9R21536   5.515   0.592   3.638
  187SAPS  C21021537   5.654   0.730   3.544
  187SAPS  H10R21538   5.684   0.759   3.442
  187SAPS  H10S21539   5.747   0.697   3.597
  187SAPS  C21121540   5.603   0.852   3.618
  187SAPS  H11R21541   5.584   0.940   3.555
  187SAPS  C21221542   5.577   0.859   3.751
  187SAPS  H12R21543   5.562   0.958   3.795
  187SAPS  C21321544   5.596   0.748   3.850
  187SAPS  H13R21545   5.650   0.786   3.938
  187SAPS  H13S21546   5.664   0.684   3.795
  187SAPS  C21421547   5.487   0.654   3.896
  187SAPS  H14R21548   5.399   0.703   3.941
  187SAPS  C21521549   5.490   0.519   3.889
  187SAPS  H15R21550   5.399   0.463   3.913
  187SAPS  C21621551   5.603   0.434   3.832
  187SAPS  H16R21552   5.637   0.473   3.735
  187SAPS  H16S21553   5.561   0.334   3.807
  187SAPS  C21721554   5.737   0.413   3.908
  187SAPS  H17R21555   5.797   0.356   3.834
  187SAPS  H17S21556   5.721   0.350   3.998
  187SAPS  C21821557   5.813   0.543   3.940
  187SAPS  H18R21558   5.763   0.593   4.026
  187SAPS  H18S21559   5.816   0.607   3.851
  187SAPS  C21921560   5.964   0.542   3.964
  187SAPS  H19R21561   6.019   0.514   3.871
  187SAPS  H19S21562   5.985   0.470   4.043
  187SAPS  C22021563   6.012   0.679   4.009
  187SAPS  H20R21564   6.002   0.751   3.926
  187SAPS  H20S21565   6.117   0.679   4.044
  187SAPS  H20T21566   5.948   0.711   4.093
  187SAPS   C3321567   6.117   0.621   2.960
  187SAPS   H3X21568   6.219   0.615   3.003
  187SAPS   H3Y21569   6.069   0.525   2.989
  187SAPS   C3421570   6.043   0.736   3.030
  187SAPS   H4X21571   5.938   0.742   2.994
  187SAPS   H4Y21572   6.094   0.831   3.001
  187SAPS   C3521573   6.050   0.718   3.181
  187SAPS   H5X21574   6.151   0.747   3.216
  187SAPS   H5Y21575   6.039   0.610   3.205
  187SAPS   C3621576   5.945   0.796   3.261
  187SAPS   H6X21577   5.843   0.768   3.226
  187SAPS   H6Y21578   5.959   0.904   3.242
  187SAPS   C3721579   5.958   0.767   3.412
  187SAPS   H7X21580   6.048   0.707   3.434
  187SAPS   H7Y21581   5.876   0.698   3.439
  187SAPS   C3821582   5.957   0.896   3.496
  187SAPS   H8X21583   5.859   0.946   3.481
  187SAPS   H8Y21584   6.035   0.965   3.457
  187SAPS   C3921585   5.980   0.882   3.648
  187SAPS   H9X21586   6.088   0.878   3.671
  187SAPS   H9Y21587   5.932   0.789   3.687
  187SAPS  C31021588   5.924   1.004   3.722
  187SAPS  H10X21589   5.819   1.017   3.691
  187SAPS  H10Y21590   5.980   1.095   3.690
  187SAPS  C31121591   5.932   0.994   3.875
  187SAPS  H11X21592   6.038   0.979   3.906
  187SAPS  H11Y21593   5.871   0.908   3.911
  187SAPS  C31221594   5.879   1.119   3.944
  187SAPS  H12X21595   5.934   1.208   3.904
  187SAPS  H12Y21596   5.901   1.115   4.053
  187SAPS  C31321597   5.729   1.140   3.919
  187SAPS  H13X21598   5.670   1.077   3.988
  187SAPS  H13Y21599   5.698   1.103   3.820
  187SAPS  C31421600   5.693   1.289   3.927
  187SAPS  H14X21601   5.586   1.309   3.910
  187SAPS  H14Y21602   5.750   1.342   3.847
  187SAPS  C31521603   5.728   1.349   4.063
  187SAPS  H15X21604   5.677   1.447   4.075
  187SAPS  H15Y21605   5.838   1.363   4.060
  187SAPS  C31621606   5.696   1.259   4.182
  187SAPS  H16X21607   5.762   1.271   4.270
  187SAPS  H16Y21608   5.718   1.155   4.156
  187SAPS  C31721609   5.548   1.266   4.217
  187SAPS  H17X21610   5.496   1.317   4.132
  187SAPS  H17Y21611   5.532   1.327   4.308
  187SAPS  C31821612   5.492   1.125   4.230
  187SAPS  H18X21613   5.544   1.054   4.163
  187SAPS  H18Y21614   5.387   1.125   4.197
  187SAPS  H18Z21615   5.497   1.085   4.332
  188SAPS     N21616   7.418   6.294   2.291
  188SAPS   HN121617   7.483   6.337   2.359
  188SAPS   HN221618   7.447   6.198   2.260
  188SAPS   HN321619   7.413   6.354   2.207
  188SAPS   C1221620   7.282   6.294   2.350
  188SAPS  H12A21621   7.283   6.234   2.440
  188SAPS   C1321622   7.244   6.440   2.387
  188SAPS  O13A21623   7.313   6.534   2.338
  188SAPS  O13B21624   7.180   6.450   2.494
  188SAPS   C1121625   7.182   6.232   2.246
  188SAPS  H11A21626   7.168   6.304   2.163
  188SAPS  H11B21627   7.082   6.221   2.294
  188SAPS     P21628   7.150   5.996   2.121
  188SAPS   O1321629   7.023   6.059   2.078
  188SAPS   O1421630   7.240   5.942   2.018
  188SAPS   O1221631   7.233   6.106   2.197
  188SAPS   O1121632   7.133   5.882   2.227
  188SAPS    C121633   7.204   5.877   2.349
  188SAPS    HA21634   7.249   5.777   2.364
  188SAPS    HB21635   7.287   5.951   2.357
  188SAPS    C221636   7.102   5.903   2.461
  188SAPS    HS21637   7.019   5.830   2.447
  188SAPS   O2121638   7.057   6.039   2.447
  188SAPS   C2121639   6.944   6.062   2.508
  188SAPS   O2221640   6.855   5.981   2.527
  188SAPS   C2221641   6.947   6.206   2.560
  188SAPS   H2R21642   7.046   6.252   2.543
  188SAPS   H2S21643   6.872   6.265   2.505
  188SAPS    C321644   7.167   5.883   2.599
  188SAPS    HX21645   7.211   5.781   2.603
  188SAPS    HY21646   7.088   5.891   2.677
  188SAPS   O3121647   7.266   5.986   2.616
  188SAPS   C3121648   7.343   5.969   2.721
  188SAPS   O3221649   7.359   5.864   2.781
  188SAPS   C3221650   7.406   6.103   2.756
  188SAPS   H2X21651   7.328   6.181   2.749
  188SAPS   H2Y21652   7.484   6.124   2.680
  188SAPS   C2321653   6.917   6.208   2.711
  188SAPS   H3R21654   6.839   6.132   2.735
  188SAPS   H3S21655   6.876   6.309   2.735
  188SAPS   C2421656   7.040   6.186   2.800
  188SAPS   H4R21657   7.110   6.270   2.784
  188SAPS   H4S21658   7.092   6.093   2.770
  188SAPS   C2521659   6.994   6.181   2.944
  188SAPS   H5R21660   6.936   6.270   2.974
  188SAPS   C2621661   7.017   6.086   3.036
  188SAPS   H6R21662   6.977   6.104   3.137
  188SAPS   C2721663   7.096   5.957   3.022
  188SAPS   H7R21664   7.116   5.935   2.915
  188SAPS   H7S21665   7.033   5.873   3.054
  188SAPS   C2821666   7.227   5.944   3.098
  188SAPS   H8R21667   7.312   5.919   3.034
  188SAPS   C2921668   7.248   5.953   3.231
  188SAPS   H9R21669   7.352   5.949   3.267
  188SAPS  C21021670   7.144   5.980   3.337
  188SAPS  H10R21671   7.043   5.989   3.293
  188SAPS  H10S21672   7.166   6.079   3.382
  188SAPS  C21121673   7.140   5.878   3.447
  188SAPS  H11R21674   7.176   5.777   3.423
  188SAPS  C21221675   7.089   5.903   3.569
  188SAPS  H12R21676   7.091   5.822   3.643
  188SAPS  C21321677   7.028   6.034   3.616
  188SAPS  H13R21678   7.049   6.117   3.547
  188SAPS  H13S21679   7.076   6.066   3.712
  188SAPS  C21421680   6.878   6.027   3.631
  188SAPS  H14R21681   6.821   6.087   3.559
  188SAPS  C21521682   6.813   5.952   3.721
  188SAPS  H15R21683   6.703   5.954   3.724
  188SAPS  C21621684   6.881   5.865   3.823
  188SAPS  H16R21685   6.944   5.785   3.778
  188SAPS  H16S21686   6.800   5.810   3.876
  188SAPS  C21721687   6.963   5.940   3.930
  188SAPS  H17R21688   6.921   5.896   4.020
  188SAPS  H17S21689   6.935   6.047   3.937
  188SAPS  C21821690   7.116   5.915   3.944
  188SAPS  H18R21691   7.164   6.007   3.983
  188SAPS  H18S21692   7.161   5.895   3.845
  188SAPS  C21921693   7.146   5.800   4.043
  188SAPS  H19R21694   7.164   5.706   3.984
  188SAPS  H19S21695   7.054   5.783   4.101
  188SAPS  C22021696   7.244   5.813   4.159
  188SAPS  H20R21697   7.290   5.714   4.181
  188SAPS  H20S21698   7.189   5.841   4.251
  188SAPS  H20T21699   7.324   5.887   4.137
  188SAPS   C3321700   7.469   6.105   2.897
  188SAPS   H3X21701   7.532   6.015   2.912
  188SAPS   H3Y21702   7.389   6.103   2.973
  188SAPS   C3421703   7.556   6.229   2.922
  188SAPS   H4X21704   7.622   6.245   2.834
  188SAPS   H4Y21705   7.620   6.209   3.010
  188SAPS   C3521706   7.476   6.357   2.950
  188SAPS   H5X21707   7.408   6.382   2.866
  188SAPS   H5Y21708   7.552   6.438   2.957
  188SAPS   C3621709   7.401   6.356   3.084
  188SAPS   H6X21710   7.418   6.453   3.133
  188SAPS   H6Y21711   7.444   6.278   3.150
  188SAPS   C3721712   7.249   6.336   3.075
  188SAPS   H7X21713   7.234   6.229   3.049
  188SAPS   H7Y21714   7.205   6.396   2.992
  188SAPS   C3821715   7.176   6.368   3.206
  188SAPS   H8X21716   7.076   6.318   3.206
  188SAPS   H8Y21717   7.156   6.478   3.210
  188SAPS   C3921718   7.255   6.328   3.333
  188SAPS   H9X21719   7.348   6.388   3.339
  188SAPS   H9Y21720   7.286   6.223   3.323
  188SAPS  C31021721   7.175   6.352   3.461
  188SAPS  H10X21722   7.076   6.303   3.453
  188SAPS  H10Y21723   7.159   6.462   3.467
  188SAPS  C31121724   7.242   6.310   3.594
  188SAPS  H11X21725   7.341   6.360   3.602
  188SAPS  H11Y21726   7.258   6.200   3.596
  188SAPS  C31221727   7.156   6.351   3.715
  188SAPS  H12X21728   7.056   6.303   3.709
  188SAPS  H12Y21729   7.144   6.462   3.711
  188SAPS  C31321730   7.217   6.323   3.851
  188SAPS  H13X21731   7.314   6.377   3.857
  188SAPS  H13Y21732   7.236   6.214   3.866
  188SAPS  C31421733   7.132   6.379   3.966
  188SAPS  H14X21734   7.102   6.484   3.948
  188SAPS  H14Y21735   7.203   6.384   4.049
  188SAPS  C31521736   7.007   6.302   4.009
  188SAPS  H15X21737   7.031   6.196   4.027
  188SAPS  H15Y21738   6.931   6.306   3.927
  188SAPS  C31621739   6.948   6.365   4.136
  188SAPS  H16X21740   6.953   6.474   4.128
  188SAPS  H16Y21741   7.006   6.345   4.228
  188SAPS  C31721742   6.810   6.313   4.167
  188SAPS  H17X21743   6.825   6.206   4.192
  188SAPS  H17Y21744   6.753   6.317   4.071
  188SAPS  C31821745   6.740   6.383   4.283
  188SAPS  H18X21746   6.812   6.407   4.363
  188SAPS  H18Y21747   6.660   6.319   4.328
  188SAPS  H18Z21748   6.695   6.479   4.252
  189SAPI   C1221749   1.647   2.780   6.681
  189SAPI    H221750   1.738   2.715   6.683
  189SAPI    O221751   1.531   2.696   6.676
  189SAPI   HO221752   1.463   2.744   6.723
  189SAPI   C1321753   1.649   2.864   6.808
  189SAPI    H321754   1.740   2.928   6.807
  189SAPI    O321755   1.657   2.783   6.926
  189SAPI   HO321756   1.684   2.838   7.000
  189SAPI   C1421757   1.527   2.953   6.810
  189SAPI    H421758   1.435   2.891   6.805
  189SAPI    O421759   1.515   3.022   6.934
  189SAPI   HO421760   1.503   2.956   7.004
  189SAPI   C1521761   1.528   3.046   6.690
  189SAPI    H521762   1.620   3.110   6.694
  189SAPI    O521763   1.414   3.135   6.694
  189SAPI   HO521764   1.348   3.098   6.755
  189SAPI   C1621765   1.534   2.965   6.559
  189SAPI    H621766   1.442   2.903   6.551
  189SAPI    O621767   1.533   3.054   6.447
  189SAPI   HO621768   1.445   3.042   6.408
  189SAPI   C1121769   1.656   2.872   6.559
  189SAPI    H121770   1.747   2.936   6.570
  189SAPI     P21771   1.791   2.696   6.396
  189SAPI   O1321772   1.788   2.563   6.460
  189SAPI   O1421773   1.922   2.762   6.403
  189SAPI   O1221774   1.669   2.802   6.435
  189SAPI   O1121775   1.760   2.669   6.243
  189SAPI    C121776   1.749   2.789   6.164
  189SAPI    HA21777   1.642   2.817   6.152
  189SAPI    HB21778   1.800   2.879   6.208
  189SAPI    C221779   1.814   2.776   6.024
  189SAPI    HS21780   1.788   2.869   5.969
  189SAPI   O2121781   1.768   2.660   5.953
  189SAPI   C2121782   1.643   2.667   5.909
  189SAPI   O2221783   1.566   2.760   5.924
  189SAPI   C2221784   1.607   2.536   5.841
  189SAPI   H2R21785   1.679   2.457   5.870
  189SAPI   H2S21786   1.508   2.513   5.883
  189SAPI    C321787   1.970   2.769   6.030
  189SAPI    HX21788   1.995   2.695   6.109
  189SAPI    HY21789   2.011   2.867   6.063
  189SAPI   O3121790   2.033   2.726   5.908
  189SAPI   C3121791   1.993   2.783   5.795
  189SAPI   O3221792   1.917   2.877   5.782
  189SAPI   C3221793   2.050   2.708   5.677
  189SAPI   H2X21794   2.003   2.608   5.674
  189SAPI   H2Y21795   2.159   2.696   5.691
  189SAPI   C2321796   1.586   2.537   5.688
  189SAPI   H3R21797   1.526   2.624   5.656
  189SAPI   H3S21798   1.528   2.445   5.664
  189SAPI   C2421799   1.717   2.527   5.610
  189SAPI   H4R21800   1.775   2.439   5.648
  189SAPI   H4S21801   1.778   2.618   5.630
  189SAPI   C2521802   1.688   2.509   5.462
  189SAPI   H5R21803   1.707   2.407   5.423
  189SAPI   C2621804   1.650   2.606   5.377
  189SAPI   H6R21805   1.637   2.580   5.271
  189SAPI   C2721806   1.628   2.753   5.408
  189SAPI   H7R21807   1.696   2.815   5.346
  189SAPI   H7S21808   1.652   2.777   5.514
  189SAPI   C2821809   1.484   2.788   5.381
  189SAPI   H8R21810   1.417   2.774   5.467
  189SAPI   C2921811   1.429   2.834   5.266
  189SAPI   H9R21812   1.320   2.848   5.266
  189SAPI  C21021813   1.493   2.863   5.133
  189SAPI  H10R21814   1.604   2.865   5.140
  189SAPI  H10S21815   1.461   2.965   5.103
  189SAPI  C21121816   1.449   2.767   5.025
  189SAPI  H11R21817   1.352   2.720   5.044
  189SAPI  C21221818   1.506   2.750   4.904
  189SAPI  H12R21819   1.461   2.680   4.833
  189SAPI  C21321820   1.625   2.825   4.852
  189SAPI  H13R21821   1.610   2.930   4.885
  189SAPI  H13S21822   1.614   2.827   4.742
  189SAPI  C21421823   1.767   2.793   4.889
  189SAPI  H14R21824   1.784   2.727   4.976
  189SAPI  C21521825   1.872   2.843   4.820
  189SAPI  H15R21826   1.974   2.819   4.853
  189SAPI  C21621827   1.862   2.934   4.699
  189SAPI  H16R21828   1.875   3.040   4.728
  189SAPI  H16S21829   1.763   2.927   4.649
  189SAPI  C21721830   1.965   2.896   4.591
  189SAPI  H17R21831   1.958   2.787   4.576
  189SAPI  H17S21832   2.067   2.918   4.628
  189SAPI  C21821833   1.940   2.966   4.456
  189SAPI  H18R21834   1.964   3.074   4.465
  189SAPI  H18S21835   1.832   2.962   4.430
  189SAPI  C21921836   2.017   2.906   4.337
  189SAPI  H19R21837   2.125   2.927   4.351
  189SAPI  H19S21838   1.987   2.959   4.244
  189SAPI  C22021839   1.995   2.755   4.316
  189SAPI  H20R21840   1.889   2.735   4.291
  189SAPI  H20S21841   2.023   2.697   4.407
  189SAPI  H20T21842   2.058   2.715   4.235
  189SAPI   C3321843   2.018   2.789   5.550
  189SAPI   H3X21844   2.057   2.893   5.561
  189SAPI   H3Y21845   1.907   2.797   5.537
  189SAPI   C3421846   2.077   2.726   5.424
  189SAPI   H4X21847   2.187   2.719   5.432
  189SAPI   H4Y21848   2.053   2.790   5.336
  189SAPI   C3521849   2.011   2.592   5.397
  189SAPI   H5X21850   1.903   2.615   5.400
  189SAPI   H5Y21851   2.033   2.517   5.476
  189SAPI   C3621852   2.037   2.537   5.258
  189SAPI   H6X21853   2.000   2.615   5.188
  189SAPI   H6Y21854   1.975   2.447   5.240
  189SAPI   C3721855   2.184   2.503   5.233
  189SAPI   H7X21856   2.210   2.412   5.292
  189SAPI   H7Y21857   2.252   2.585   5.267
  189SAPI   C3821858   2.210   2.477   5.084
  189SAPI   H8X21859   2.141   2.395   5.053
  189SAPI   H8Y21860   2.314   2.441   5.068
  189SAPI   C3921861   2.186   2.601   4.996
  189SAPI   H9X21862   2.281   2.659   4.989
  189SAPI   H9Y21863   2.113   2.671   5.043
  189SAPI  C31021864   2.131   2.570   4.856
  189SAPI  H10X21865   2.207   2.514   4.798
  189SAPI  H10Y21866   2.116   2.668   4.805
  189SAPI  C31121867   1.998   2.493   4.849
  189SAPI  H11X21868   1.927   2.534   4.925
  189SAPI  H11Y21869   2.016   2.386   4.872
  189SAPI  C31221870   1.937   2.506   4.709
  189SAPI  H12X21871   2.012   2.471   4.634
  189SAPI  H12Y21872   1.919   2.614   4.688
  189SAPI  C31321873   1.804   2.433   4.685
  189SAPI  H13X21874   1.722   2.482   4.741
  189SAPI  H13Y21875   1.812   2.328   4.722
  189SAPI  C31421876   1.769   2.430   4.535
  189SAPI  H14X21877   1.679   2.368   4.518
  189SAPI  H14Y21878   1.854   2.382   4.481
  189SAPI  C31521879   1.744   2.566   4.470
  189SAPI  H15X21880   1.743   2.553   4.359
  189SAPI  H15Y21881   1.828   2.633   4.494
  189SAPI  C31621882   1.613   2.636   4.507
  189SAPI  H16X21883   1.611   2.655   4.617
  189SAPI  H16Y21884   1.526   2.572   4.483
  189SAPI  C31721885   1.605   2.768   4.430
  189SAPI  H17X21886   1.606   2.746   4.321
  189SAPI  H17Y21887   1.699   2.822   4.453
  189SAPI  C31821888   1.488   2.861   4.461
  189SAPI  H18X21889   1.507   2.963   4.422
  189SAPI  H18Y21890   1.474   2.869   4.571
  189SAPI  H18Z21891   1.394   2.823   4.415
  190SAPI   C1221892   4.382   7.065   6.630
  190SAPI    H221893   4.470   7.034   6.567
  190SAPI    O221894   4.274   6.976   6.602
  190SAPI   HO221895   4.264   6.975   6.506
  190SAPI   C1321896   4.423   7.055   6.775
  190SAPI    H321897   4.513   7.118   6.790
  190SAPI    O321898   4.463   6.922   6.805
  190SAPI   HO321899   4.406   6.864   6.752
  190SAPI   C1421900   4.309   7.106   6.864
  190SAPI    H421901   4.220   7.040   6.851
  190SAPI    O421902   4.349   7.098   7.000
  190SAPI   HO421903   4.432   7.147   7.002
  190SAPI   C1521904   4.271   7.249   6.830
  190SAPI    H521905   4.362   7.312   6.845
  190SAPI    O521906   4.169   7.304   6.916
  190SAPI   HO521907   4.091   7.320   6.860
  190SAPI   C1621908   4.232   7.259   6.684
  190SAPI    H621909   4.142   7.196   6.666
  190SAPI    O621910   4.200   7.395   6.654
  190SAPI   HO621911   4.130   7.396   6.586
  190SAPI   C1121912   4.347   7.210   6.598
  190SAPI    H121913   4.437   7.271   6.625
  190SAPI     P21914   4.424   7.297   6.359
  190SAPI   O1321915   4.560   7.244   6.385
  190SAPI   O1421916   4.406   7.442   6.384
  190SAPI   O1221917   4.315   7.219   6.458
  190SAPI   O1121918   4.361   7.272   6.215
  190SAPI    C121919   4.219   7.287   6.196
  190SAPI    HA21920   4.161   7.309   6.290
  190SAPI    HB21921   4.200   7.371   6.126
  190SAPI    C221922   4.157   7.158   6.135
  190SAPI    HS21923   4.183   7.078   6.207
  190SAPI   O2121924   4.216   7.140   6.008
  190SAPI   C2121925   4.298   7.040   5.997
  190SAPI   O2221926   4.300   6.937   6.062
  190SAPI   C2221927   4.386   7.077   5.882
  190SAPI   H2R21928   4.431   7.178   5.901
  190SAPI   H2S21929   4.468   7.003   5.875
  190SAPI    C321930   4.002   7.169   6.122
  190SAPI    HX21931   3.975   7.267   6.166
  190SAPI    HY21932   3.956   7.092   6.188
  190SAPI   O3121933   3.955   7.163   5.984
  190SAPI   C3121934   3.845   7.090   5.962
  190SAPI   O3221935   3.786   7.024   6.045
  190SAPI   C3221936   3.805   7.098   5.814
  190SAPI   H2X21937   3.757   7.195   5.793
  190SAPI   H2Y21938   3.728   7.021   5.797
  190SAPI   C2321939   4.303   7.080   5.754
  190SAPI   H3R21940   4.253   7.180   5.742
  190SAPI   H3S21941   4.224   7.002   5.751
  190SAPI   C2421942   4.402   7.056   5.644
  190SAPI   H4R21943   4.450   6.956   5.653
  190SAPI   H4S21944   4.479   7.133   5.668
  190SAPI   C2521945   4.343   7.071   5.509
  190SAPI   H5R21946   4.259   7.006   5.485
  190SAPI   C2621947   4.393   7.150   5.416
  190SAPI   H6R21948   4.339   7.156   5.320
  190SAPI   C2721949   4.516   7.236   5.431
  190SAPI   H7R21950   4.594   7.206   5.357
  190SAPI   H7S21951   4.564   7.230   5.529
  190SAPI   C2821952   4.488   7.380   5.419
  190SAPI   H8R21953   4.510   7.444   5.506
  190SAPI   C2921954   4.429   7.433   5.316
  190SAPI   H9R21955   4.451   7.538   5.305
  190SAPI  C21021956   4.378   7.363   5.193
  190SAPI  H10R21957   4.277   7.322   5.209
  190SAPI  H10S21958   4.447   7.282   5.160
  190SAPI  C21121959   4.376   7.472   5.093
  190SAPI  H11R21960   4.441   7.555   5.119
  190SAPI  C21221961   4.296   7.496   4.991
  190SAPI  H12R21962   4.331   7.571   4.920
  190SAPI  C21321963   4.182   7.413   4.953
  190SAPI  H13R21964   4.146   7.360   5.043
  190SAPI  H13S21965   4.230   7.339   4.886
  190SAPI  C21421966   4.061   7.476   4.892
  190SAPI  H14R21967   4.009   7.551   4.953
  190SAPI  C21521968   4.019   7.450   4.769
  190SAPI  H15R21969   3.926   7.497   4.733
  190SAPI  C21621970   4.083   7.356   4.671
  190SAPI  H16R21971   4.036   7.255   4.668
  190SAPI  H16S21972   4.193   7.342   4.685
  190SAPI  C21721973   4.061   7.432   4.541
  190SAPI  H17R21974   4.115   7.530   4.547
  190SAPI  H17S21975   3.953   7.453   4.524
  190SAPI  C21821976   4.113   7.360   4.419
  190SAPI  H18R21977   4.037   7.286   4.386
  190SAPI  H18S21978   4.205   7.302   4.445
  190SAPI  C21921979   4.144   7.463   4.312
  190SAPI  H19R21980   4.180   7.409   4.223
  190SAPI  H19S21981   4.230   7.526   4.346
  190SAPI  C22021982   4.027   7.555   4.277
  190SAPI  H20R21983   3.933   7.499   4.259
  190SAPI  H20S21984   4.051   7.612   4.184
  190SAPI  H20T21985   4.008   7.630   4.358
  190SAPI   C3321986   3.925   7.073   5.721
  190SAPI   H3X21987   3.975   6.978   5.746
  190SAPI   H3Y21988   4.006   7.147   5.738
  190SAPI   C3421989   3.887   7.067   5.572
  190SAPI   H4X21990   3.851   7.166   5.535
  190SAPI   H4Y21991   3.804   6.994   5.557
  190SAPI   C3521992   4.012   7.026   5.496
  190SAPI   H5X21993   4.042   6.924   5.532
  190SAPI   H5Y21994   4.090   7.098   5.527
  190SAPI   C3621995   4.007   7.022   5.343
  190SAPI   H6X21996   3.916   6.970   5.309
  190SAPI   H6Y21997   4.097   6.965   5.309
  190SAPI   C3721998   4.010   7.156   5.271
  190SAPI   H7X21999   4.102   7.213   5.298
  190SAPI   H7Y22000   3.921   7.217   5.299
  190SAPI   C3822001   4.012   7.131   5.120
  190SAPI   H8X22002   3.981   7.224   5.067
  190SAPI   H8Y22003   3.940   7.051   5.092
  190SAPI   C3922004   4.152   7.090   5.073
  190SAPI   H9X22005   4.181   6.990   5.110
  190SAPI   H9Y22006   4.226   7.160   5.115
  190SAPI  C31022007   4.162   7.099   4.923
  190SAPI  H10X22008   4.268   7.110   4.889
  190SAPI  H10Y22009   4.105   7.189   4.891
  190SAPI  C31122010   4.092   6.990   4.847
  190SAPI  H11X22011   4.104   7.020   4.742
  190SAPI  H11Y22012   3.982   6.991   4.870
  190SAPI  C31222013   4.146   6.849   4.869
  190SAPI  H12X22014   4.110   6.816   4.969
  190SAPI  H12Y22015   4.257   6.844   4.872
  190SAPI  C31322016   4.092   6.761   4.757
  190SAPI  H13X22017   3.984   6.782   4.756
  190SAPI  H13Y22018   4.109   6.653   4.777
  190SAPI  C31422019   4.145   6.797   4.618
  190SAPI  H14X22020   4.159   6.702   4.561
  190SAPI  H14Y22021   4.243   6.847   4.626
  190SAPI  C31522022   4.047   6.886   4.541
  190SAPI  H15X22023   4.078   6.993   4.545
  190SAPI  H15Y22024   3.944   6.879   4.585
  190SAPI  C31622025   4.031   6.847   4.396
  190SAPI  H16X22026   4.003   6.740   4.389
  190SAPI  H16Y22027   4.128   6.860   4.342
  190SAPI  C31722028   3.920   6.929   4.333
  190SAPI  H17X22029   3.954   7.033   4.328
  190SAPI  H17Y22030   3.830   6.939   4.398
  190SAPI  C31822031   3.883   6.872   4.197
  190SAPI  H18X22032   3.976   6.849   4.142
  190SAPI  H18Y22033   3.826   6.941   4.132
  190SAPI  H18Z22034   3.823   6.780   4.209
  191SAPI   C1222035   4.950   4.738   1.805
  191SAPI    H222036   4.947   4.849   1.817
  191SAPI    O222037   4.825   4.693   1.755
  191SAPI   HO222038   4.774   4.691   1.837
  191SAPI   C1322039   5.064   4.704   1.713
  191SAPI    H322040   5.159   4.743   1.756
  191SAPI    O322041   5.044   4.769   1.588
  191SAPI   HO322042   4.953   4.748   1.560
  191SAPI   C1422043   5.072   4.554   1.696
  191SAPI    H422044   4.983   4.515   1.641
  191SAPI    O422045   5.190   4.532   1.618
  191SAPI   HO422046   5.238   4.617   1.617
  191SAPI   C1522047   5.086   4.485   1.831
  191SAPI    H522048   5.184   4.510   1.877
  191SAPI    O522049   5.080   4.344   1.809
  191SAPI   HO522050   5.010   4.323   1.745
  191SAPI   C1622051   4.973   4.522   1.926
  191SAPI    H622052   4.875   4.484   1.888
  191SAPI    O622053   4.993   4.465   2.055
  191SAPI   HO622054   4.993   4.535   2.123
  191SAPI   C1122055   4.972   4.672   1.938
  191SAPI    H122056   5.077   4.701   1.969
  191SAPI     P22057   4.925   4.796   2.158
  191SAPI   O1322058   5.007   4.908   2.105
  191SAPI   O1422059   5.000   4.693   2.232
  191SAPI   O1222060   4.866   4.720   2.024
  191SAPI   O1122061   4.800   4.846   2.236
  191SAPI    C122062   4.697   4.760   2.282
  191SAPI    HA22063   4.603   4.817   2.268
  191SAPI    HB22064   4.688   4.665   2.225
  191SAPI    C222065   4.706   4.732   2.435
  191SAPI    HS22066   4.602   4.738   2.476
  191SAPI   O2122067   4.792   4.826   2.501
  191SAPI   C2122068   4.734   4.943   2.516
  191SAPI   O2222069   4.620   4.972   2.484
  191SAPI   C2222070   4.830   5.036   2.590
  191SAPI   H2R22071   4.916   4.976   2.626
  191SAPI   H2S22072   4.868   5.111   2.517
  191SAPI    C322073   4.756   4.592   2.473
  191SAPI    HX22074   4.849   4.568   2.418
  191SAPI    HY22075   4.676   4.520   2.442
  191SAPI   O3122076   4.778   4.592   2.615
  191SAPI   C3122077   4.763   4.477   2.674
  191SAPI   O3222078   4.750   4.369   2.618
  191SAPI   C3222079   4.748   4.496   2.825
  191SAPI   H2X22080   4.691   4.409   2.863
  191SAPI   H2Y22081   4.688   4.587   2.844
  191SAPI   C2322082   4.764   5.108   2.710
  191SAPI   H3R22083   4.684   5.045   2.755
  191SAPI   H3S22084   4.715   5.201   2.674
  191SAPI   C2422085   4.867   5.137   2.821
  191SAPI   H4R22086   4.962   5.165   2.772
  191SAPI   H4S22087   4.887   5.042   2.874
  191SAPI   C2522088   4.825   5.248   2.915
  191SAPI   H5R22089   4.813   5.347   2.868
  191SAPI   C2622090   4.798   5.237   3.046
  191SAPI   H6R22091   4.771   5.327   3.103
  191SAPI   C2722092   4.804   5.109   3.126
  191SAPI   H7R22093   4.817   5.131   3.235
  191SAPI   H7S22094   4.892   5.047   3.096
  191SAPI   C2822095   4.676   5.033   3.100
  191SAPI   H8R22096   4.599   5.085   3.040
  191SAPI   C2922097   4.645   4.912   3.147
  191SAPI   H9R22098   4.548   4.869   3.118
  191SAPI  C21022099   4.733   4.826   3.234
  191SAPI  H10R22100   4.784   4.888   3.311
  191SAPI  H10S22101   4.814   4.782   3.172
  191SAPI  C21122102   4.652   4.715   3.298
  191SAPI  H11R22103   4.565   4.680   3.240
  191SAPI  C21222104   4.676   4.656   3.416
  191SAPI  H12R22105   4.603   4.584   3.453
  191SAPI  C21322106   4.787   4.683   3.513
  191SAPI  H13R22107   4.744   4.729   3.605
  191SAPI  H13S22108   4.860   4.757   3.474
  191SAPI  C21422109   4.855   4.551   3.541
  191SAPI  H14R22110   4.861   4.481   3.456
  191SAPI  C21522111   4.912   4.516   3.657
  191SAPI  H15R22112   4.961   4.417   3.665
  191SAPI  C21622113   4.919   4.600   3.782
  191SAPI  H16R22114   4.890   4.540   3.871
  191SAPI  H16S22115   4.850   4.687   3.779
  191SAPI  C21722116   5.062   4.652   3.798
  191SAPI  H17R22117   5.060   4.731   3.876
  191SAPI  H17S22118   5.099   4.701   3.705
  191SAPI  C21822119   5.160   4.544   3.844
  191SAPI  H18R22120   5.182   4.473   3.761
  191SAPI  H18S22121   5.110   4.487   3.925
  191SAPI  C21922122   5.289   4.603   3.902
  191SAPI  H19R22123   5.262   4.684   3.972
  191SAPI  H19S22124   5.346   4.650   3.820
  191SAPI  C22022125   5.375   4.501   3.977
  191SAPI  H20R22126   5.378   4.406   3.921
  191SAPI  H20S22127   5.336   4.479   4.078
  191SAPI  H20T22128   5.478   4.538   3.993
  191SAPI   C3322129   4.882   4.502   2.902
  191SAPI   H3X22130   4.937   4.593   2.869
  191SAPI   H3Y22131   4.945   4.413   2.877
  191SAPI   C3422132   4.860   4.506   3.054
  191SAPI   H4X22133   4.810   4.413   3.088
  191SAPI   H4Y22134   4.791   4.590   3.076
  191SAPI   C3522135   4.989   4.528   3.137
  191SAPI   H5X22136   5.053   4.437   3.129
  191SAPI   H5Y22137   4.959   4.540   3.243
  191SAPI   C3622138   5.071   4.650   3.093
  191SAPI   H6X22139   5.004   4.730   3.053
  191SAPI   H6Y22140   5.138   4.619   3.010
  191SAPI   C3722141   5.157   4.710   3.205
  191SAPI   H7X22142   5.253   4.743   3.159
  191SAPI   H7Y22143   5.181   4.632   3.281
  191SAPI   C3822144   5.095   4.833   3.275
  191SAPI   H8X22145   5.007   4.800   3.335
  191SAPI   H8Y22146   5.059   4.904   3.198
  191SAPI   C3922147   5.196   4.905   3.365
  191SAPI   H9X22148   5.283   4.932   3.301
  191SAPI   H9Y22149   5.233   4.836   3.444
  191SAPI  C31022150   5.148   5.035   3.432
  191SAPI  H10X22151   5.074   5.088   3.368
  191SAPI  H10Y22152   5.238   5.100   3.441
  191SAPI  C31122153   5.094   5.018   3.575
  191SAPI  H11X22154   5.151   4.938   3.627
  191SAPI  H11Y22155   4.987   4.985   3.570
  191SAPI  C31222156   5.105   5.146   3.659
  191SAPI  H12X22157   5.061   5.230   3.600
  191SAPI  H12Y22158   5.212   5.170   3.677
  191SAPI  C31322159   5.030   5.138   3.793
  191SAPI  H13X22160   4.930   5.094   3.772
  191SAPI  H13Y22161   5.015   5.240   3.833
  191SAPI  C31422162   5.097   5.054   3.903
  191SAPI  H14X22163   5.179   5.113   3.950
  191SAPI  H14Y22164   5.143   4.962   3.860
  191SAPI  C31522165   4.992   5.014   4.008
  191SAPI  H15X22166   4.927   4.934   3.966
  191SAPI  H15Y22167   4.928   5.103   4.028
  191SAPI  C31622168   5.047   4.969   4.144
  191SAPI  H16X22169   4.964   4.964   4.217
  191SAPI  H16Y22170   5.117   5.047   4.179
  191SAPI  C31722171   5.116   4.832   4.142
  191SAPI  H17X22172   5.215   4.844   4.092
  191SAPI  H17Y22173   5.055   4.762   4.079
  191SAPI  C31822174   5.132   4.767   4.279
  191SAPI  H18X22175   5.034   4.730   4.316
  191SAPI  H18Y22176   5.173   4.836   4.355
  191SAPI  H18Z22177   5.202   4.681   4.271
  192SAPI   C1222178   6.282   1.521   1.794
  192SAPI    H222179   6.350   1.603   1.826
  192SAPI    O222180   6.153   1.581   1.778
  192SAPI   HO222181   6.158   1.632   1.695
  192SAPI   C1322182   6.335   1.465   1.663
  192SAPI    H322183   6.437   1.425   1.680
  192SAPI    O322184   6.344   1.572   1.568
  192SAPI   HO322185   6.410   1.638   1.596
  192SAPI   C1422186   6.247   1.349   1.616
  192SAPI    H422187   6.144   1.386   1.594
  192SAPI    O422188   6.300   1.290   1.496
  192SAPI   HO422189   6.344   1.208   1.522
  192SAPI   C1522190   6.241   1.240   1.723
  192SAPI    H522191   6.343   1.198   1.739
  192SAPI    O522192   6.157   1.133   1.677
  192SAPI   HO522193   6.080   1.130   1.735
  192SAPI   C1622194   6.192   1.297   1.857
  192SAPI    H622195   6.088   1.336   1.848
  192SAPI    O622196   6.194   1.194   1.957
  192SAPI   HO622197   6.257   1.221   2.026
  192SAPI   C1122198   6.285   1.410   1.897
  192SAPI    H122199   6.389   1.367   1.890
  192SAPI     P22200   6.380   1.456   2.139
  192SAPI   O1322201   6.501   1.522   2.083
  192SAPI   O1422202   6.388   1.314   2.180
  192SAPI   O1222203   6.259   1.468   2.026
  192SAPI   O1122204   6.323   1.541   2.256
  192SAPI    C122205   6.233   1.470   2.340
  192SAPI    HA22206   6.145   1.434   2.282
  192SAPI    HB22207   6.281   1.382   2.391
  192SAPI    C222208   6.185   1.566   2.447
  192SAPI    HS22209   6.136   1.649   2.388
  192SAPI   O2122210   6.296   1.613   2.525
  192SAPI   C2122211   6.267   1.731   2.579
  192SAPI   O2222212   6.158   1.785   2.568
  192SAPI   C2222213   6.386   1.786   2.657
  192SAPI   H2R22214   6.467   1.711   2.662
  192SAPI   H2S22215   6.423   1.874   2.600
  192SAPI    C322216   6.079   1.495   2.533
  192SAPI    HX22217   6.006   1.461   2.457
  192SAPI    HY22218   6.032   1.566   2.605
  192SAPI   O3122219   6.136   1.382   2.602
  192SAPI   C3122220   6.056   1.276   2.611
  192SAPI   O3222221   5.943   1.269   2.567
  192SAPI   C3222222   6.124   1.175   2.699
  192SAPI   H2X22223   6.230   1.204   2.706
  192SAPI   H2Y22224   6.119   1.074   2.654
  192SAPI   C2322225   6.340   1.829   2.798
  192SAPI   H3R22226   6.248   1.891   2.787
  192SAPI   H3S22227   6.418   1.894   2.845
  192SAPI   C2422228   6.313   1.707   2.888
  192SAPI   H4R22229   6.409   1.661   2.919
  192SAPI   H4S22230   6.260   1.629   2.829
  192SAPI   C2522231   6.233   1.750   3.008
  192SAPI   H5R22232   6.287   1.811   3.082
  192SAPI   C2622233   6.103   1.722   3.028
  192SAPI   H6R22234   6.053   1.760   3.118
  192SAPI   C2722235   6.018   1.641   2.932
  192SAPI   H7R22236   6.074   1.550   2.901
  192SAPI   H7S22237   6.002   1.698   2.838
  192SAPI   C2822238   5.885   1.602   2.992
  192SAPI   H8R22239   5.800   1.666   2.965
  192SAPI   C2922240   5.868   1.499   3.077
  192SAPI   H9R22241   5.767   1.477   3.117
  192SAPI  C21022242   5.981   1.410   3.121
  192SAPI  H10R22243   6.045   1.468   3.192
  192SAPI  H10S22244   6.049   1.390   3.036
  192SAPI  C21122245   5.939   1.278   3.180
  192SAPI  H11R22246   5.894   1.208   3.108
  192SAPI  C21222247   5.952   1.241   3.308
  192SAPI  H12R22248   5.921   1.139   3.337
  192SAPI  C21322249   6.012   1.324   3.420
  192SAPI  H13R22250   5.947   1.314   3.509
  192SAPI  H13S22251   6.009   1.432   3.394
  192SAPI  C21422252   6.154   1.287   3.453
  192SAPI  H14R22253   6.214   1.244   3.371
  192SAPI  C21522254   6.213   1.306   3.572
  192SAPI  H15R22255   6.317   1.275   3.586
  192SAPI  C21622256   6.147   1.369   3.693
  192SAPI  H16R22257   6.054   1.314   3.721
  192SAPI  H16S22258   6.120   1.475   3.673
  192SAPI  C21722259   6.243   1.365   3.814
  192SAPI  H17R22260   6.343   1.404   3.786
  192SAPI  H17S22261   6.254   1.259   3.843
  192SAPI  C21822262   6.193   1.440   3.939
  192SAPI  H18R22263   6.258   1.408   4.023
  192SAPI  H18S22264   6.090   1.405   3.961
  192SAPI  C21922265   6.197   1.593   3.931
  192SAPI  H19R22266   6.098   1.629   3.896
  192SAPI  H19S22267   6.269   1.627   3.854
  192SAPI  C22022268   6.233   1.659   4.066
  192SAPI  H20R22269   6.191   1.600   4.150
  192SAPI  H20S22270   6.192   1.762   4.072
  192SAPI  H20T22271   6.342   1.664   4.083
  192SAPI   C3322272   6.055   1.175   2.837
  192SAPI   H3X22273   5.962   1.114   2.832
  192SAPI   H3Y22274   6.025   1.279   2.865
  192SAPI   C3422275   6.148   1.120   2.943
  192SAPI   H4X22276   6.184   1.021   2.908
  192SAPI   H4Y22277   6.094   1.105   3.039
  192SAPI   C3522278   6.271   1.208   2.969
  192SAPI   H5X22279   6.244   1.310   3.003
  192SAPI   H5Y22280   6.331   1.221   2.876
  192SAPI   C3622281   6.359   1.138   3.070
  192SAPI   H6X22282   6.354   1.029   3.049
  192SAPI   H6Y22283   6.320   1.156   3.172
  192SAPI   C3722284   6.505   1.180   3.057
  192SAPI   H7X22285   6.539   1.159   2.953
  192SAPI   H7Y22286   6.564   1.117   3.127
  192SAPI   C3822287   6.527   1.328   3.090
  192SAPI   H8X22288   6.472   1.391   3.017
  192SAPI   H8Y22289   6.635   1.352   3.081
  192SAPI   C3922290   6.477   1.360   3.232
  192SAPI   H9X22291   6.487   1.268   3.295
  192SAPI   H9Y22292   6.368   1.384   3.227
  192SAPI  C31022293   6.554   1.473   3.299
  192SAPI  H10X22294   6.563   1.559   3.229
  192SAPI  H10Y22295   6.657   1.437   3.322
  192SAPI  C31122296   6.487   1.521   3.429
  192SAPI  H11X22297   6.474   1.434   3.497
  192SAPI  H11Y22298   6.385   1.561   3.406
  192SAPI  C31222299   6.569   1.628   3.503
  192SAPI  H12X22300   6.579   1.720   3.441
  192SAPI  H12Y22301   6.671   1.586   3.518
  192SAPI  C31322302   6.508   1.661   3.640
  192SAPI  H13X22303   6.465   1.568   3.682
  192SAPI  H13Y22304   6.425   1.734   3.629
  192SAPI  C31422305   6.609   1.714   3.742
  192SAPI  H14X22306   6.637   1.818   3.717
  192SAPI  H14Y22307   6.703   1.655   3.740
  192SAPI  C31522308   6.550   1.713   3.883
  192SAPI  H15X22309   6.450   1.761   3.881
  192SAPI  H15Y22310   6.608   1.775   3.953
  192SAPI  C31622311   6.539   1.573   3.946
  192SAPI  H16X22312   6.439   1.533   3.925
  192SAPI  H16Y22313   6.546   1.583   4.056
  192SAPI  C31722314   6.633   1.463   3.898
  192SAPI  H17X22315   6.739   1.494   3.901
  192SAPI  H17Y22316   6.611   1.437   3.792
  192SAPI  C31822317   6.613   1.341   3.987
  192SAPI  H18X22318   6.623   1.363   4.095
  192SAPI  H18Y22319   6.686   1.261   3.963
  192SAPI  H18Z22320   6.508   1.305   3.974
  193POT    POT22321   1.315   2.599   7.912
  194POT    POT22322   6.232   4.309   7.679
  195POT    POT22323   0.252   6.968   0.799
  196POT    POT22324   5.532   3.362   6.918
  197POT    POT22325   4.047   4.577   0.622
  198POT    POT22326   2.336   6.918   1.615
  199POT    POT22327   5.784   2.076   7.624
  200POT    POT22328   5.804   2.974   6.397
  201POT    POT22329   0.434   6.410   7.116
  202POT    POT22330   6.971   3.961   1.333
  203POT    POT22331   4.299   5.004   7.044
  204POT    POT22332   5.859   0.712   0.378
  205POT    POT22333   6.004   4.282   8.416
  206POT    POT22334  -0.007   0.762   8.152
  207POT    POT22335   4.337   1.341   8.055
  208POT    POT22336   3.228   0.026   1.648
  209POT    POT22337   4.325   0.198   8.186
  210POT    POT22338   0.420   4.432   1.508
  211POT    POT22339   7.186   5.830   6.991
  212POT    POT22340   1.025   5.717   1.881
  213POT    POT22341   5.452   4.277   7.979
  214POT    POT22342   0.715   1.684   1.546
  215POT    POT22343   1.047   7.260   1.051
  216POT    POT22344   2.255   0.568   0.317
  217POT    POT22345   5.861   0.052   8.153
  218POT    POT22346   1.087   1.154   0.842
  219POT    POT22347   1.258   5.446   8.085
  220POT    POT22348   1.048   4.803   8.434
  221POT    POT22349   6.110   6.147   7.676
  222POT    POT22350   4.673   4.518   1.158
  223POT    POT22351   4.127   0.795   6.926
  224POT    POT22352   0.488   6.978   7.937
  225POT    POT22353   0.478   4.246   7.646
  226POT    POT22354   0.077   2.862   1.289
  227POT    POT22355   1.472   4.077   6.536
  228POT    POT22356   6.758   7.121   7.182
  229POT    POT22357   5.831   2.638   8.398
  230CLA    CLA22358   3.605   3.426   0.972
  231CLA    CLA22359   3.324   1.979   8.290
  232CLA    CLA22360   2.350   6.741   7.357
  233CLA    CLA22361   6.539   1.371   7.409
  234CLA    CLA22362   3.526   3.326   1.581
  235CLA    CLA22363   2.707   5.422   0.677
  236CLA    CLA22364   1.132   0.507   2.034
  237CLA    CLA22365   5.433   5.603   7.536
  238CLA    CLA22366   6.704   4.218   0.745
  239CLA    CLA22367   0.739   0.191   8.452
  240CLA    CLA22368   4.839   1.509   7.623
  241CLA    CLA22369   6.919   0.725   7.855
  242CLA    CLA22370   6.063   4.628   1.694
  243CLA    CLA22371   1.338   6.870   1.731
  244CLA    CLA22372   5.505   3.340   0.703
  245CLA    CLA22373   1.637   1.923   7.459
  246CLA    CLA22374   1.532   0.822   7.419
  247TIP3   OH222375   3.915   3.765   6.200
  247TIP3    H122376   3.914   3.788   6.294
  247TIP3    H222377   3.821   3.778   6.178
  248TIP3   OH222378   3.313   3.787   6.314
  248TIP3    H122379   3.349   3.872   6.341
  248TIP3    H222380   3.375   3.759   6.248
  249TIP3   OH222381   3.787   3.855   6.440
  249TIP3    H122382   3.697   3.822   6.453
  249TIP3    H222383   3.770   3.947   6.414
  250TIP3   OH222384   4.101   4.523   6.270
  250TIP3    H122385   4.162   4.448   6.282
  250TIP3    H222386   4.161   4.597   6.280
  251TIP3   OH222387   3.758   2.230   6.314
  251TIP3    H122388   3.717   2.235   6.400
  251TIP3    H222389   3.850   2.207   6.337
  252TIP3   OH222390   4.935   4.757   6.154
  252TIP3    H122391   4.899   4.844   6.185
  252TIP3    H222392   4.955   4.774   6.062
  253TIP3   OH222393   4.832   4.593   6.420
  253TIP3    H122394   4.808   4.528   6.487
  253TIP3    H222395   4.828   4.537   6.339
  254TIP3   OH222396   4.628   4.773   6.411
  254TIP3    H122397   4.695   4.702   6.413
  254TIP3    H222398   4.580   4.751   6.328
  255TIP3   OH222399   4.831   4.415   6.226
  255TIP3    H122400   4.797   4.334   6.269
  255TIP3    H222401   4.837   4.388   6.133
  256TIP3   OH222402   3.059   2.553   6.291
  256TIP3    H122403   3.036   2.510   6.374
  256TIP3    H222404   3.153   2.571   6.301
  257TIP3   OH222405   3.224   2.130   6.274
  257TIP3    H122406   3.188   2.157   6.361
  257TIP3    H222407   3.144   2.142   6.220
  258TIP3   OH222408   4.238   5.502   6.228
  258TIP3    H122409   4.164   5.482   6.168
  258TIP3    H222410   4.286   5.574   6.179
  259TIP3   OH222411   3.765   5.223   6.400
  259TIP3    H122412   3.681   5.175   6.418
  259TIP3    H222413   3.740   5.312   6.427
  260TIP3   OH222414   4.096   5.096   6.364
  260TIP3    H122415   4.018   5.143   6.331
  260TIP3    H222416   4.161   5.107   6.293
  261TIP3   OH222417   4.055   5.489   6.441
  261TIP3    H122418   4.129   5.511   6.379
  261TIP3    H222419   4.033   5.399   6.415
  262TIP3   OH222420   3.424   1.664   6.224
  262TIP3    H122421   3.336   1.644   6.260
  262TIP3    H222422   3.484   1.630   6.293
  263TIP3   OH222423   4.645   1.991   6.250
  263TIP3    H122424   4.726   2.025   6.211
  263TIP3    H222425   4.665   2.000   6.344
  264TIP3   OH222426   4.311   1.663   6.232
  264TIP3    H122427   4.388   1.690   6.179
  264TIP3    H222428   4.339   1.584   6.282
  265TIP3   OH222429   5.554   2.508   6.290
  265TIP3    H122430   5.632   2.462   6.258
  265TIP3    H222431   5.493   2.435   6.311
  266TIP3   OH222432   5.535   3.595   6.316
  266TIP3    H122433   5.582   3.520   6.276
  266TIP3    H222434   5.549   3.666   6.252
  267TIP3   OH222435   5.667   3.149   6.256
  267TIP3    H122436   5.582   3.135   6.212
  267TIP3    H222437   5.695   3.233   6.212
  268TIP3   OH222438   5.080   5.438   6.247
  268TIP3    H122439   5.130   5.407   6.324
  268TIP3    H222440   5.142   5.409   6.176
  269TIP3   OH222441   4.774   5.351   6.351
  269TIP3    H122442   4.850   5.405   6.377
  269TIP3    H222443   4.761   5.385   6.260
  270TIP3   OH222444   5.173   1.718   6.228
  270TIP3    H122445   5.212   1.657   6.292
  270TIP3    H222446   5.087   1.675   6.207
  271TIP3   OH222447   5.209   2.055   6.439
  271TIP3    H122448   5.281   2.117   6.420
  271TIP3    H222449   5.178   2.039   6.348
  272TIP3   OH222450   2.898   5.644   6.189
  272TIP3    H122451   2.841   5.718   6.161
  272TIP3    H222452   2.982   5.687   6.212
  273TIP3   OH222453   1.279   2.976   6.091
  273TIP3    H122454   1.327   2.895   6.064
  273TIP3    H222455   1.305   3.044   6.029
  274TIP3   OH222456   1.444   3.384   6.218
  274TIP3    H122457   1.492   3.306   6.251
  274TIP3    H222458   1.501   3.410   6.145
  275TIP3   OH222459   1.004   3.272   6.314
  275TIP3    H122460   0.928   3.253   6.259
  275TIP3    H222461   1.077   3.274   6.249
  276TIP3   OH222462   1.251   3.042   6.349
  276TIP3    H122463   1.217   3.131   6.326
  276TIP3    H222464   1.260   3.002   6.259
  277TIP3   OH222465   1.978   5.463   6.316
  277TIP3    H122466   2.003   5.550   6.281
  277TIP3    H222467   1.934   5.424   6.239
  278TIP3   OH222468   1.892   5.969   6.167
  278TIP3    H122469   1.806   6.015   6.156
  278TIP3    H222470   1.888   5.945   6.260
  279TIP3   OH222471   4.912   1.579   6.226
  279TIP3    H122472   4.958   1.494   6.229
  279TIP3    H222473   4.830   1.555   6.181
  280TIP3   OH222474   6.072   2.045   6.438
  280TIP3    H122475   6.049   2.032   6.345
  280TIP3    H222476   6.116   1.960   6.459
  281TIP3   OH222477   5.960   2.371   6.238
  281TIP3    H122478   5.872   2.393   6.270
  281TIP3    H222479   5.982   2.444   6.179
  282TIP3   OH222480   6.553   3.530   6.436
  282TIP3    H122481   6.596   3.617   6.435
  282TIP3    H222482   6.626   3.470   6.420
  283TIP3   OH222483   6.391   3.381   6.254
  283TIP3    H122484   6.419   3.427   6.335
  283TIP3    H222485   6.412   3.454   6.193
  284TIP3   OH222486   5.096   5.867   6.244
  284TIP3    H122487   5.139   5.942   6.197
  284TIP3    H222488   5.113   5.889   6.336
  285TIP3   OH222489   6.114   5.132   6.329
  285TIP3    H122490   6.177   5.141   6.404
  285TIP3    H222491   6.129   5.216   6.281
  286TIP3   OH222492   1.244   4.903   6.208
  286TIP3    H122493   1.305   4.946   6.147
  286TIP3    H222494   1.237   4.971   6.275
  287TIP3   OH222495   3.790   6.883   6.276
  287TIP3    H122496   3.739   6.942   6.217
  287TIP3    H222497   3.876   6.929   6.277
  288TIP3   OH222498   4.079   6.900   6.302
  288TIP3    H122499   4.050   6.809   6.320
  288TIP3    H222500   4.135   6.883   6.224
  289TIP3   OH222501   3.889   6.407   6.127
  289TIP3    H122502   3.803   6.380   6.094
  289TIP3    H222503   3.877   6.505   6.130
  290TIP3   OH222504   0.919   5.559   6.245
  290TIP3    H122505   0.851   5.490   6.243
  290TIP3    H222506   0.999   5.517   6.208
  291TIP3   OH222507   5.529   6.896   6.378
  291TIP3    H122508   5.518   6.839   6.456
  291TIP3    H222509   5.624   6.878   6.361
  292TIP3   OH222510   5.651   6.475   6.260
  292TIP3    H122511   5.609   6.553   6.216
  292TIP3    H222512   5.725   6.457   6.200
  293TIP3   OH222513   5.400   7.001   6.173
  293TIP3    H122514   5.309   7.006   6.208
  293TIP3    H222515   5.451   6.983   6.255
  294TIP3   OH222516   5.292   6.507   6.167
  294TIP3    H122517   5.232   6.539   6.098
  294TIP3    H222518   5.312   6.590   6.213
  295TIP3   OH222519   5.775   6.818   6.338
  295TIP3    H122520   5.854   6.878   6.342
  295TIP3    H222521   5.775   6.796   6.244
  296TIP3   OH222522   6.142   0.503   6.329
  296TIP3    H122523   6.179   0.426   6.281
  296TIP3    H222524   6.061   0.514   6.276
  297TIP3   OH222525   1.158   0.334   6.506
  297TIP3    H122526   1.167   0.417   6.457
  297TIP3    H222527   1.107   0.279   6.446
  298TIP3   OH222528   1.246   0.547   6.289
  298TIP3    H122529   1.299   0.618   6.251
  298TIP3    H222530   1.246   0.479   6.219
  299TIP3   OH222531   3.603   4.291   2.214
  299TIP3    H122532   3.519   4.324   2.251
  299TIP3    H222533   3.591   4.318   2.120
  300TIP3   OH222534   3.763   3.905   2.218
  300TIP3    H122535   3.705   3.955   2.280
  300TIP3    H222536   3.851   3.939   2.240
  301TIP3   OH222537   4.339   3.522   2.361
  301TIP3    H122538   4.311   3.609   2.394
  301TIP3    H222539   4.259   3.470   2.387
  302TIP3   OH222540   3.927   3.385   2.088
  302TIP3    H122541   3.918   3.288   2.095
  302TIP3    H222542   4.023   3.399   2.093
  303TIP3   OH222543   4.272   3.448   2.101
  303TIP3    H122544   4.227   3.533   2.095
  303TIP3    H222545   4.304   3.453   2.193
  304TIP3   OH222546   3.222   4.501   2.289
  304TIP3    H122547   3.136   4.469   2.322
  304TIP3    H222548   3.217   4.594   2.316
  305TIP3   OH222549   3.471   1.947   2.224
  305TIP3    H122550   3.548   1.992   2.184
  305TIP3    H222551   3.445   1.885   2.155
  306TIP3   OH222552   3.326   1.710   2.273
  306TIP3    H122553   3.301   1.781   2.335
  306TIP3    H222554   3.420   1.696   2.291
  307TIP3   OH222555   5.645   2.607   2.378
  307TIP3    H122556   5.664   2.573   2.291
  307TIP3    H222557   5.659   2.701   2.367
  308TIP3   OH222558   5.309   2.961   2.208
  308TIP3    H122559   5.238   2.943   2.144
  308TIP3    H222560   5.325   3.054   2.191
  309TIP3   OH222561   4.246   5.551   2.161
  309TIP3    H122562   4.197   5.629   2.191
  309TIP3    H222563   4.249   5.561   2.065
  310TIP3   OH222564   4.657   5.552   2.346
  310TIP3    H122565   4.627   5.564   2.254
  310TIP3    H222566   4.579   5.501   2.377
  311TIP3   OH222567   1.390   3.414   2.314
  311TIP3    H122568   1.317   3.426   2.377
  311TIP3    H222569   1.465   3.453   2.361
  312TIP3   OH222570   1.846   3.237   2.590
  312TIP3    H122571   1.821   3.299   2.521
  312TIP3    H222572   1.855   3.155   2.539
  313TIP3   OH222573   1.620   3.766   2.288
  313TIP3    H122574   1.665   3.819   2.355
  313TIP3    H222575   1.626   3.676   2.325
  314TIP3   OH222576   2.407   1.670   2.201
  314TIP3    H122577   2.471   1.599   2.196
  314TIP3    H222578   2.467   1.744   2.226
  315TIP3   OH222579   5.076   5.285   2.059
  315TIP3    H122580   5.016   5.227   2.108
  315TIP3    H222581   5.095   5.356   2.123
  316TIP3   OH222582   5.419   5.295   2.250
  316TIP3    H122583   5.486   5.332   2.312
  316TIP3    H222584   5.401   5.210   2.289
  317TIP3   OH222585   1.533   4.951   2.153
  317TIP3    H122586   1.458   4.922   2.208
  317TIP3    H222587   1.542   5.043   2.179
  318TIP3   OH222588   1.544   4.663   2.332
  318TIP3    H122589   1.458   4.621   2.312
  318TIP3    H222590   1.523   4.757   2.335
  319TIP3   OH222591   4.403   1.429   2.186
  319TIP3    H122592   4.490   1.411   2.231
  319TIP3    H222593   4.403   1.526   2.191
  320TIP3   OH222594   4.847   1.302   2.219
  320TIP3    H122595   4.812   1.212   2.228
  320TIP3    H222596   4.942   1.283   2.217
  321TIP3   OH222597   1.184   2.569   2.223
  321TIP3    H122598   1.240   2.619   2.285
  321TIP3    H222599   1.134   2.645   2.185
  322TIP3   OH222600   1.050   2.793   2.239
  322TIP3    H122601   0.958   2.766   2.260
  322TIP3    H222602   1.093   2.771   2.324
  323TIP3   OH222603   3.019   1.002   2.303
  323TIP3    H122604   3.075   1.038   2.233
  323TIP3    H222605   2.998   0.912   2.273
  324TIP3   OH222606   2.592   1.244   2.151
  324TIP3    H122607   2.629   1.180   2.212
  324TIP3    H222608   2.650   1.320   2.173
  325TIP3   OH222609   2.930   1.233   2.022
  325TIP3    H122610   2.979   1.201   1.943
  325TIP3    H222611   2.856   1.172   2.020
  326TIP3   OH222612   2.815   1.407   2.215
  326TIP3    H122613   2.816   1.335   2.280
  326TIP3    H222614   2.885   1.377   2.153
  327TIP3   OH222615   5.412   2.327   2.298
  327TIP3    H122616   5.472   2.265   2.256
  327TIP3    H222617   5.339   2.267   2.321
  328TIP3   OH222618   5.579   2.016   2.301
  328TIP3    H122619   5.505   1.998   2.365
  328TIP3    H222620   5.534   1.997   2.219
  329TIP3   OH222621   5.992   2.200   2.166
  329TIP3    H122622   6.076   2.177   2.207
  329TIP3    H222623   5.929   2.200   2.241
  330TIP3   OH222624   2.014   1.416   2.161
  330TIP3    H122625   2.054   1.328   2.163
  330TIP3    H222626   1.979   1.419   2.250
  331TIP3   OH222627   1.760   1.295   2.340
  331TIP3    H122628   1.805   1.341   2.411
  331TIP3    H222629   1.678   1.346   2.329
  332TIP3   OH222630   2.101   0.860   2.286
  332TIP3    H122631   2.149   0.845   2.204
  332TIP3    H222632   2.011   0.872   2.252
  333TIP3   OH222633   6.430   4.899   2.071
  333TIP3    H122634   6.426   4.806   2.097
  333TIP3    H222635   6.362   4.898   2.002
  334TIP3   OH222636   6.359   5.097   2.276
  334TIP3    H122637   6.413   5.019   2.251
  334TIP3    H222638   6.325   5.068   2.361
  335TIP3   OH222639   7.162   4.301   2.316
  335TIP3    H122640   7.234   4.333   2.259
  335TIP3    H222641   7.208   4.292   2.402
  336TIP3   OH222642   6.977   4.273   2.079
  336TIP3    H122643   7.043   4.307   2.142
  336TIP3    H222644   6.898   4.270   2.135
  337TIP3   OH222645   2.593   0.637   2.227
  337TIP3    H122646   2.681   0.598   2.207
  337TIP3    H222647   2.614   0.728   2.249
  338TIP3   OH222648   2.122   0.267   2.182
  338TIP3    H122649   2.217   0.278   2.184
  338TIP3    H222650   2.103   0.220   2.101
  339TIP3   OH222651   2.471   0.471   2.015
  339TIP3    H122652   2.499   0.528   2.090
  339TIP3    H222653   2.412   0.530   1.965
  340TIP3   OH222654   6.205   6.325   2.152
  340TIP3    H122655   6.151   6.339   2.072
  340TIP3    H222656   6.204   6.228   2.159
  341TIP3   OH222657   6.099   6.031   2.140
  341TIP3    H122658   6.016   6.030   2.190
  341TIP3    H222659   6.118   5.938   2.128
  342TIP3   OH222660   6.453   6.231   2.006
  342TIP3    H122661   6.402   6.252   2.086
  342TIP3    H222662   6.514   6.162   2.035
  343TIP3   OH222663   0.694   5.455   2.096
  343TIP3    H122664   0.619   5.398   2.071
  343TIP3    H222665   0.765   5.408   2.049
  344TIP3   OH222666   0.633   5.724   2.202
  344TIP3    H122667   0.648   5.639   2.159
  344TIP3    H222668   0.580   5.694   2.278
  345TIP3   OH222669   0.803   5.329   2.354
  345TIP3    H122670   0.820   5.424   2.363
  345TIP3    H222671   0.847   5.293   2.431
  346TIP3   OH222672   0.822   6.094   2.157
  346TIP3    H122673   0.817   6.156   2.233
  346TIP3    H222674   0.769   6.139   2.089
  347TIP3   OH222675   6.824   1.257   2.245
  347TIP3    H122676   6.728   1.269   2.244
  347TIP3    H222677   6.832   1.164   2.271
  348TIP3   OH222678   0.115   6.836   2.184
  348TIP3    H122679   0.146   6.906   2.124
  348TIP3    H222680   0.029   6.869   2.213
  349TIP3   OH222681   1.169   0.999   6.917
  349TIP3    H122682   1.210   1.064   6.977
  349TIP3    H222683   1.120   1.065   6.865
  350TIP3   OH222684   1.061   0.942   7.291
  350TIP3    H122685   1.081   0.893   7.375
  350TIP3    H222686   1.000   0.880   7.246
  351TIP3   OH222687   0.291   0.928   7.397
  351TIP3    H122688   0.262   0.853   7.452
  351TIP3    H222689   0.377   0.949   7.436
  352TIP3   OH222690   1.366   1.230   7.057
  352TIP3    H122691   1.358   1.156   7.120
  352TIP3    H222692   1.408   1.293   7.120
  353TIP3   OH222693   0.386   1.343   7.264
  353TIP3    H122694   0.351   1.256   7.236
  353TIP3    H222695   0.476   1.334   7.231
  354TIP3   OH222696   0.098   0.710   6.803
  354TIP3    H122697   0.011   0.740   6.838
  354TIP3    H222698   0.077   0.630   6.751
  355TIP3   OH222699   0.098   0.927   7.079
  355TIP3    H122700   0.118   0.838   7.044
  355TIP3    H222701   0.158   0.986   7.031
  356TIP3   OH222702   1.155   1.724   7.126
  356TIP3    H122703   1.213   1.675   7.062
  356TIP3    H222704   1.112   1.649   7.169
  357TIP3   OH222705   0.901   1.206   7.353
  357TIP3    H122706   0.933   1.147   7.283
  357TIP3    H222707   0.987   1.228   7.395
  358TIP3   OH222708   1.760   0.286   7.391
  358TIP3    H122709   1.801   0.332   7.466
  358TIP3    H222710   1.743   0.364   7.333
  359TIP3   OH222711   1.266   0.625   7.393
  359TIP3    H122712   1.290   0.540   7.434
  359TIP3    H222713   1.258   0.604   7.299
  360TIP3   OH222714   0.530   0.447   7.053
  360TIP3    H122715   0.559   0.512   6.988
  360TIP3    H222716   0.502   0.374   6.995
  361TIP3   OH222717   1.283   0.411   6.955
  361TIP3    H122718   1.357   0.415   7.020
  361TIP3    H222719   1.321   0.468   6.888
  362TIP3   OH222720   0.158   0.657   7.124
  362TIP3    H122721   0.221   0.624   7.190
  362TIP3    H222722   0.217   0.652   7.045
  363TIP3   OH222723   0.677   0.830   7.087
  363TIP3    H122724   0.764   0.784   7.097
  363TIP3    H222725   0.629   0.769   7.025
  364TIP3   OH222726   1.798   0.431   7.621
  364TIP3    H122727   1.753   0.505   7.573
  364TIP3    H222728   1.794   0.471   7.709
  365TIP3   OH222729   0.434   0.332   7.498
  365TIP3    H122730   0.394   0.384   7.426
  365TIP3    H222731   0.360   0.332   7.563
  366TIP3   OH222732   1.104   1.264   6.835
  366TIP3    H122733   1.158   1.315   6.772
  366TIP3    H222734   1.081   1.334   6.899
  367TIP3   OH222735   0.673   1.099   7.438
  367TIP3    H122736   0.616   1.174   7.467
  367TIP3    H222737   0.754   1.149   7.411
  368TIP3   OH222738   1.481   0.443   7.118
  368TIP3    H122739   1.524   0.362   7.147
  368TIP3    H222740   1.545   0.511   7.147
  369TIP3   OH222741   0.371   0.521   7.286
  369TIP3    H122742   0.421   0.586   7.341
  369TIP3    H222743   0.435   0.505   7.213
  370TIP3   OH222744   0.538   1.295   7.547
  370TIP3    H122745   0.524   1.379   7.501
  370TIP3    H222746   0.449   1.284   7.586
  371TIP3   OH222747   0.052   1.246   6.687
  371TIP3    H122748   0.108   1.207   6.617
  371TIP3    H222749   0.112   1.275   6.757
  372TIP3   OH222750   1.455   1.395   7.253
  372TIP3    H122751   1.373   1.416   7.303
  372TIP3    H222752   1.502   1.481   7.263
  373TIP3   OH222753   1.518   0.256   7.513
  373TIP3    H122754   1.445   0.271   7.449
  373TIP3    H222755   1.596   0.264   7.455
  374TIP3   OH222756   0.838   0.131   7.225
  374TIP3    H122757   0.816   0.046   7.267
  374TIP3    H222758   0.763   0.184   7.259
  375TIP3   OH222759   1.311   1.590   6.960
  375TIP3    H122760   1.347   1.501   6.944
  375TIP3    H222761   1.383   1.646   6.925
  376TIP3   OH222762   1.446   1.386   6.840
  376TIP3    H122763   1.470   1.305   6.788
  376TIP3    H222764   1.414   1.337   6.920
  377TIP3   OH222765   1.596   1.247   7.739
  377TIP3    H122766   1.597   1.169   7.677
  377TIP3    H222767   1.613   1.315   7.671
  378TIP3   OH222768   1.809   0.907   7.542
  378TIP3    H122769   1.712   0.914   7.525
  378TIP3    H222770   1.840   0.944   7.457
  379TIP3   OH222771   1.392   0.915   6.766
  379TIP3    H122772   1.333   0.927   6.842
  379TIP3    H222773   1.472   0.878   6.809
  380TIP3   OH222774   1.382   0.800   7.718
  380TIP3    H122775   1.319   0.874   7.724
  380TIP3    H222776   1.396   0.795   7.622
  381TIP3   OH222777   0.559   1.043   6.984
  381TIP3    H122778   0.513   0.993   6.915
  381TIP3    H222779   0.612   0.972   7.026
  382TIP3   OH222780   0.705   1.375   7.253
  382TIP3    H122781   0.710   1.344   7.162
  382TIP3    H222782   0.782   1.329   7.293
  383TIP3   OH222783   0.584   0.878   7.330
  383TIP3    H122784   0.626   0.875   7.241
  383TIP3    H222785   0.620   0.962   7.368
  384TIP3   OH222786   1.247   1.470   7.407
  384TIP3    H122787   1.207   1.548   7.451
  384TIP3    H222788   1.214   1.397   7.462
  385TIP3   OH222789   0.683   1.309   7.778
  385TIP3    H122790   0.613   1.369   7.813
  385TIP3    H222791   0.644   1.291   7.690
  386TIP3   OH222792   0.421   0.943   7.710
  386TIP3    H122793   0.419   0.989   7.796
  386TIP3    H222794   0.327   0.937   7.686
  387TIP3   OH222795   1.022   1.579   6.899
  387TIP3    H122796   1.067   1.650   6.946
  387TIP3    H222797   0.992   1.626   6.820
  388TIP3   OH222798   0.516   1.492   7.886
  388TIP3    H122799   0.488   1.521   7.797
  388TIP3    H222800   0.430   1.482   7.931
  389TIP3   OH222801   1.675   0.076   6.530
  389TIP3    H122802   1.612   0.082   6.603
  389TIP3    H222803   1.683   0.170   6.505
  390TIP3   OH222804   0.134   1.184   7.581
  390TIP3    H122805   0.037   1.203   7.578
  390TIP3    H222806   0.132   1.089   7.604
  391TIP3   OH222807   0.112   1.464   7.237
  391TIP3    H122808   0.187   1.402   7.226
  391TIP3    H222809   0.083   1.441   7.327
  392TIP3   OH222810   1.857   1.496   7.867
  392TIP3    H122811   1.849   1.401   7.847
  392TIP3    H222812   1.768   1.511   7.907
  393TIP3   OH222813   0.962   1.421   7.793
  393TIP3    H122814   0.967   1.497   7.855
  393TIP3    H222815   0.866   1.406   7.785
  394TIP3   OH222816   0.987   1.818   6.705
  394TIP3    H122817   0.984   1.841   6.609
  394TIP3    H222818   0.963   1.904   6.743
  395TIP3   OH222819   0.378   1.694   6.917
  395TIP3    H122820   0.427   1.688   7.002
  395TIP3    H222821   0.296   1.644   6.940
  396TIP3   OH222822   1.295   1.731   6.378
  396TIP3    H122823   1.331   1.648   6.341
  396TIP3    H222824   1.321   1.720   6.472
  397TIP3   OH222825   1.274   1.722   6.671
  397TIP3    H122826   1.185   1.753   6.695
  397TIP3    H222827   1.282   1.644   6.729
  398TIP3   OH222828   1.560   0.665   7.901
  398TIP3    H122829   1.518   0.724   7.835
  398TIP3    H222830   1.557   0.584   7.847
  399TIP3   OH222831   0.320   1.339   7.710
  399TIP3    H122832   0.320   1.293   7.797
  399TIP3    H222833   0.243   1.293   7.668
  400TIP3   OH222834   0.609   0.236   7.314
  400TIP3    H122835   0.538   0.196   7.263
  400TIP3    H222836   0.559   0.279   7.386
  401TIP3   OH222837   1.072   0.071   7.683
  401TIP3    H122838   1.064   0.105   7.773
  401TIP3    H222839   0.989   0.097   7.641
  402TIP3   OH222840   1.308   0.533   7.750
  402TIP3    H122841   1.253   0.508   7.828
  402TIP3    H222842   1.335   0.625   7.770
  403TIP3   OH222843   0.566   0.637   7.437
  403TIP3    H122844   0.508   0.655   7.515
  403TIP3    H222845   0.574   0.728   7.399
  404TIP3   OH222846   0.538   0.688   6.908
  404TIP3    H122847   0.448   0.648   6.907
  404TIP3    H222848   0.573   0.664   6.819
  405TIP3   OH222849   1.068   0.748   6.739
  405TIP3    H122850   1.126   0.806   6.791
  405TIP3    H222851   1.134   0.696   6.688
  406TIP3   OH222852   1.024   0.757   7.935
  406TIP3    H122853   0.979   0.680   7.977
  406TIP3    H222854   1.110   0.754   7.980
  407TIP3   OH222855   1.190   0.703   7.111
  407TIP3    H122856   1.175   0.787   7.064
  407TIP3    H222857   1.194   0.635   7.042
  408TIP3   OH222858   0.306   0.648   7.558
  408TIP3    H122859   0.312   0.679   7.650
  408TIP3    H222860   0.282   0.554   7.568
  409TIP3   OH222861   0.049   0.344   6.949
  409TIP3    H122862   0.083   0.360   7.039
  409TIP3    H222863   0.128   0.316   6.900
  410TIP3   OH222864   0.069   0.552   6.576
  410TIP3    H122865   0.159   0.536   6.542
  410TIP3    H222866   0.035   0.598   6.496
  411TIP3   OH222867   1.133   0.817   7.513
  411TIP3    H122868   1.200   0.752   7.479
  411TIP3    H222869   1.087   0.761   7.580
  412TIP3   OH222870   0.846   0.429   7.021
  412TIP3    H122871   0.761   0.398   7.055
  412TIP3    H222872   0.910   0.390   7.085
  413TIP3   OH222873   0.312   0.559   6.899
  413TIP3    H122874   0.271   0.596   6.818
  413TIP3    H222875   0.346   0.472   6.867
  414TIP3   OH222876   0.654   0.576   6.697
  414TIP3    H122877   0.737   0.539   6.662
  414TIP3    H222878   0.590   0.568   6.624
  415TIP3   OH222879   1.284   0.300   7.378
  415TIP3    H122880   1.205   0.323   7.430
  415TIP3    H222881   1.256   0.315   7.287
  416TIP3   OH222882   1.605   1.885   8.030
  416TIP3    H122883   1.626   1.909   7.938
  416TIP3    H222884   1.685   1.916   8.077
  417TIP3   OH222885   0.329   1.153   7.927
  417TIP3    H122886   0.390   1.152   8.003
  417TIP3    H222887   0.244   1.132   7.971
  418TIP3   OH222888   0.922   0.728   7.175
  418TIP3    H122889   0.998   0.675   7.148
  418TIP3    H222890   0.874   0.663   7.228
  419TIP3   OH222891   0.416   0.304   6.840
  419TIP3    H122892   0.391   0.216   6.878
  419TIP3    H222893   0.444   0.281   6.750
  420TIP3   OH222894   0.813   0.521   7.411
  420TIP3    H122895   0.728   0.571   7.413
  420TIP3    H222896   0.861   0.561   7.485
  421TIP3   OH222897   1.604   1.110   7.522
  421TIP3    H122898   1.647   1.159   7.447
  421TIP3    H222899   1.540   1.054   7.476
  422TIP3   OH222900   0.994   1.157   7.719
  422TIP3    H122901   0.959   1.114   7.798
  422TIP3    H222902   0.980   1.251   7.741
  423TIP3   OH222903   1.268   0.660   6.596
  423TIP3    H122904   1.330   0.617   6.657
  423TIP3    H222905   1.325   0.672   6.518
  424TIP3   OH222906   0.363   1.100   7.162
  424TIP3    H122907   0.431   1.089   7.093
  424TIP3    H222908   0.376   1.024   7.222
  425TIP3   OH222909   1.003   1.238   6.581
  425TIP3    H122910   1.006   1.330   6.545
  425TIP3    H222911   1.008   1.258   6.678
  426TIP3   OH222912   0.127   0.888   7.679
  426TIP3    H122913   0.114   0.872   7.774
  426TIP3    H222914   0.051   0.843   7.638
  427TIP3   OH222915   0.777   0.867   7.899
  427TIP3    H122916   0.727   0.820   7.832
  427TIP3    H222917   0.862   0.817   7.898
  428TIP3   OH222918   1.276   1.401   7.765
  428TIP3    H122919   1.192   1.402   7.718
  428TIP3    H222920   1.249   1.441   7.850
  429TIP3   OH222921   1.718   0.667   6.633
  429TIP3    H122922   1.759   0.600   6.577
  429TIP3    H222923   1.785   0.737   6.642
  430TIP3   OH222924   1.840   1.211   7.855
  430TIP3    H122925   1.744   1.219   7.835
  430TIP3    H222926   1.879   1.199   7.766
  431TIP3   OH222927   1.628   1.495   6.612
  431TIP3    H122928   1.549   1.450   6.645
  431TIP3    H222929   1.692   1.422   6.608
  432TIP3   OH222930   1.345   1.005   7.259
  432TIP3    H122931   1.261   0.964   7.285
  432TIP3    H222932   1.411   0.945   7.300
  433TIP3   OH222933   0.569   1.421   6.955
  433TIP3    H122934   0.640   1.485   6.936
  433TIP3    H222935   0.495   1.462   6.908
  434TIP3   OH222936   0.751   1.237   6.870
  434TIP3    H122937   0.680   1.281   6.921
  434TIP3    H222938   0.729   1.143   6.879
  435TIP3   OH222939   0.825   1.600   7.574
  435TIP3    H122940   0.876   1.669   7.527
  435TIP3    H222941   0.893   1.571   7.637
  436TIP3   OH222942   0.648   1.654   6.830
  436TIP3    H122943   0.557   1.676   6.854
  436TIP3    H222944   0.691   1.736   6.864
  437TIP3   OH222945   1.139   1.204   7.488
  437TIP3    H122946   1.101   1.163   7.569
  437TIP3    H222947   1.190   1.130   7.450
  438TIP3   OH222948   1.448   1.652   7.726
  438TIP3    H122949   1.376   1.587   7.725
  438TIP3    H222950   1.440   1.688   7.636
  439TIP3   OH222951   1.859   1.792   6.475
  439TIP3    H122952   1.929   1.832   6.417
  439TIP3    H222953   1.788   1.856   6.468
  440TIP3   OH222954   0.225   0.381   7.652
  440TIP3    H122955   0.183   0.441   7.715
  440TIP3    H222956   0.182   0.298   7.678
  441TIP3   OH222957   1.498   1.164   6.702
  441TIP3    H122958   1.466   1.078   6.736
  441TIP3    H222959   1.541   1.138   6.619
  442TIP3   OH222960   0.230   1.564   7.501
  442TIP3    H122961   0.284   1.486   7.522
  442TIP3    H222962   0.164   1.561   7.571
  443TIP3   OH222963   0.794   1.456   6.273
  443TIP3    H122964   0.769   1.397   6.201
  443TIP3    H222965   0.730   1.435   6.345
  444TIP3   OH222966   0.653   1.362   6.499
  444TIP3    H122967   0.673   1.328   6.587
  444TIP3    H222968   0.663   1.459   6.523
  445TIP3   OH222969   1.143   0.362   7.599
  445TIP3    H122970   1.221   0.404   7.642
  445TIP3    H222971   1.149   0.270   7.629
  446TIP3   OH222972   0.989   1.504   6.592
  446TIP3    H122973   0.901   1.541   6.609
  446TIP3    H222974   1.022   1.559   6.519
  447TIP3   OH222975   0.916   0.477   6.740
  447TIP3    H122976   0.966   0.561   6.742
  447TIP3    H222977   0.886   0.470   6.833
  448TIP3   OH222978   1.025   0.636   7.679
  448TIP3    H122979   1.047   0.656   7.772
  448TIP3    H222980   1.053   0.542   7.670
  449TIP3   OH222981   1.031   0.185   6.890
  449TIP3    H122982   1.018   0.249   6.964
  449TIP3    H222983   1.070   0.243   6.823
  450TIP3   OH222984   0.693   1.611   6.570
  450TIP3    H122985   0.721   1.694   6.524
  450TIP3    H222986   0.671   1.647   6.658
  451TIP3   OH222987   1.542   0.357   7.779
  451TIP3    H122988   1.460   0.400   7.751
  451TIP3    H222989   1.580   0.326   7.693
  452TIP3   OH222990   1.457   0.727   7.146
  452TIP3    H122991   1.360   0.723   7.154
  452TIP3    H222992   1.485   0.755   7.237
  453TIP3   OH222993   0.462   1.393   6.306
  453TIP3    H122994   0.526   1.377   6.377
  453TIP3    H222995   0.430   1.306   6.280
  454TIP3   OH222996   1.543   1.652   7.320
  454TIP3    H122997   1.546   1.722   7.252
  454TIP3    H222998   1.598   1.697   7.387
  455TIP3   OH222999   0.315   0.118   7.236
  455TIP3    H123000   0.352   0.103   7.146
  455TIP3    H223001   0.350   0.041   7.283
  456TIP3   OH223002   0.189   1.517   6.826
  456TIP3    H123003   0.097   1.532   6.852
  456TIP3    H223004   0.201   1.583   6.756
  457TIP3   OH223005   0.156   1.724   7.925
  457TIP3    H123006   0.200   1.735   8.011
  457TIP3    H223007   0.088   1.658   7.947
  458TIP3   OH223008   0.632   1.629   8.137
  458TIP3    H123009   0.724   1.622   8.108
  458TIP3    H223010   0.588   1.581   8.064
  459TIP3   OH223011   1.033   1.576   6.316
  459TIP3    H123012   0.946   1.534   6.295
  459TIP3    H223013   1.078   1.577   6.232
  460TIP3   OH223014   1.207   1.519   8.000
  460TIP3    H123015   1.175   1.434   8.039
  460TIP3    H223016   1.295   1.525   8.043
  461TIP3   OH223017   1.463   1.528   6.289
  461TIP3    H123018   1.479   1.474   6.366
  461TIP3    H223019   1.550   1.567   6.275
  462TIP3   OH223020   0.105   1.102   8.083
  462TIP3    H123021   0.071   1.031   8.024
  462TIP3    H223022   0.040   1.172   8.059
  463TIP3   OH223023   0.773   1.128   7.954
  463TIP3    H123024   0.741   1.189   7.883
  463TIP3    H223025   0.764   1.036   7.917
  464TIP3   OH223026   1.348   1.134   7.771
  464TIP3    H123027   1.438   1.173   7.771
  464TIP3    H223028   1.299   1.216   7.750
  465TIP3   OH223029   0.256   0.817   7.987
  465TIP3    H123030   0.271   0.734   8.037
  465TIP3    H223031   0.258   0.885   8.057
  466TIP3   OH223032   0.576   0.725   7.694
  466TIP3    H123033   0.503   0.784   7.722
  466TIP3    H223034   0.637   0.792   7.653
  467TIP3   OH223035   1.129   1.047   8.068
  467TIP3    H123036   1.184   0.989   8.014
  467TIP3    H223037   1.082   0.986   8.128
  468TIP3   OH223038   0.710   0.527   7.827
  468TIP3    H123039   0.700   0.455   7.761
  468TIP3    H223040   0.693   0.604   7.771
  469TIP3   OH223041   0.709   0.367   7.604
  469TIP3    H123042   0.748   0.394   7.518
  469TIP3    H223043   0.613   0.374   7.585
  470TIP3   OH223044   0.770   0.909   7.605
  470TIP3    H123045   0.860   0.922   7.574
  470TIP3    H223046   0.727   0.988   7.565
  471TIP3   OH223047   1.252   0.653   8.114
  471TIP3    H123048   1.258   0.560   8.084
  471TIP3    H223049   1.347   0.676   8.118
  472TIP3   OH223050   1.410   0.984   7.980
  472TIP3    H123051   1.368   1.030   7.904
  472TIP3    H223052   1.498   0.968   7.942
  473TIP3   OH223053   0.463   0.610   8.050
  473TIP3    H123054   0.396   0.546   8.015
  473TIP3    H223055   0.515   0.632   7.971
  474TIP3   OH223056   0.767   0.113   7.633
  474TIP3    H123057   0.774   0.211   7.631
  474TIP3    H223058   0.672   0.104   7.610
  475TIP3   OH223059   0.902   0.534   8.027
  475TIP3    H123060   0.913   0.461   8.092
  475TIP3    H223061   0.823   0.503   7.979
  476TIP3   OH223062   1.154   0.441   7.952
  476TIP3    H123063   1.063   0.421   7.981
  476TIP3    H223064   1.205   0.388   8.016
  477TIP3   OH223065   1.358   0.361   8.124
  477TIP3    H123066   1.348   0.264   8.109
  477TIP3    H223067   1.322   0.372   8.216
  478TIP3   OH223068   0.299   0.399   8.010
  478TIP3    H123069   0.265   0.325   7.954
  478TIP3    H223070   0.275   0.366   8.101
  479TIP3   OH223071   0.747   0.009   7.881
  479TIP3    H123072   0.835   0.018   7.919
  479TIP3    H223073   0.760   0.050   7.792
  480TIP3   OH223074   0.797   0.258   8.032
  480TIP3    H123075   0.763   0.169   8.016
  480TIP3    H223076   0.739   0.288   8.107
  481TIP3   OH223077   0.728   1.856   6.455
  481TIP3    H123078   0.822   1.880   6.453
  481TIP3    H223079   0.690   1.930   6.406
  482TIP3   OH223080   0.155   1.197   6.445
  482TIP3    H123081   0.183   1.107   6.479
  482TIP3    H223082   0.209   1.202   6.367
  483TIP3   OH223083   7.359   1.976   6.943
  483TIP3    H123084   7.276   1.948   6.899
  483TIP3    H223085   7.398   1.887   6.956
  484TIP3   OH223086   0.100   1.682   7.063
  484TIP3    H123087   0.095   1.593   7.104
  484TIP3    H223088   0.152   1.728   7.132
  485TIP3   OH223089   1.841   1.674   7.352
  485TIP3    H123090   1.833   1.755   7.407
  485TIP3    H223091   1.803   1.704   7.268
  486TIP3   OH223092   1.782   1.707   7.666
  486TIP3    H123093   1.764   1.630   7.608
  486TIP3    H223094   1.813   1.663   7.747
  487TIP3   OH223095   1.658   1.279   8.145
  487TIP3    H123096   1.575   1.278   8.198
  487TIP3    H223097   1.697   1.363   8.179
  488TIP3   OH223098   1.770   1.111   6.604
  488TIP3    H123099   1.849   1.162   6.633
  488TIP3    H223100   1.748   1.065   6.686
  489TIP3   OH223101   1.810   0.937   6.900
  489TIP3    H123102   1.721   0.896   6.906
  489TIP3    H223103   1.838   0.937   6.993
  490TIP3   OH223104   1.749   1.218   7.330
  490TIP3    H123105   1.818   1.155   7.306
  490TIP3    H223106   1.778   1.297   7.282
  491TIP3   OH223107   1.640   1.481   7.578
  491TIP3    H123108   1.581   1.538   7.631
  491TIP3    H223109   1.600   1.487   7.490
  492TIP3   OH223110   1.576   0.807   6.920
  492TIP3    H123111   1.546   0.718   6.893
  492TIP3    H223112   1.553   0.799   7.016
  493TIP3   OH223113   0.011   1.000   7.318
  493TIP3    H123114   0.029   0.968   7.226
  493TIP3    H223115   0.098   1.039   7.338
  494TIP3   OH223116   1.695   0.972   7.889
  494TIP3    H123117   1.721   0.886   7.849
  494TIP3    H223118   1.766   1.031   7.857
  495TIP3   OH223119   1.818   0.736   7.940
  495TIP3    H123120   1.725   0.707   7.927
  495TIP3    H223121   1.868   0.651   7.943
  496TIP3   OH223122   1.526   0.249   6.298
  496TIP3    H123123   1.605   0.296   6.333
  496TIP3    H223124   1.465   0.322   6.286
  497TIP3   OH223125   1.530   0.529   6.822
  497TIP3    H123126   1.556   0.437   6.797
  497TIP3    H223127   1.569   0.576   6.745
  498TIP3   OH223128   1.651   0.540   7.310
  498TIP3    H123129   1.735   0.589   7.327
  498TIP3    H223130   1.587   0.606   7.341
  499TIP3   OH223131   1.686   0.673   7.633
  499TIP3    H123132   1.613   0.703   7.575
  499TIP3    H223133   1.751   0.742   7.609
  500TIP3   OH223134   0.067   0.520   7.996
  500TIP3    H123135   0.155   0.481   8.014
  500TIP3    H223136   0.010   0.440   8.011
  501TIP3   OH223137   1.895   0.090   8.114
  501TIP3    H123138   1.882   0.008   8.065
  501TIP3    H223139   1.867   0.157   8.048
  502TIP3   OH223140   1.625   0.272   6.764
  502TIP3    H123141   1.653   0.255   6.857
  502TIP3    H223142   1.563   0.198   6.751
  503TIP3   OH223143   0.153   0.365   7.251
  503TIP3    H123144   0.199   0.280   7.260
  503TIP3    H223145   0.227   0.427   7.268
  504TIP3   OH223146   0.031   0.741   7.398
  504TIP3    H123147   0.081   0.731   7.315
  504TIP3    H223148   0.015   0.838   7.394
  505TIP3   OH223149   1.819   0.260   7.909
  505TIP3    H123150   1.748   0.300   7.961
  505TIP3    H223151   1.768   0.196   7.854
  506TIP3   OH223152   1.755   0.308   6.415
  506TIP3    H123153   1.812   0.228   6.409
  506TIP3    H223154   1.817   0.367   6.462
  507TIP3   OH223155   0.095   0.292   6.686
  507TIP3    H123156   0.008   0.316   6.722
  507TIP3    H223157   0.122   0.379   6.651
  508TIP3   OH223158   1.464   1.811   6.903
  508TIP3    H123159   1.545   1.807   6.849
  508TIP3    H223160   1.499   1.839   6.991
  509TIP3   OH223161   7.354   0.123   7.561
  509TIP3    H123162   7.265   0.089   7.541
  509TIP3    H223163   7.352   0.201   7.504
  510TIP3   OH223164   0.266   1.451   8.019
  510TIP3    H123165   0.222   1.492   7.944
  510TIP3    H223166   0.195   1.447   8.084
  511TIP3   OH223167   0.560   1.613   7.609
  511TIP3    H123168   0.551   1.706   7.583
  511TIP3    H223169   0.659   1.605   7.614
  512TIP3   OH223170   0.936   1.690   7.888
  512TIP3    H123171   0.954   1.679   7.983
  512TIP3    H223172   1.022   1.726   7.859
  513TIP3   OH223173   1.157   1.851   7.816
  513TIP3    H123174   1.231   1.808   7.768
  513TIP3    H223175   1.200   1.888   7.895
  514TIP3   OH223176   1.706   0.081   7.740
  514TIP3    H123177   1.633   0.116   7.685
  514TIP3    H223178   1.731  -0.002   7.696
  515TIP3   OH223179   0.299   1.909   7.594
  515TIP3    H123180   0.215   1.933   7.551
  515TIP3    H223181   0.267   1.881   7.681
  516TIP3   OH223182   0.543   1.861   7.492
  516TIP3    H123183   0.445   1.861   7.511
  516TIP3    H223184   0.552   1.927   7.420
  517TIP3   OH223185   0.964   1.802   7.442
  517TIP3    H123186   0.913   1.850   7.374
  517TIP3    H223187   0.987   1.877   7.502
  518TIP3   OH223188   1.172   1.681   7.561
  518TIP3    H123189   1.090   1.719   7.521
  518TIP3    H223190   1.237   1.745   7.522
  519TIP3   OH223191   1.346   1.878   7.506
  519TIP3    H123192   1.368   1.942   7.574
  519TIP3    H223193   1.433   1.877   7.459
  520TIP3   OH223194   0.249   1.761   7.303
  520TIP3    H123195   0.226   1.696   7.373
  520TIP3    H223196   0.336   1.724   7.276
  521TIP3   OH223197   0.457   1.636   7.170
  521TIP3    H123198   0.435   1.545   7.196
  521TIP3    H223199   0.544   1.646   7.216
  522TIP3   OH223200   0.681   1.640   7.310
  522TIP3    H123201   0.698   1.544   7.300
  522TIP3    H223202   0.705   1.652   7.403
  523TIP3   OH223203   1.038   0.308   7.162
  523TIP3    H123204   0.983   0.234   7.193
  523TIP3    H223205   1.122   0.263   7.144
  524TIP3   OH223206   1.555   0.006   7.117
  524TIP3    H123207   1.629   0.064   7.091
  524TIP3    H223208   1.488   0.068   7.144
  525TIP3   OH223209   1.713   0.198   7.006
  525TIP3    H123210   1.789   0.136   7.014
  525TIP3    H223211   1.764   0.282   7.012
  526TIP3   OH223212   0.347   0.082   6.960
  526TIP3    H123213   0.250   0.070   6.964
  526TIP3    H223214   0.374  -0.005   6.998
  527TIP3   OH223215   0.761   0.139   6.931
  527TIP3    H123216   0.855   0.148   6.905
  527TIP3    H223217   0.773   0.128   7.026
  528TIP3   OH223218   1.229   0.109   7.089
  528TIP3    H123219   1.235   0.149   7.000
  528TIP3    H223220   1.230   0.014   7.067
  529TIP3   OH223221   1.416   0.083   6.669
  529TIP3    H123222   1.349   0.127   6.615
  529TIP3    H223223   1.385  -0.008   6.675
  530TIP3   OH223224   0.068   1.812   6.733
  530TIP3    H123225   0.002   1.793   6.663
  530TIP3    H223226   0.097   1.898   6.700
  531TIP3   OH223227   0.821   0.212   6.631
  531TIP3    H123228   0.788   0.195   6.720
  531TIP3    H223229   0.881   0.288   6.646
  532TIP3   OH223230   1.017   1.835   6.434
  532TIP3    H123231   1.110   1.848   6.410
  532TIP3    H223232   0.998   1.754   6.382
  533TIP3   OH223233   1.679   1.739   6.738
  533TIP3    H123234   1.668   1.655   6.687
  533TIP3    H223235   1.694   1.798   6.661
  534TIP3   OH223236   0.230   0.170   7.901
  534TIP3    H123237   0.181   0.087   7.898
  534TIP3    H223238   0.306   0.151   7.961
  535TIP3   OH223239   0.456   0.107   8.085
  535TIP3    H123240   0.523   0.145   8.025
  535TIP3    H223241   0.504   0.035   8.130
  536TIP3   OH223242   0.353   1.858   6.342
  536TIP3    H123243   0.260   1.831   6.351
  536TIP3    H223244   0.382   1.825   6.257
  537TIP3   OH223245   1.311   0.098   8.064
  537TIP3    H123246   1.287   0.015   8.110
  537TIP3    H223247   1.351   0.065   7.983
  538TIP3   OH223248   1.629   1.628   7.938
  538TIP3    H123249   1.574   1.635   7.857
  538TIP3    H223250   1.626   1.719   7.974
  539TIP3   OH223251   3.074   0.993   6.948
  539TIP3    H123252   3.072   1.090   6.941
  539TIP3    H223253   3.055   0.969   6.855
  540TIP3   OH223254   2.972   0.893   7.285
  540TIP3    H123255   2.967   0.860   7.377
  540TIP3    H223256   2.901   0.844   7.240
  541TIP3   OH223257   2.168   0.901   7.416
  541TIP3    H123258   2.174   0.822   7.472
  541TIP3    H223259   2.217   0.965   7.471
  542TIP3   OH223260   3.276   1.224   7.143
  542TIP3    H123261   3.257   1.145   7.195
  542TIP3    H223262   3.306   1.285   7.214
  543TIP3   OH223263   2.286   1.358   7.244
  543TIP3    H123264   2.255   1.265   7.240
  543TIP3    H223265   2.381   1.340   7.237
  544TIP3   OH223266   1.953   0.695   6.815
  544TIP3    H123267   1.930   0.785   6.845
  544TIP3    H223268   1.871   0.648   6.834
  545TIP3   OH223269   2.015   0.935   7.081
  545TIP3    H123270   2.048   0.843   7.093
  545TIP3    H223271   2.063   0.967   7.003
  546TIP3   OH223272   3.030   1.756   7.109
  546TIP3    H123273   3.100   1.708   7.062
  546TIP3    H223274   3.016   1.689   7.178
  547TIP3   OH223275   2.760   1.166   7.380
  547TIP3    H123276   2.779   1.144   7.288
  547TIP3    H223277   2.848   1.199   7.410
  548TIP3   OH223278   3.624   0.303   7.364
  548TIP3    H123279   3.654   0.367   7.432
  548TIP3    H223280   3.676   0.332   7.287
  549TIP3   OH223281   3.133   0.637   7.389
  549TIP3    H123282   3.149   0.542   7.407
  549TIP3    H223283   3.124   0.638   7.291
  550TIP3   OH223284   2.423   0.425   7.070
  550TIP3    H123285   2.454   0.496   7.011
  550TIP3    H223286   2.377   0.368   7.004
  551TIP3   OH223287   3.171   0.419   6.961
  551TIP3    H123288   3.241   0.409   7.029
  551TIP3    H223289   3.224   0.470   6.897
  552TIP3   OH223290   2.055   0.672   7.135
  552TIP3    H123291   2.125   0.650   7.198
  552TIP3    H223292   2.094   0.631   7.054
  553TIP3   OH223293   2.571   0.834   7.104
  553TIP3    H123294   2.665   0.809   7.118
  553TIP3    H223295   2.549   0.764   7.041
  554TIP3   OH223296   3.656   0.446   7.606
  554TIP3    H123297   3.606   0.528   7.583
  554TIP3    H223298   3.687   0.468   7.695
  555TIP3   OH223299   2.338   0.331   7.502
  555TIP3    H123300   2.304   0.373   7.420
  555TIP3    H223301   2.256   0.338   7.557
  556TIP3   OH223302   3.030   1.260   6.854
  556TIP3    H123303   3.084   1.319   6.800
  556TIP3    H223304   2.987   1.329   6.909
  557TIP3   OH223305   2.522   1.085   7.452
  557TIP3    H123306   2.467   1.160   7.484
  557TIP3    H223307   2.607   1.129   7.428
  558TIP3   OH223308   3.371   0.472   7.123
  558TIP3    H123309   3.424   0.398   7.154
  558TIP3    H223310   3.419   0.545   7.167
  559TIP3   OH223311   2.278   0.501   7.280
  559TIP3    H123312   2.340   0.566   7.318
  559TIP3    H223313   2.330   0.466   7.203
  560TIP3   OH223314   2.405   1.295   7.562
  560TIP3    H123315   2.390   1.368   7.500
  560TIP3    H223316   2.320   1.295   7.613
  561TIP3   OH223317   1.999   1.262   6.648
  561TIP3    H123318   2.087   1.264   6.603
  561TIP3    H223319   2.013   1.326   6.722
  562TIP3   OH223320   3.371   1.411   7.329
  562TIP3    H123321   3.276   1.432   7.346
  562TIP3    H223322   3.395   1.498   7.292
  563TIP3   OH223323   3.382   0.307   7.524
  563TIP3    H123324   3.309   0.332   7.464
  563TIP3    H223325   3.458   0.303   7.462
  564TIP3   OH223326   2.733   0.116   7.214
  564TIP3    H123327   2.756   0.050   7.281
  564TIP3    H223328   2.651   0.155   7.253
  565TIP3   OH223329   3.203   1.581   7.011
  565TIP3    H123330   3.231   1.503   6.959
  565TIP3    H223331   3.281   1.641   6.995
  566TIP3   OH223332   3.300   1.374   6.860
  566TIP3    H123333   3.339   1.314   6.796
  566TIP3    H223334   3.285   1.316   6.937
  567TIP3   OH223335   3.466   1.249   7.712
  567TIP3    H123336   3.485   1.172   7.654
  567TIP3    H223337   3.485   1.322   7.649
  568TIP3   OH223338   2.965   0.947   6.692
  568TIP3    H123339   2.972   1.043   6.684
  568TIP3    H223340   3.036   0.924   6.626
  569TIP3   OH223341   3.666   0.886   7.498
  569TIP3    H123342   3.603   0.961   7.497
  569TIP3    H223343   3.734   0.921   7.436
  570TIP3   OH223344   3.264   0.798   7.697
  570TIP3    H123345   3.263   0.892   7.720
  570TIP3    H223346   3.193   0.797   7.632
  571TIP3   OH223347   2.439   1.016   6.969
  571TIP3    H123348   2.383   0.967   6.904
  571TIP3    H223349   2.494   0.946   7.010
  572TIP3   OH223350   2.573   1.339   7.237
  572TIP3    H123351   2.591   1.325   7.143
  572TIP3    H223352   2.640   1.285   7.283
  573TIP3   OH223353   2.448   0.866   7.341
  573TIP3    H123354   2.489   0.872   7.252
  573TIP3    H223355   2.474   0.952   7.381
  574TIP3   OH223356   3.122   1.460   7.411
  574TIP3    H123357   3.076   1.530   7.462
  574TIP3    H223358   3.089   1.381   7.456
  575TIP3   OH223359   2.561   1.315   7.780
  575TIP3    H123360   2.489   1.368   7.821
  575TIP3    H223361   2.519   1.297   7.692
  576TIP3   OH223362   2.247   0.947   7.680
  576TIP3    H123363   2.268   1.016   7.744
  576TIP3    H223364   2.168   0.912   7.726
  577TIP3   OH223365   2.948   1.499   6.946
  577TIP3    H123366   3.022   1.560   6.966
  577TIP3    H223367   2.886   1.555   6.897
  578TIP3   OH223368   2.392   1.495   7.890
  578TIP3    H123369   2.374   1.536   7.802
  578TIP3    H223370   2.299   1.471   7.914
  579TIP3   OH223371   2.266   0.917   6.781
  579TIP3    H123372   2.260   0.983   6.710
  579TIP3    H223373   2.235   0.838   6.736
  580TIP3   OH223374   3.653   1.504   6.391
  580TIP3    H123375   3.686   1.597   6.398
  580TIP3    H223376   3.736   1.454   6.375
  581TIP3   OH223377   1.972   1.164   7.634
  581TIP3    H123378   1.913   1.153   7.557
  581TIP3    H223379   2.006   1.072   7.641
  582TIP3   OH223380   1.930   1.431   7.275
  582TIP3    H123381   2.006   1.399   7.326
  582TIP3    H223382   1.907   1.511   7.326
  583TIP3   OH223383   3.728   1.511   7.870
  583TIP3    H123384   3.710   1.416   7.860
  583TIP3    H223385   3.646   1.540   7.916
  584TIP3   OH223386   2.827   1.429   7.774
  584TIP3    H123387   2.838   1.498   7.841
  584TIP3    H223388   2.732   1.405   7.779
  585TIP3   OH223389   2.895   1.830   6.697
  585TIP3    H123390   2.895   1.848   6.602
  585TIP3    H223391   2.890   1.920   6.735
  586TIP3   OH223392   2.249   1.684   6.919
  586TIP3    H123393   2.272   1.665   7.012
  586TIP3    H223394   2.155   1.660   6.912
  587TIP3   OH223395   3.149   1.736   6.732
  587TIP3    H123396   3.051   1.742   6.718
  587TIP3    H223397   3.159   1.669   6.801
  588TIP3   OH223398   3.438   0.657   7.902
  588TIP3    H123399   3.391   0.696   7.826
  588TIP3    H223400   3.429   0.561   7.884
  589TIP3   OH223401   2.193   1.305   7.724
  589TIP3    H123402   2.193   1.261   7.811
  589TIP3    H223403   2.105   1.280   7.689
  590TIP3   OH223404   2.505   0.210   7.318
  590TIP3    H123405   2.438   0.181   7.255
  590TIP3    H223406   2.454   0.227   7.399
  591TIP3   OH223407   2.969   0.098   7.675
  591TIP3    H123408   2.960   0.084   7.771
  591TIP3    H223409   2.880   0.125   7.646
  592TIP3   OH223410   3.184   0.541   7.732
  592TIP3    H123411   3.129   0.520   7.812
  592TIP3    H223412   3.197   0.637   7.737
  593TIP3   OH223413   2.459   0.628   7.449
  593TIP3    H123414   2.376   0.625   7.499
  593TIP3    H223415   2.453   0.719   7.410
  594TIP3   OH223416   2.449   0.648   6.911
  594TIP3    H123417   2.354   0.623   6.910
  594TIP3    H223418   2.476   0.637   6.817
  595TIP3   OH223419   2.983   0.673   6.729
  595TIP3    H123420   2.968   0.770   6.732
  595TIP3    H223421   3.068   0.669   6.684
  596TIP3   OH223422   2.909   0.752   7.936
  596TIP3    H123423   2.855   0.680   7.974
  596TIP3    H223424   2.992   0.742   7.988
  597TIP3   OH223425   3.117   0.702   7.108
  597TIP3    H123426   3.098   0.784   7.058
  597TIP3    H223427   3.088   0.635   7.043
  598TIP3   OH223428   2.178   0.644   7.574
  598TIP3    H123429   2.225   0.682   7.649
  598TIP3    H223430   2.160   0.552   7.602
  599TIP3   OH223431   1.913   0.370   6.991
  599TIP3    H123432   1.970   0.370   7.072
  599TIP3    H223433   1.971   0.331   6.923
  600TIP3   OH223434   1.974   0.444   6.535
  600TIP3    H123435   2.018   0.373   6.481
  600TIP3    H223436   2.052   0.500   6.549
  601TIP3   OH223437   3.014   0.820   7.533
  601TIP3    H123438   3.064   0.750   7.484
  601TIP3    H223439   2.956   0.766   7.592
  602TIP3   OH223440   2.735   0.411   7.018
  602TIP3    H123441   2.652   0.370   7.047
  602TIP3    H223442   2.797   0.384   7.089
  603TIP3   OH223443   2.185   0.563   6.920
  603TIP3    H123444   2.111   0.581   6.858
  603TIP3    H223445   2.210   0.468   6.904
  604TIP3   OH223446   2.509   0.575   6.653
  604TIP3    H123447   2.602   0.559   6.681
  604TIP3    H223448   2.514   0.626   6.570
  605TIP3   OH223449   3.144   0.321   7.343
  605TIP3    H123450   3.062   0.341   7.392
  605TIP3    H223451   3.112   0.306   7.252
  606TIP3   OH223452   3.409   1.881   8.005
  606TIP3    H123453   3.486   1.918   7.960
  606TIP3    H223454   3.414   1.913   8.099
  607TIP3   OH223455   2.232   1.114   7.942
  607TIP3    H123456   2.289   1.126   8.022
  607TIP3    H223457   2.143   1.112   7.983
  608TIP3   OH223458   2.794   0.710   7.164
  608TIP3    H123459   2.875   0.662   7.142
  608TIP3    H223460   2.749   0.647   7.223
  609TIP3   OH223461   2.281   0.323   6.884
  609TIP3    H123462   2.242   0.234   6.896
  609TIP3    H223463   2.311   0.312   6.791
  610TIP3   OH223464   2.719   0.520   7.421
  610TIP3    H123465   2.635   0.568   7.438
  610TIP3    H223466   2.776   0.555   7.492
  611TIP3   OH223467   2.723   1.109   6.642
  611TIP3    H123468   2.651   1.073   6.695
  611TIP3    H223469   2.767   1.162   6.710
  612TIP3   OH223470   3.501   1.098   7.499
  612TIP3    H123471   3.549   1.162   7.441
  612TIP3    H223472   3.423   1.077   7.443
  613TIP3   OH223473   3.142   0.508   6.395
  613TIP3    H123474   3.137   0.411   6.389
  613TIP3    H223475   3.189   0.517   6.479
  614TIP3   OH223476   2.865   1.163   7.733
  614TIP3    H123477   2.845   1.151   7.827
  614TIP3    H223478   2.845   1.258   7.724
  615TIP3   OH223479   2.288   1.086   7.227
  615TIP3    H123480   2.353   1.061   7.160
  615TIP3    H223481   2.265   1.001   7.269
  616TIP3   OH223482   1.969   0.915   7.764
  616TIP3    H123483   1.947   0.851   7.834
  616TIP3    H223484   1.910   0.887   7.691
  617TIP3   OH223485   2.647   0.868   7.906
  617TIP3    H123486   2.592   0.814   7.847
  617TIP3    H223487   2.734   0.823   7.896
  618TIP3   OH223488   3.148   1.397   7.767
  618TIP3    H123489   3.070   1.420   7.715
  618TIP3    H223490   3.124   1.442   7.851
  619TIP3   OH223491   3.677   0.658   6.609
  619TIP3    H123492   3.606   0.606   6.570
  619TIP3    H223493   3.658   0.750   6.581
  620TIP3   OH223494   3.720   1.226   7.831
  620TIP3    H123495   3.633   1.237   7.787
  620TIP3    H223496   3.778   1.218   7.753
  621TIP3   OH223497   3.536   1.483   6.624
  621TIP3    H123498   3.473   1.414   6.599
  621TIP3    H223499   3.583   1.499   6.540
  622TIP3   OH223500   3.281   0.995   7.331
  622TIP3    H123501   3.192   0.953   7.333
  622TIP3    H223502   3.328   0.932   7.271
  623TIP3   OH223503   2.489   1.439   6.949
  623TIP3    H123504   2.509   1.529   6.916
  623TIP3    H223505   2.397   1.429   6.920
  624TIP3   OH223506   2.641   1.217   6.895
  624TIP3    H123507   2.585   1.297   6.910
  624TIP3    H223508   2.582   1.146   6.924
  625TIP3   OH223509   2.688   1.610   7.577
  625TIP3    H123510   2.747   1.675   7.535
  625TIP3    H223511   2.748   1.576   7.647
  626TIP3   OH223512   2.497   1.707   6.834
  626TIP3    H123513   2.404   1.698   6.862
  626TIP3    H223514   2.516   1.795   6.870
  627TIP3   OH223515   3.000   1.212   7.497
  627TIP3    H123516   2.967   1.178   7.584
  627TIP3    H223517   3.037   1.130   7.459
  628TIP3   OH223518   3.262   1.317   6.479
  628TIP3    H123519   3.241   1.225   6.499
  628TIP3    H223520   3.219   1.324   6.393
  629TIP3   OH223521   3.317   1.670   7.754
  629TIP3    H123522   3.239   1.617   7.730
  629TIP3    H223523   3.329   1.726   7.673
  630TIP3   OH223524   3.714   1.756   6.446
  630TIP3    H123525   3.780   1.815   6.405
  630TIP3    H223526   3.663   1.823   6.495
  631TIP3   OH223527   2.109   0.360   7.645
  631TIP3    H123528   2.023   0.405   7.650
  631TIP3    H223529   2.097   0.289   7.712
  632TIP3   OH223530   2.086   1.531   7.529
  632TIP3    H123531   2.169   1.485   7.548
  632TIP3    H223532   2.098   1.616   7.573
  633TIP3   OH223533   3.008   0.373   7.591
  633TIP3    H123534   3.084   0.407   7.642
  633TIP3    H223535   3.009   0.278   7.613
  634TIP3   OH223536   3.080   0.329   6.722
  634TIP3    H123537   3.145   0.298   6.656
  634TIP3    H223538   3.131   0.349   6.802
  635TIP3   OH223539   2.751   0.521   6.765
  635TIP3    H123540   2.843   0.556   6.767
  635TIP3    H223541   2.743   0.478   6.854
  636TIP3   OH223542   2.893   0.636   7.681
  636TIP3    H123543   2.908   0.660   7.776
  636TIP3    H223544   2.926   0.544   7.675
  637TIP3   OH223545   2.873   0.227   6.855
  637TIP3    H123546   2.864   0.296   6.923
  637TIP3    H223547   2.945   0.265   6.801
  638TIP3   OH223548   2.569   1.703   6.569
  638TIP3    H123549   2.664   1.700   6.580
  638TIP3    H223550   2.536   1.713   6.660
  639TIP3   OH223551   2.391   0.322   6.647
  639TIP3    H123552   2.428   0.412   6.644
  639TIP3    H223553   2.459   0.265   6.606
  640TIP3   OH223554   3.426   0.415   7.783
  640TIP3    H123555   3.339   0.450   7.756
  640TIP3    H223556   3.457   0.376   7.699
  641TIP3   OH223557   3.359   0.785   7.185
  641TIP3    H123558   3.276   0.734   7.171
  641TIP3    H223559   3.420   0.723   7.230
  642TIP3   OH223560   3.422   1.690   7.321
  642TIP3    H123561   3.432   1.759   7.251
  642TIP3    H223562   3.515   1.684   7.350
  643TIP3   OH223563   2.190   0.110   7.279
  643TIP3    H123564   2.210   0.081   7.188
  643TIP3    H223565   2.232   0.039   7.329
  644TIP3   OH223566   2.054   1.478   6.827
  644TIP3    H123567   1.975   1.530   6.842
  644TIP3    H223568   2.088   1.531   6.751
  645TIP3   OH223569   1.979   1.782   7.974
  645TIP3    H123570   2.048   1.773   8.044
  645TIP3    H223571   1.947   1.691   7.972
  646TIP3   OH223572   2.494   1.635   8.127
  646TIP3    H123573   2.583   1.598   8.131
  646TIP3    H223574   2.462   1.590   8.047
  647TIP3   OH223575   3.090   1.516   8.009
  647TIP3    H123576   3.073   1.429   8.053
  647TIP3    H223577   3.181   1.533   8.045
  648TIP3   OH223578   1.979   1.133   8.070
  648TIP3    H123579   1.929   1.051   8.087
  648TIP3    H223580   1.933   1.167   7.989
  649TIP3   OH223581   2.470   1.196   6.275
  649TIP3    H123582   2.403   1.198   6.347
  649TIP3    H223583   2.419   1.246   6.208
  650TIP3   OH223584   2.646   1.131   7.960
  650TIP3    H123585   2.622   1.194   7.888
  650TIP3    H223586   2.646   1.044   7.914
  651TIP3   OH223587   3.219   1.139   7.763
  651TIP3    H123588   3.302   1.192   7.757
  651TIP3    H223589   3.158   1.215   7.765
  652TIP3   OH223590   2.124   0.835   8.011
  652TIP3    H123591   2.205   0.785   8.026
  652TIP3    H223592   2.138   0.909   8.074
  653TIP3   OH223593   2.440   0.759   7.700
  653TIP3    H123594   2.387   0.841   7.698
  653TIP3    H223595   2.512   0.786   7.639
  654TIP3   OH223596   3.016   1.049   8.070
  654TIP3    H123597   3.060   0.991   8.006
  654TIP3    H223598   2.979   0.987   8.135
  655TIP3   OH223599   2.575   0.548   7.808
  655TIP3    H123600   2.571   0.474   7.743
  655TIP3    H223601   2.557   0.626   7.751
  656TIP3   OH223602   2.600   0.353   7.605
  656TIP3    H123603   2.641   0.376   7.520
  656TIP3    H223604   2.505   0.366   7.583
  657TIP3   OH223605   2.681   0.893   7.597
  657TIP3    H123606   2.773   0.917   7.579
  657TIP3    H223607   2.635   0.972   7.563
  658TIP3   OH223608   3.104   0.683   8.127
  658TIP3    H123609   3.123   0.589   8.143
  658TIP3    H223610   3.193   0.721   8.130
  659TIP3   OH223611   3.299   0.977   7.961
  659TIP3    H123612   3.260   1.035   7.892
  659TIP3    H223613   3.392   0.970   7.929
  660TIP3   OH223614   2.390   0.594   8.037
  660TIP3    H123615   2.316   0.549   7.991
  660TIP3    H223616   2.457   0.599   7.966
  661TIP3   OH223617   2.648   0.090   7.632
  661TIP3    H123618   2.637   0.188   7.632
  661TIP3    H223619   2.561   0.063   7.595
  662TIP3   OH223620   2.757   0.535   8.018
  662TIP3    H123621   2.700   0.518   8.095
  662TIP3    H223622   2.693   0.515   7.945
  663TIP3   OH223623   3.031   0.440   7.933
  663TIP3    H123624   2.937   0.445   7.961
  663TIP3    H223625   3.069   0.382   8.001
  664TIP3   OH223626   3.264   0.368   8.116
  664TIP3    H123627   3.248   0.274   8.091
  664TIP3    H223628   3.224   0.372   8.206
  665TIP3   OH223629   2.174   0.406   8.003
  665TIP3    H123630   2.151   0.320   7.963
  665TIP3    H223631   2.174   0.382   8.099
  666TIP3   OH223632   2.643   7.377   7.913
  666TIP3    H123633   2.640   7.281   7.914
  666TIP3    H223634   2.643   7.398   7.817
  667TIP3   OH223635   2.602   0.138   8.163
  667TIP3    H123636   2.632   0.127   8.070
  667TIP3    H223637   2.573   0.231   8.167
  668TIP3   OH223638   1.877   1.840   6.892
  668TIP3    H123639   1.821   1.783   6.835
  668TIP3    H223640   1.893   1.784   6.971
  669TIP3   OH223641   1.949   1.663   7.090
  669TIP3    H123642   1.919   1.577   7.126
  669TIP3    H223643   2.003   1.697   7.165
  670TIP3   OH223644   3.698   1.761   7.343
  670TIP3    H123645   3.735   1.775   7.433
  670TIP3    H223646   3.772   1.786   7.286
  671TIP3   OH223647   3.653   1.698   7.646
  671TIP3    H123648   3.621   1.619   7.597
  671TIP3    H223649   3.679   1.657   7.730
  672TIP3   OH223650   3.546   1.276   8.144
  672TIP3    H123651   3.459   1.292   8.186
  672TIP3    H223652   3.590   1.363   8.164
  673TIP3   OH223653   3.651   1.100   6.625
  673TIP3    H123654   3.734   1.146   6.653
  673TIP3    H223655   3.626   1.061   6.711
  674TIP3   OH223656   3.668   0.951   6.870
  674TIP3    H123657   3.590   0.898   6.899
  674TIP3    H223658   3.726   0.946   6.949
  675TIP3   OH223659   3.652   1.198   7.313
  675TIP3    H123660   3.721   1.130   7.310
  675TIP3    H223661   3.695   1.275   7.271
  676TIP3   OH223662   3.523   1.482   7.566
  676TIP3    H123663   3.443   1.513   7.611
  676TIP3    H223664   3.486   1.456   7.478
  677TIP3   OH223665   3.662   0.907   6.437
  677TIP3    H123666   3.627   0.968   6.368
  677TIP3    H223667   3.670   0.972   6.511
  678TIP3   OH223668   3.482   0.617   6.355
  678TIP3    H123669   3.577   0.625   6.368
  678TIP3    H223670   3.471   0.527   6.323
  679TIP3   OH223671   3.472   0.790   6.947
  679TIP3    H123672   3.387   0.770   6.906
  679TIP3    H223673   3.444   0.800   7.041
  680TIP3   OH223674   1.940   1.002   7.329
  680TIP3    H123675   1.955   0.979   7.235
  680TIP3    H223676   2.031   0.983   7.364
  681TIP3   OH223677   3.580   0.975   7.879
  681TIP3    H123678   3.628   0.888   7.873
  681TIP3    H223679   3.649   1.037   7.850
  682TIP3   OH223680   3.690   0.735   7.922
  682TIP3    H123681   3.596   0.707   7.915
  682TIP3    H223682   3.734   0.647   7.913
  683TIP3   OH223683   3.414   0.548   6.714
  683TIP3    H123684   3.427   0.458   6.746
  683TIP3    H223685   3.502   0.585   6.727
  684TIP3   OH223686   3.523   0.589   7.312
  684TIP3    H123687   3.619   0.614   7.315
  684TIP3    H223688   3.505   0.586   7.408
  685TIP3   OH223689   3.504   0.673   7.565
  685TIP3    H123690   3.412   0.705   7.575
  685TIP3    H223691   3.552   0.757   7.546
  686TIP3   OH223692   1.937   0.498   7.929
  686TIP3    H123693   2.031   0.483   7.953
  686TIP3    H223694   1.903   0.406   7.930
  687TIP3   OH223695   3.791   0.069   8.116
  687TIP3    H123696   3.778  -0.006   8.054
  687TIP3    H223697   3.757   0.142   8.058
  688TIP3   OH223698   3.423   0.277   6.814
  688TIP3    H123699   3.495   0.253   6.877
  688TIP3    H223700   3.432   0.208   6.748
  689TIP3   OH223701   2.038   0.346   7.227
  689TIP3    H123702   2.078   0.267   7.267
  689TIP3    H223703   2.108   0.412   7.237
  690TIP3   OH223704   1.885   0.657   7.353
  690TIP3    H123705   1.941   0.628   7.278
  690TIP3    H223706   1.908   0.751   7.357
  691TIP3   OH223707   3.705   0.251   7.943
  691TIP3    H123708   3.650   0.307   8.003
  691TIP3    H223709   3.639   0.231   7.874
  692TIP3   OH223710   1.949   0.247   6.730
  692TIP3    H123711   1.860   0.210   6.728
  692TIP3    H223712   1.936   0.325   6.673
  693TIP3   OH223713   3.380   1.756   6.934
  693TIP3    H123714   3.450   1.748   6.867
  693TIP3    H223715   3.417   1.816   7.002
  694TIP3   OH223716   1.935   0.116   7.536
  694TIP3    H123717   1.908   0.161   7.617
  694TIP3    H223718   1.877   0.162   7.471
  695TIP3   OH223719   2.130   1.445   7.965
  695TIP3    H123720   2.050   1.470   7.917
  695TIP3    H223721   2.094   1.400   8.042
  696TIP3   OH223722   2.408   1.589   7.620
  696TIP3    H123723   2.410   1.684   7.596
  696TIP3    H223724   2.503   1.566   7.614
  697TIP3   OH223725   2.826   1.702   7.866
  697TIP3    H123726   2.838   1.686   7.962
  697TIP3    H223727   2.916   1.733   7.841
  698TIP3   OH223728   3.056   1.838   7.810
  698TIP3    H123729   3.142   1.796   7.801
  698TIP3    H223730   3.069   1.882   7.897
  699TIP3   OH223731   3.594   0.109   7.714
  699TIP3    H123732   3.520   0.141   7.660
  699TIP3    H223733   3.603   0.016   7.686
  700TIP3   OH223734   2.164   1.901   7.596
  700TIP3    H123735   2.087   1.952   7.563
  700TIP3    H223736   2.153   1.921   7.690
  701TIP3   OH223737   2.406   1.848   7.503
  701TIP3    H123738   2.311   1.864   7.527
  701TIP3    H223739   2.417   1.908   7.428
  702TIP3   OH223740   2.850   1.801   7.448
  702TIP3    H123741   2.812   1.829   7.364
  702TIP3    H223742   2.887   1.885   7.483
  703TIP3   OH223743   3.068   1.674   7.557
  703TIP3    H123744   3.000   1.727   7.511
  703TIP3    H223745   3.147   1.730   7.539
  704TIP3   OH223746   3.338   1.840   7.536
  704TIP3    H123747   3.345   1.936   7.521
  704TIP3    H223748   3.359   1.807   7.445
  705TIP3   OH223749   2.133   1.757   7.309
  705TIP3    H123750   2.089   1.691   7.365
  705TIP3    H223751   2.215   1.711   7.280
  706TIP3   OH223752   2.337   1.641   7.181
  706TIP3    H123753   2.327   1.546   7.199
  706TIP3    H223754   2.424   1.659   7.224
  707TIP3   OH223755   2.576   1.650   7.305
  707TIP3    H123756   2.603   1.557   7.294
  707TIP3    H223757   2.580   1.659   7.402
  708TIP3   OH223758   2.934   0.312   7.168
  708TIP3    H123759   2.888   0.231   7.194
  708TIP3    H223760   3.003   0.275   7.109
  709TIP3   OH223761   3.408   0.022   7.115
  709TIP3    H123762   3.462   0.087   7.068
  709TIP3    H223763   3.340   0.075   7.157
  710TIP3   OH223764   3.603   0.176   6.987
  710TIP3    H123765   3.659   0.105   7.024
  710TIP3    H223766   3.662   0.254   7.001
  711TIP3   OH223767   2.168   0.101   6.946
  711TIP3    H123768   2.081   0.062   6.931
  711TIP3    H223769   2.218   0.026   6.982
  712TIP3   OH223770   2.000   0.164   6.476
  712TIP3    H123771   2.074   0.152   6.415
  712TIP3    H223772   2.046   0.143   6.559
  713TIP3   OH223773   2.658   0.094   6.959
  713TIP3    H123774   2.735   0.134   6.913
  713TIP3    H223775   2.695   0.086   7.049
  714TIP3   OH223776   3.115   0.146   7.048
  714TIP3    H123777   3.116   0.153   6.951
  714TIP3    H223778   3.117   0.049   7.057
  715TIP3   OH223779   2.031   1.662   6.635
  715TIP3    H123780   1.970   1.634   6.564
  715TIP3    H223781   2.066   1.739   6.588
  716TIP3   OH223782   2.168   0.366   6.351
  716TIP3    H123783   2.220   0.378   6.270
  716TIP3    H223784   2.224   0.301   6.399
  717TIP3   OH223785   2.710   0.239   6.621
  717TIP3    H123786   2.739   0.218   6.711
  717TIP3    H223787   2.728   0.334   6.618
  718TIP3   OH223788   3.566   1.719   6.741
  718TIP3    H123789   3.564   1.625   6.709
  718TIP3    H223790   3.538   1.766   6.662
  719TIP3   OH223791   2.104   0.170   7.869
  719TIP3    H123792   2.044   0.095   7.884
  719TIP3    H223793   2.188   0.137   7.905
  720TIP3   OH223794   2.334   0.104   8.062
  720TIP3    H123795   2.426   0.128   8.038
  720TIP3    H223796   2.350   0.023   8.113
  721TIP3   OH223797   3.198   0.099   8.056
  721TIP3    H123798   3.162   0.019   8.098
  721TIP3    H223799   3.267   0.062   8.000
  722TIP3   OH223800   3.504   1.640   7.938
  722TIP3    H123801   3.428   1.625   7.877
  722TIP3    H223802   3.475   1.727   7.973
  723TIP3   OH223803   4.963   0.995   6.908
  723TIP3    H123804   4.948   1.088   6.932
  723TIP3    H223805   4.910   0.986   6.826
  724TIP3   OH223806   4.866   0.885   7.269
  724TIP3    H123807   4.874   0.853   7.362
  724TIP3    H223808   4.791   0.832   7.235
  725TIP3   OH223809   4.071   0.903   7.400
  725TIP3    H123810   4.057   0.828   7.459
  725TIP3    H223811   4.118   0.964   7.460
  726TIP3   OH223812   5.135   1.224   7.167
  726TIP3    H123813   5.198   1.163   7.207
  726TIP3    H223814   5.147   1.305   7.217
  727TIP3   OH223815   4.149   1.375   7.249
  727TIP3    H123816   4.114   1.284   7.252
  727TIP3    H223817   4.241   1.351   7.227
  728TIP3   OH223818   3.834   0.715   6.815
  728TIP3    H123819   3.763   0.780   6.827
  728TIP3    H223820   3.800   0.668   6.735
  729TIP3   OH223821   3.871   0.938   7.054
  729TIP3    H123822   3.909   0.851   7.077
  729TIP3    H223823   3.943   1.002   7.047
  730TIP3   OH223824   4.939   1.750   7.100
  730TIP3    H123825   5.010   1.683   7.083
  730TIP3    H223826   4.912   1.721   7.189
  731TIP3   OH223827   4.658   1.196   7.362
  731TIP3    H123828   4.689   1.188   7.271
  731TIP3    H223829   4.746   1.191   7.408
  732TIP3   OH223830   5.524   0.301   7.352
  732TIP3    H123831   5.540   0.362   7.427
  732TIP3    H223832   5.595   0.330   7.293
  733TIP3   OH223833   5.034   0.615   7.368
  733TIP3    H123834   5.066   0.528   7.397
  733TIP3    H223835   5.027   0.606   7.270
  734TIP3   OH223836   4.296   0.453   7.080
  734TIP3    H123837   4.389   0.427   7.096
  734TIP3    H223838   4.269   0.383   7.016
  735TIP3   OH223839   5.082   0.394   6.915
  735TIP3    H123840   5.141   0.396   6.994
  735TIP3    H223841   5.106   0.476   6.870
  736TIP3   OH223842   3.972   0.695   7.152
  736TIP3    H123843   4.026   0.650   7.221
  736TIP3    H223844   3.970   0.626   7.082
  737TIP3   OH223845   4.458   0.816   7.072
  737TIP3    H123846   4.545   0.794   7.111
  737TIP3    H223847   4.448   0.736   7.016
  738TIP3   OH223848   5.548   0.436   7.600
  738TIP3    H123849   5.501   0.520   7.580
  738TIP3    H223850   5.584   0.454   7.688
  739TIP3   OH223851   4.201   0.317   7.489
  739TIP3    H123852   4.150   0.377   7.432
  739TIP3    H223853   4.137   0.308   7.563
  740TIP3   OH223854   4.905   1.297   6.828
  740TIP3    H123855   4.894   1.315   6.731
  740TIP3    H223856   4.892   1.387   6.863
  741TIP3   OH223857   4.438   1.090   7.468
  741TIP3    H123858   4.370   1.159   7.484
  741TIP3    H223859   4.517   1.145   7.446
  742TIP3   OH223860   5.252   0.407   7.132
  742TIP3    H123861   5.240   0.354   7.211
  742TIP3    H223862   5.342   0.438   7.148
  743TIP3   OH223863   4.149   0.530   7.285
  743TIP3    H123864   4.217   0.583   7.333
  743TIP3    H223865   4.203   0.497   7.209
  744TIP3   OH223866   4.285   1.289   7.550
  744TIP3    H123867   4.294   1.378   7.513
  744TIP3    H223868   4.198   1.294   7.596
  745TIP3   OH223869   3.878   1.227   6.682
  745TIP3    H123870   3.874   1.275   6.598
  745TIP3    H223871   3.895   1.296   6.747
  746TIP3   OH223872   5.244   1.409   7.359
  746TIP3    H123873   5.147   1.424   7.352
  746TIP3    H223874   5.271   1.493   7.316
  747TIP3   OH223875   5.276   0.326   7.499
  747TIP3    H123876   5.194   0.320   7.446
  747TIP3    H223877   5.344   0.301   7.434
  748TIP3   OH223878   4.608   0.123   7.229
  748TIP3    H123879   4.567   0.044   7.268
  748TIP3    H223880   4.538   0.189   7.248
  749TIP3   OH223881   5.136   1.560   7.062
  749TIP3    H123882   5.099   1.530   6.977
  749TIP3    H223883   5.211   1.618   7.036
  750TIP3   OH223884   5.230   1.333   6.844
  750TIP3    H123885   5.134   1.331   6.830
  750TIP3    H223886   5.235   1.303   6.936
  751TIP3   OH223887   5.359   1.227   7.727
  751TIP3    H123888   5.384   1.159   7.659
  751TIP3    H223889   5.365   1.308   7.674
  752TIP3   OH223890   4.817   0.938   6.674
  752TIP3    H123891   4.742   0.999   6.655
  752TIP3    H223892   4.841   0.915   6.582
  753TIP3   OH223893   5.557   0.881   7.501
  753TIP3    H123894   5.489   0.952   7.504
  753TIP3    H223895   5.615   0.915   7.430
  754TIP3   OH223896   5.192   0.927   6.777
  754TIP3    H123897   5.109   0.942   6.829
  754TIP3    H223898   5.247   0.877   6.840
  755TIP3   OH223899   5.166   0.787   7.687
  755TIP3    H123900   5.167   0.883   7.701
  755TIP3    H223901   5.089   0.778   7.628
  756TIP3   OH223902   4.315   1.027   6.992
  756TIP3    H123903   4.318   1.021   6.896
  756TIP3    H223904   4.385   0.962   7.018
  757TIP3   OH223905   4.439   1.338   7.210
  757TIP3    H123906   4.456   1.336   7.114
  757TIP3    H223907   4.515   1.296   7.252
  758TIP3   OH223908   4.363   0.871   7.324
  758TIP3    H123909   4.392   0.881   7.231
  758TIP3    H223910   4.404   0.948   7.369
  759TIP3   OH223911   4.974   1.436   7.363
  759TIP3    H123912   4.937   1.469   7.448
  759TIP3    H223913   4.945   1.343   7.370
  760TIP3   OH223914   4.446   1.327   7.776
  760TIP3    H123915   4.397   1.410   7.761
  760TIP3    H223916   4.417   1.276   7.697
  761TIP3   OH223917   5.078   0.863   6.538
  761TIP3    H123918   5.119   0.890   6.623
  761TIP3    H223919   5.123   0.923   6.476
  762TIP3   OH223920   4.146   0.957   7.676
  762TIP3    H123921   4.153   1.046   7.716
  762TIP3    H223922   4.077   0.916   7.731
  763TIP3   OH223923   4.888   1.557   6.906
  763TIP3    H123924   4.886   1.639   6.960
  763TIP3    H223925   4.798   1.560   6.870
  764TIP3   OH223926   4.259   1.521   7.874
  764TIP3    H123927   4.249   1.566   7.787
  764TIP3    H223928   4.165   1.499   7.893
  765TIP3   OH223929   4.218   0.914   6.702
  765TIP3    H123930   4.280   0.968   6.648
  765TIP3    H223931   4.156   0.886   6.635
  766TIP3   OH223932   3.860   1.152   7.618
  766TIP3    H123933   3.814   1.136   7.534
  766TIP3    H223934   3.876   1.059   7.646
  767TIP3   OH223935   3.844   1.420   7.278
  767TIP3    H123936   3.940   1.408   7.282
  767TIP3    H223937   3.834   1.492   7.342
  768TIP3   OH223938   5.622   1.491   7.876
  768TIP3    H123939   5.618   1.395   7.892
  768TIP3    H223940   5.540   1.520   7.921
  769TIP3   OH223941   4.653   1.483   7.868
  769TIP3    H123942   4.714   1.482   7.790
  769TIP3    H223943   4.582   1.422   7.840
  770TIP3   OH223944   4.735   1.869   6.718
  770TIP3    H123945   4.752   1.876   6.623
  770TIP3    H223946   4.759   1.959   6.749
  771TIP3   OH223947   4.135   1.703   6.932
  771TIP3    H123948   4.164   1.674   7.022
  771TIP3    H223949   4.050   1.656   6.922
  772TIP3   OH223950   5.008   1.754   6.689
  772TIP3    H123951   4.916   1.779   6.707
  772TIP3    H223952   4.999   1.658   6.684
  773TIP3   OH223953   5.318   0.650   7.894
  773TIP3    H123954   5.275   0.696   7.818
  773TIP3    H223955   5.306   0.556   7.872
  774TIP3   OH223956   4.069   1.288   7.704
  774TIP3    H123957   4.069   1.250   7.793
  774TIP3    H223958   3.987   1.249   7.664
  775TIP3   OH223959   4.363   0.232   7.292
  775TIP3    H123960   4.312   0.152   7.271
  775TIP3    H223961   4.303   0.273   7.357
  776TIP3   OH223962   4.851   0.068   7.677
  776TIP3    H123963   4.847   0.054   7.773
  776TIP3    H223964   4.759   0.091   7.658
  777TIP3   OH223965   5.076   0.533   7.732
  777TIP3    H123966   5.024   0.515   7.815
  777TIP3    H223967   5.108   0.624   7.747
  778TIP3   OH223968   5.206   0.939   6.287
  778TIP3    H123969   5.131   0.886   6.255
  778TIP3    H223970   5.181   1.031   6.269
  779TIP3   OH223971   4.350   0.628   7.439
  779TIP3    H123972   4.290   0.643   7.514
  779TIP3    H223973   4.358   0.721   7.406
  780TIP3   OH223974   4.340   0.642   6.888
  780TIP3    H123975   4.283   0.565   6.908
  780TIP3    H223976   4.408   0.602   6.832
  781TIP3   OH223977   4.901   0.693   6.742
  781TIP3    H123978   4.870   0.784   6.719
  781TIP3    H223979   4.960   0.671   6.667
  782TIP3   OH223980   4.785   0.730   7.951
  782TIP3    H123981   4.740   0.647   7.977
  782TIP3    H223982   4.867   0.725   8.004
  783TIP3   OH223983   4.989   0.668   7.098
  783TIP3    H123984   4.966   0.762   7.084
  783TIP3    H223985   4.974   0.634   7.008
  784TIP3   OH223986   4.047   0.653   7.583
  784TIP3    H123987   4.110   0.667   7.653
  784TIP3    H223988   4.042   0.555   7.576
  785TIP3   OH223989   3.771   0.380   7.021
  785TIP3    H123990   3.837   0.370   7.092
  785TIP3    H223991   3.819   0.344   6.945
  786TIP3   OH223992   4.909   0.796   7.521
  786TIP3    H123993   4.960   0.727   7.473
  786TIP3    H223994   4.852   0.742   7.582
  787TIP3   OH223995   4.594   0.423   7.000
  787TIP3    H123996   4.553   0.338   6.974
  787TIP3    H223997   4.642   0.399   7.082
  788TIP3   OH223998   4.026   0.556   6.917
  788TIP3    H123999   3.963   0.587   6.847
  788TIP3    H224000   4.054   0.469   6.882
  789TIP3   OH224001   5.042   0.288   7.359
  789TIP3    H124002   4.963   0.317   7.408
  789TIP3    H224003   5.009   0.277   7.269
  790TIP3   OH224004   5.325   1.887   8.006
  790TIP3    H124005   5.368   1.913   7.923
  790TIP3    H224006   5.400   1.899   8.067
  791TIP3   OH224007   4.127   1.127   7.955
  791TIP3    H124008   4.170   1.098   8.038
  791TIP3    H224009   4.033   1.123   7.984
  792TIP3   OH224010   4.700   0.699   7.174
  792TIP3    H124011   4.778   0.646   7.149
  792TIP3    H224012   4.654   0.637   7.233
  793TIP3   OH224013   4.217   0.319   6.841
  793TIP3    H124014   4.153   0.307   6.768
  793TIP3    H224015   4.234   0.225   6.860
  794TIP3   OH224016   4.609   0.529   7.414
  794TIP3    H124017   4.523   0.575   7.415
  794TIP3    H224018   4.653   0.562   7.494
  795TIP3   OH224019   4.655   1.136   6.603
  795TIP3    H124020   4.575   1.110   6.554
  795TIP3    H224021   4.618   1.171   6.686
  796TIP3   OH224022   5.379   1.084   7.508
  796TIP3    H124023   5.421   1.144   7.442
  796TIP3    H224024   5.291   1.075   7.469
  797TIP3   OH224025   4.722   1.183   7.758
  797TIP3    H124026   4.736   1.138   7.841
  797TIP3    H224027   4.772   1.265   7.768
  798TIP3   OH224028   5.106   0.592   6.569
  798TIP3    H124029   5.173   0.624   6.630
  798TIP3    H224030   5.099   0.669   6.509
  799TIP3   OH224031   4.151   1.080   7.200
  799TIP3    H124032   4.217   1.074   7.128
  799TIP3    H224033   4.158   0.994   7.246
  800TIP3   OH224034   4.873   1.321   6.560
  800TIP3    H124035   4.812   1.395   6.540
  800TIP3    H224036   4.818   1.242   6.545
  801TIP3   OH224037   3.846   0.905   7.726
  801TIP3    H124038   3.840   0.852   7.808
  801TIP3    H224039   3.790   0.854   7.665
  802TIP3   OH224040   4.528   0.867   7.911
  802TIP3    H124041   4.507   0.841   7.820
  802TIP3    H224042   4.621   0.834   7.916
  803TIP3   OH224043   5.044   1.383   7.784
  803TIP3    H124044   4.977   1.416   7.718
  803TIP3    H224045   5.014   1.436   7.860
  804TIP3   OH224046   5.615   1.222   7.841
  804TIP3    H124047   5.522   1.228   7.809
  804TIP3    H224048   5.664   1.216   7.756
  805TIP3   OH224049   5.119   0.985   7.340
  805TIP3    H124050   5.031   0.966   7.304
  805TIP3    H224051   5.171   0.937   7.273
  806TIP3   OH224052   4.378   1.434   6.940
  806TIP3    H124053   4.397   1.529   6.946
  806TIP3    H224054   4.319   1.435   6.863
  807TIP3   OH224055   4.524   1.200   6.888
  807TIP3    H124056   4.479   1.287   6.882
  807TIP3    H224057   4.486   1.164   6.969
  808TIP3   OH224058   4.569   1.634   7.570
  808TIP3    H124059   4.623   1.702   7.526
  808TIP3    H224060   4.646   1.583   7.605
  809TIP3   OH224061   4.393   1.697   6.842
  809TIP3    H124062   4.300   1.713   6.870
  809TIP3    H224063   4.438   1.779   6.871
  810TIP3   OH224064   4.908   1.180   7.470
  810TIP3    H124065   4.931   1.191   7.563
  810TIP3    H224066   4.967   1.108   7.439
  811TIP3   OH224067   5.193   1.310   6.392
  811TIP3    H124068   5.180   1.276   6.482
  811TIP3    H224069   5.104   1.304   6.355
  812TIP3   OH224070   5.195   1.638   7.736
  812TIP3    H124071   5.109   1.593   7.723
  812TIP3    H224072   5.207   1.688   7.653
  813TIP3   OH224073   5.563   1.777   6.462
  813TIP3    H124074   5.625   1.790   6.388
  813TIP3    H224075   5.512   1.859   6.462
  814TIP3   OH224076   3.999   0.367   7.653
  814TIP3    H124077   3.924   0.416   7.690
  814TIP3    H224078   4.000   0.288   7.711
  815TIP3   OH224079   5.253   1.164   6.636
  815TIP3    H124080   5.234   1.077   6.674
  815TIP3    H224081   5.244   1.222   6.715
  816TIP3   OH224082   3.975   1.558   7.522
  816TIP3    H124083   4.048   1.496   7.539
  816TIP3    H224084   3.988   1.621   7.595
  817TIP3   OH224085   4.884   0.358   7.602
  817TIP3    H124086   4.965   0.400   7.640
  817TIP3    H224087   4.895   0.265   7.627
  818TIP3   OH224088   4.743   1.576   6.572
  818TIP3    H124089   4.648   1.589   6.593
  818TIP3    H224090   4.762   1.664   6.532
  819TIP3   OH224091   4.675   0.468   6.743
  819TIP3    H124092   4.729   0.550   6.737
  819TIP3    H224093   4.655   0.461   6.839
  820TIP3   OH224094   4.779   0.627   7.687
  820TIP3    H124095   4.794   0.653   7.781
  820TIP3    H224096   4.816   0.537   7.681
  821TIP3   OH224097   4.791   0.186   6.884
  821TIP3    H124098   4.759   0.233   6.964
  821TIP3    H224099   4.862   0.246   6.857
  822TIP3   OH224100   4.466   1.652   6.570
  822TIP3    H124101   4.479   1.731   6.517
  822TIP3    H224102   4.418   1.681   6.649
  823TIP3   OH224103   5.324   0.392   7.773
  823TIP3    H124104   5.236   0.421   7.744
  823TIP3    H224105   5.367   0.377   7.686
  824TIP3   OH224106   5.237   0.778   7.127
  824TIP3    H124107   5.163   0.716   7.140
  824TIP3    H224108   5.306   0.738   7.186
  825TIP3   OH224109   5.320   1.673   7.336
  825TIP3    H124110   5.327   1.728   7.255
  825TIP3    H224111   5.407   1.691   7.374
  826TIP3   OH224112   4.093   0.117   7.261
  826TIP3    H124113   4.036   0.088   7.188
  826TIP3    H224114   4.141   0.037   7.285
  827TIP3   OH224115   3.939   1.518   6.851
  827TIP3    H124116   3.857   1.569   6.845
  827TIP3    H224117   3.970   1.530   6.759
  828TIP3   OH224118   3.864   1.792   7.969
  828TIP3    H124119   3.928   1.779   8.041
  828TIP3    H224120   3.829   1.702   7.961
  829TIP3   OH224121   4.383   1.613   8.154
  829TIP3    H124122   4.478   1.607   8.170
  829TIP3    H224123   4.378   1.634   8.060
  830TIP3   OH224124   4.971   1.534   8.004
  830TIP3    H124125   4.940   1.459   8.060
  830TIP3    H224126   5.065   1.540   8.032
  831TIP3   OH224127   3.864   1.142   8.048
  831TIP3    H124128   3.800   1.076   8.080
  831TIP3    H224129   3.816   1.179   7.970
  832TIP3   OH224130   4.522   1.142   7.971
  832TIP3    H124131   4.535   1.194   7.888
  832TIP3    H224132   4.506   1.052   7.937
  833TIP3   OH224133   5.104   1.127   7.758
  833TIP3    H124134   5.196   1.162   7.762
  833TIP3    H224135   5.061   1.213   7.779
  834TIP3   OH224136   4.013   0.845   7.986
  834TIP3    H124137   4.075   0.783   8.026
  834TIP3    H224138   4.001   0.909   8.059
  835TIP3   OH224139   4.324   0.754   7.669
  835TIP3    H124140   4.266   0.831   7.683
  835TIP3    H224141   4.400   0.801   7.626
  836TIP3   OH224142   4.896   1.045   8.063
  836TIP3    H124143   4.947   0.983   8.008
  836TIP3    H224144   4.835   0.987   8.112
  837TIP3   OH224145   4.463   0.533   7.804
  837TIP3    H124146   4.485   0.483   7.723
  837TIP3    H224147   4.438   0.619   7.765
  838TIP3   OH224148   4.475   0.347   7.583
  838TIP3    H124149   4.537   0.374   7.512
  838TIP3    H224150   4.391   0.368   7.537
  839TIP3   OH224151   4.563   0.899   7.609
  839TIP3    H124152   4.656   0.906   7.582
  839TIP3    H224153   4.521   0.977   7.568
  840TIP3   OH224154   4.995   0.673   8.140
  840TIP3    H124155   5.027   0.582   8.122
  840TIP3    H224156   5.080   0.718   8.151
  841TIP3   OH224157   5.188   0.976   7.963
  841TIP3    H124158   5.145   1.015   7.884
  841TIP3    H224159   5.279   0.959   7.929
  842TIP3   OH224160   4.260   0.605   8.031
  842TIP3    H124161   4.195   0.546   7.988
  842TIP3    H224162   4.307   0.643   7.956
  843TIP3   OH224163   4.528   0.083   7.647
  843TIP3    H124164   4.529   0.179   7.624
  843TIP3    H224165   4.439   0.062   7.614
  844TIP3   OH224166   4.640   0.513   8.017
  844TIP3    H124167   4.572   0.482   8.082
  844TIP3    H224168   4.589   0.511   7.934
  845TIP3   OH224169   4.904   0.451   7.930
  845TIP3    H124170   4.809   0.448   7.951
  845TIP3    H224171   4.943   0.398   8.002
  846TIP3   OH224172   5.116   0.374   8.119
  846TIP3    H124173   5.115   0.280   8.093
  846TIP3    H224174   5.082   0.369   8.212
  847TIP3   OH224175   4.050   0.416   7.991
  847TIP3    H124176   4.026   0.327   7.957
  847TIP3    H224177   4.062   0.398   8.087
  848TIP3   OH224178   4.502   7.349   7.904
  848TIP3    H124179   4.496   7.251   7.896
  848TIP3    H224180   4.514   7.375   7.809
  849TIP3   OH224181   4.566   0.165   8.103
  849TIP3    H124182   4.538   0.096   8.037
  849TIP3    H224183   4.641   0.205   8.058
  850TIP3   OH224184   3.863   1.298   6.403
  850TIP3    H124185   3.945   1.247   6.413
  850TIP3    H224186   3.792   1.233   6.390
  851TIP3   OH224187   3.766   1.840   6.879
  851TIP3    H124188   3.691   1.790   6.841
  851TIP3    H224189   3.792   1.784   6.955
  852TIP3   OH224190   3.846   1.677   7.078
  852TIP3    H124191   3.800   1.595   7.099
  852TIP3    H224192   3.905   1.690   7.156
  853TIP3   OH224193   5.625   1.770   7.339
  853TIP3    H124194   5.583   1.747   7.423
  853TIP3    H224195   5.649   1.863   7.358
  854TIP3   OH224196   5.625   1.672   7.666
  854TIP3    H124197   5.562   1.612   7.623
  854TIP3    H224198   5.622   1.635   7.757
  855TIP3   OH224199   5.442   1.274   8.141
  855TIP3    H124200   5.354   1.289   8.183
  855TIP3    H224201   5.487   1.358   8.170
  856TIP3   OH224202   5.560   0.972   6.850
  856TIP3    H124203   5.488   0.912   6.879
  856TIP3    H224204   5.615   0.975   6.930
  857TIP3   OH224205   5.521   1.195   7.318
  857TIP3    H124206   5.591   1.128   7.300
  857TIP3    H224207   5.559   1.276   7.278
  858TIP3   OH224208   5.414   1.477   7.577
  858TIP3    H124209   5.343   1.518   7.629
  858TIP3    H224210   5.363   1.456   7.496
  859TIP3   OH224211   5.399   0.763   6.914
  859TIP3    H124212   5.367   0.680   6.872
  859TIP3    H224213   5.339   0.774   6.991
  860TIP3   OH224214   3.841   1.006   7.340
  860TIP3    H124215   3.834   0.971   7.249
  860TIP3    H224216   3.937   0.995   7.359
  861TIP3   OH224217   5.471   0.959   7.903
  861TIP3    H124218   5.512   0.870   7.916
  861TIP3    H224219   5.543   1.014   7.866
  862TIP3   OH224220   5.565   0.716   7.960
  862TIP3    H124221   5.477   0.680   7.933
  862TIP3    H224222   5.624   0.638   7.946
  863TIP3   OH224223   5.305   0.543   6.752
  863TIP3    H124224   5.329   0.454   6.787
  863TIP3    H224225   5.323   0.525   6.657
  864TIP3   OH224226   5.400   0.616   7.290
  864TIP3    H124227   5.497   0.630   7.303
  864TIP3    H224228   5.372   0.607   7.382
  865TIP3   OH224229   5.402   0.659   7.561
  865TIP3    H124230   5.312   0.692   7.580
  865TIP3    H224231   5.450   0.742   7.541
  866TIP3   OH224232   3.811   0.496   7.905
  866TIP3    H124233   3.902   0.498   7.940
  866TIP3    H224234   3.788   0.402   7.923
  867TIP3   OH224235   5.618   0.028   8.090
  867TIP3    H124236   5.611  -0.044   8.024
  867TIP3    H224237   5.582   0.101   8.036
  868TIP3   OH224238   5.386   0.293   6.759
  868TIP3    H124239   5.425   0.264   6.845
  868TIP3    H224240   5.347   0.210   6.730
  869TIP3   OH224241   3.937   0.346   7.242
  869TIP3    H124242   3.988   0.268   7.272
  869TIP3    H224243   4.007   0.414   7.242
  870TIP3   OH224244   3.783   0.627   7.340
  870TIP3    H124245   3.825   0.568   7.275
  870TIP3    H224246   3.834   0.708   7.331
  871TIP3   OH224247   5.570   0.267   7.952
  871TIP3    H124248   5.505   0.308   8.015
  871TIP3    H224249   5.510   0.247   7.878
  872TIP3   OH224250   5.273   1.772   6.965
  872TIP3    H124251   5.338   1.772   6.893
  872TIP3    H224252   5.310   1.836   7.029
  873TIP3   OH224253   3.782   0.119   7.518
  873TIP3    H124254   3.736   0.139   7.601
  873TIP3    H224255   3.739   0.182   7.456
  874TIP3   OH224256   4.021   1.444   7.953
  874TIP3    H124257   3.933   1.482   7.939
  874TIP3    H224258   4.008   1.381   8.025
  875TIP3   OH224259   4.309   1.598   7.629
  875TIP3    H124260   4.310   1.692   7.597
  875TIP3    H224261   4.406   1.584   7.626
  876TIP3   OH224262   4.700   1.753   7.893
  876TIP3    H124263   4.681   1.658   7.878
  876TIP3    H224264   4.797   1.755   7.882
  877TIP3   OH224265   4.952   1.843   7.807
  877TIP3    H124266   5.020   1.779   7.785
  877TIP3    H224267   4.982   1.877   7.894
  878TIP3   OH224268   5.483   0.090   7.744
  878TIP3    H124269   5.403   0.120   7.700
  878TIP3    H224270   5.496   0.002   7.704
  879TIP3   OH224271   4.030   1.898   7.588
  879TIP3    H124272   3.953   1.950   7.556
  879TIP3    H224273   4.027   1.922   7.681
  880TIP3   OH224274   4.273   1.840   7.493
  880TIP3    H124275   4.179   1.865   7.512
  880TIP3    H224276   4.299   1.908   7.428
  881TIP3   OH224277   4.744   1.809   7.432
  881TIP3    H124278   4.682   1.864   7.381
  881TIP3    H224279   4.776   1.872   7.499
  882TIP3   OH224280   5.046   1.762   7.489
  882TIP3    H124281   4.982   1.711   7.437
  882TIP3    H224282   4.987   1.790   7.560
  883TIP3   OH224283   5.333   1.887   7.528
  883TIP3    H124284   5.293   1.972   7.497
  883TIP3    H224285   5.276   1.823   7.480
  884TIP3   OH224286   4.001   1.728   7.299
  884TIP3    H124287   3.984   1.666   7.373
  884TIP3    H224288   4.093   1.702   7.275
  885TIP3   OH224289   4.229   1.637   7.175
  885TIP3    H124290   4.211   1.542   7.193
  885TIP3    H224291   4.315   1.645   7.223
  886TIP3   OH224292   4.460   1.614   7.317
  886TIP3    H124293   4.503   1.528   7.303
  886TIP3    H224294   4.481   1.631   7.410
  887TIP3   OH224295   4.804   0.300   7.166
  887TIP3    H124296   4.742   0.235   7.207
  887TIP3    H224297   4.873   0.238   7.136
  888TIP3   OH224298   5.341   0.029   7.165
  888TIP3    H124299   5.396   0.090   7.113
  888TIP3    H224300   5.252   0.063   7.152
  889TIP3   OH224301   5.497   0.181   6.981
  889TIP3    H124302   5.568   0.115   6.971
  889TIP3    H224303   5.551   0.261   7.002
  890TIP3   OH224304   3.970   0.147   6.953
  890TIP3    H124305   3.903   0.081   6.979
  890TIP3    H224306   4.052   0.102   6.978
  891TIP3   OH224307   4.527   0.167   6.954
  891TIP3    H124308   4.604   0.146   6.898
  891TIP3    H224309   4.542   0.106   7.028
  892TIP3   OH224310   5.004   0.105   7.064
  892TIP3    H124311   4.996   0.130   6.971
  892TIP3    H224312   4.985   0.010   7.057
  893TIP3   OH224313   3.886   1.657   6.627
  893TIP3    H124314   3.803   1.667   6.575
  893TIP3    H224315   3.930   1.739   6.600
  894TIP3   OH224316   4.834   1.796   6.445
  894TIP3    H124317   4.924   1.827   6.458
  894TIP3    H224318   4.848   1.742   6.366
  895TIP3   OH224319   5.442   1.722   6.750
  895TIP3    H124320   5.484   1.694   6.667
  895TIP3    H224321   5.381   1.791   6.715
  896TIP3   OH224322   3.983   0.169   7.865
  896TIP3    H124323   3.907   0.108   7.861
  896TIP3    H224324   4.049   0.120   7.920
  897TIP3   OH224325   4.161   0.036   8.020
  897TIP3    H124326   4.226  -0.008   7.959
  897TIP3    H224327   4.113  -0.045   8.045
  898TIP3   OH224328   5.082   0.099   8.050
  898TIP3    H124329   5.050   0.021   8.099
  898TIP3    H224330   5.149   0.058   7.993
  899TIP3   OH224331   5.389   1.624   7.936
  899TIP3    H124332   5.311   1.613   7.878
  899TIP3    H224333   5.376   1.713   7.972
  900TIP3   OH224334   6.860   0.993   6.949
  900TIP3    H124335   6.862   1.084   6.984
  900TIP3    H224336   6.787   0.997   6.884
  901TIP3   OH224337   6.755   0.852   7.251
  901TIP3    H124338   6.742   0.893   7.340
  901TIP3    H224339   6.663   0.850   7.218
  902TIP3   OH224340   5.937   0.899   7.407
  902TIP3    H124341   5.926   0.819   7.461
  902TIP3    H224342   5.990   0.954   7.468
  903TIP3   OH224343   7.069   1.224   7.163
  903TIP3    H124344   7.058   1.137   7.206
  903TIP3    H224345   7.090   1.278   7.241
  904TIP3   OH224346   6.067   1.352   7.266
  904TIP3    H124347   6.027   1.268   7.235
  904TIP3    H224348   6.161   1.332   7.246
  905TIP3   OH224349   5.732   0.700   6.797
  905TIP3    H124350   5.702   0.785   6.833
  905TIP3    H224351   5.649   0.651   6.807
  906TIP3   OH224352   5.744   0.922   7.057
  906TIP3    H124353   5.777   0.830   7.070
  906TIP3    H224354   5.827   0.972   7.043
  907TIP3   OH224355   6.799   1.745   7.110
  907TIP3    H124356   6.860   1.677   7.072
  907TIP3    H224357   6.770   1.695   7.187
  908TIP3   OH224358   6.608   1.095   7.305
  908TIP3    H124359   6.591   1.123   7.214
  908TIP3    H224360   6.608   1.181   7.353
  909TIP3   OH224361   6.915   0.598   7.397
  909TIP3    H124362   6.876   0.510   7.407
  909TIP3    H224363   6.908   0.614   7.302
  910TIP3   OH224364   6.201   0.464   7.064
  910TIP3    H124365   6.232   0.519   6.990
  910TIP3    H224366   6.148   0.396   7.016
  911TIP3   OH224367   6.948   0.435   6.942
  911TIP3    H124368   7.014   0.403   7.008
  911TIP3    H224369   7.010   0.484   6.884
  912TIP3   OH224370   5.845   0.674   7.137
  912TIP3    H124371   5.901   0.642   7.210
  912TIP3    H224372   5.890   0.632   7.060
  913TIP3   OH224373   6.326   0.821   7.074
  913TIP3    H124374   6.406   0.773   7.103
  913TIP3    H224375   6.282   0.750   7.021
  914TIP3   OH224376   6.115   0.326   7.500
  914TIP3    H124377   6.061   0.364   7.427
  914TIP3    H224378   6.055   0.336   7.576
  915TIP3   OH224379   6.767   1.273   6.823
  915TIP3    H124380   6.684   1.240   6.786
  915TIP3    H224381   6.745   1.368   6.833
  916TIP3   OH224382   6.300   1.109   7.421
  916TIP3    H124383   6.249   1.183   7.461
  916TIP3    H224384   6.371   1.161   7.377
  917TIP3   OH224385   7.123   0.372   7.133
  917TIP3    H124386   7.069   0.348   7.211
  917TIP3    H224387   7.189   0.429   7.176
  918TIP3   OH224388   6.041   0.503   7.271
  918TIP3    H124389   6.103   0.564   7.316
  918TIP3    H224390   6.092   0.482   7.189
  919TIP3   OH224391   6.164   1.311   7.560
  919TIP3    H124392   6.149   1.389   7.505
  919TIP3    H224393   6.081   1.300   7.611
  920TIP3   OH224394   7.135   1.416   7.363
  920TIP3    H124395   7.040   1.411   7.385
  920TIP3    H224396   7.139   1.508   7.334
  921TIP3   OH224397   7.158   0.312   7.491
  921TIP3    H124398   7.064   0.337   7.485
  921TIP3    H224399   7.196   0.382   7.435
  922TIP3   OH224400   6.478   0.105   7.199
  922TIP3    H124401   6.451   0.034   7.260
  922TIP3    H224402   6.407   0.171   7.220
  923TIP3   OH224403   6.969   1.579   6.997
  923TIP3    H124404   7.015   1.503   6.955
  923TIP3    H224405   7.032   1.651   6.974
  924TIP3   OH224406   7.117   1.385   6.870
  924TIP3    H124407   7.147   1.324   6.799
  924TIP3    H224408   7.100   1.322   6.943
  925TIP3   OH224409   7.233   1.223   7.740
  925TIP3    H124410   7.214   1.164   7.664
  925TIP3    H224411   7.235   1.311   7.696
  926TIP3   OH224412   6.726   0.953   6.708
  926TIP3    H124413   6.655   1.012   6.679
  926TIP3    H224414   6.784   0.952   6.630
  927TIP3   OH224415   6.686   0.832   6.410
  927TIP3    H124416   6.770   0.845   6.458
  927TIP3    H224417   6.701   0.743   6.375
  928TIP3   OH224418   7.066   0.920   6.758
  928TIP3    H124419   7.001   0.951   6.825
  928TIP3    H224420   7.142   0.903   6.817
  929TIP3   OH224421   7.088   0.833   7.618
  929TIP3    H124422   7.050   0.813   7.706
  929TIP3    H224423   7.003   0.841   7.571
  930TIP3   OH224424   6.241   1.061   7.024
  930TIP3    H124425   6.207   1.025   6.941
  930TIP3    H224426   6.289   0.982   7.055
  931TIP3   OH224427   6.325   1.351   7.196
  931TIP3    H124428   6.349   1.374   7.104
  931TIP3    H224429   6.408   1.352   7.248
  932TIP3   OH224430   6.247   0.860   7.324
  932TIP3    H124431   6.273   0.867   7.230
  932TIP3    H224432   6.269   0.950   7.356
  933TIP3   OH224433   6.877   1.452   7.409
  933TIP3    H124434   6.857   1.503   7.489
  933TIP3    H224435   6.825   1.371   7.431
  934TIP3   OH224436   6.327   1.322   7.780
  934TIP3    H124437   6.266   1.379   7.831
  934TIP3    H224438   6.284   1.318   7.692
  935TIP3   OH224439   6.933   0.872   6.531
  935TIP3    H124440   6.997   0.886   6.603
  935TIP3    H224441   6.962   0.781   6.504
  936TIP3   OH224442   6.042   0.944   7.678
  936TIP3    H124443   6.064   1.025   7.725
  936TIP3    H224444   5.959   0.920   7.724
  937TIP3   OH224445   6.671   1.538   6.835
  937TIP3    H124446   6.690   1.580   6.920
  937TIP3    H224447   6.638   1.617   6.786
  938TIP3   OH224448   6.155   1.501   7.879
  938TIP3    H124449   6.142   1.540   7.790
  938TIP3    H224450   6.064   1.470   7.899
  939TIP3   OH224451   7.228   0.074   6.623
  939TIP3    H124452   7.220  -0.023   6.619
  939TIP3    H224453   7.228   0.099   6.530
  940TIP3   OH224454   6.128   0.910   6.666
  940TIP3    H124455   6.073   0.981   6.627
  940TIP3    H224456   6.065   0.852   6.710
  941TIP3   OH224457   5.737   1.155   7.620
  941TIP3    H124458   5.700   1.148   7.531
  941TIP3    H224459   5.752   1.060   7.640
  942TIP3   OH224460   5.679   1.424   7.276
  942TIP3    H124461   5.769   1.407   7.247
  942TIP3    H224462   5.694   1.491   7.344
  943TIP3   OH224463   6.590   1.458   7.792
  943TIP3    H124464   6.601   1.552   7.769
  943TIP3    H224465   6.511   1.434   7.739
  944TIP3   OH224466   6.682   1.803   6.735
  944TIP3    H124467   6.689   1.828   6.640
  944TIP3    H224468   6.664   1.889   6.777
  945TIP3   OH224469   6.011   1.720   6.947
  945TIP3    H124470   6.059   1.689   7.027
  945TIP3    H224471   5.926   1.677   6.965
  946TIP3   OH224472   6.927   1.706   6.420
  946TIP3    H124473   7.017   1.691   6.383
  946TIP3    H224474   6.944   1.680   6.512
  947TIP3   OH224475   6.945   1.733   6.725
  947TIP3    H124476   6.854   1.767   6.736
  947TIP3    H224477   6.943   1.656   6.784
  948TIP3   OH224478   7.226   0.689   7.907
  948TIP3    H124479   7.174   0.661   7.831
  948TIP3    H224480   7.295   0.618   7.910
  949TIP3   OH224481   5.956   1.275   7.721
  949TIP3    H124482   5.968   1.233   7.809
  949TIP3    H224483   5.869   1.238   7.693
  950TIP3   OH224484   6.263   0.235   7.291
  950TIP3    H124485   6.199   0.163   7.277
  950TIP3    H224486   6.221   0.281   7.366
  951TIP3   OH224487   6.731   0.082   7.691
  951TIP3    H124488   6.726   0.074   7.787
  951TIP3    H224489   6.641   0.111   7.667
  952TIP3   OH224490   6.982   0.456   7.722
  952TIP3    H124491   6.955   0.443   7.815
  952TIP3    H224492   6.973   0.553   7.721
  953TIP3   OH224493   6.232   0.623   7.437
  953TIP3    H124494   6.165   0.643   7.504
  953TIP3    H224495   6.240   0.710   7.391
  954TIP3   OH224496   6.223   0.662   6.888
  954TIP3    H124497   6.130   0.628   6.888
  954TIP3    H224498   6.250   0.644   6.795
  955TIP3   OH224499   6.815   0.690   6.729
  955TIP3    H124500   6.776   0.780   6.731
  955TIP3    H224501   6.909   0.710   6.709
  956TIP3   OH224502   6.627   0.748   7.975
  956TIP3    H124503   6.600   0.658   8.004
  956TIP3    H224504   6.722   0.737   7.959
  957TIP3   OH224505   6.911   0.677   7.085
  957TIP3    H124506   6.850   0.754   7.079
  957TIP3    H224507   6.877   0.614   7.020
  958TIP3   OH224508   5.952   0.642   7.563
  958TIP3    H124509   6.001   0.657   7.645
  958TIP3    H224510   5.931   0.547   7.571
  959TIP3   OH224511   5.675   0.405   7.009
  959TIP3    H124512   5.732   0.391   7.088
  959TIP3    H224513   5.738   0.388   6.938
  960TIP3   OH224514   5.759   0.450   6.573
  960TIP3    H124515   5.834   0.505   6.548
  960TIP3    H224516   5.684   0.494   6.530
  961TIP3   OH224517   6.812   0.817   7.523
  961TIP3    H124518   6.855   0.744   7.472
  961TIP3    H224519   6.757   0.766   7.585
  962TIP3   OH224520   6.489   0.395   7.025
  962TIP3    H124521   6.405   0.375   7.070
  962TIP3    H224522   6.554   0.376   7.096
  963TIP3   OH224523   5.960   0.569   6.898
  963TIP3    H124524   5.886   0.591   6.838
  963TIP3    H224525   5.982   0.475   6.875
  964TIP3   OH224526   6.305   0.613   6.645
  964TIP3    H124527   6.400   0.596   6.653
  964TIP3    H224528   6.293   0.652   6.557
  965TIP3   OH224529   6.892   0.296   7.344
  965TIP3    H124530   6.858   0.314   7.435
  965TIP3    H224531   6.809   0.299   7.293
  966TIP3   OH224532   7.206   1.874   7.980
  966TIP3    H124533   7.211   1.918   7.893
  966TIP3    H224534   7.287   1.906   8.021
  967TIP3   OH224535   6.002   1.118   7.944
  967TIP3    H124536   6.066   1.124   8.019
  967TIP3    H224537   5.917   1.115   7.993
  968TIP3   OH224538   6.517   0.700   7.201
  968TIP3    H124539   6.605   0.660   7.193
  968TIP3    H224540   6.478   0.636   7.264
  969TIP3   OH224541   6.045   0.316   6.908
  969TIP3    H124542   5.994   0.233   6.906
  969TIP3    H224543   6.104   0.300   6.830
  970TIP3   OH224544   6.479   0.538   7.422
  970TIP3    H124545   6.389   0.578   7.428
  970TIP3    H224546   6.526   0.585   7.493
  971TIP3   OH224547   6.540   1.164   6.632
  971TIP3    H124548   6.473   1.105   6.590
  971TIP3    H224549   6.482   1.208   6.698
  972TIP3   OH224550   7.218   1.101   7.514
  972TIP3    H124551   7.264   1.077   7.430
  972TIP3    H224552   7.143   1.040   7.511
  973TIP3   OH224553   6.653   1.201   7.729
  973TIP3    H124554   6.626   1.141   7.799
  973TIP3    H224555   6.631   1.287   7.768
  974TIP3   OH224556   6.026   1.092   7.181
  974TIP3    H124557   6.115   1.089   7.136
  974TIP3    H224558   6.031   1.015   7.241
  975TIP3   OH224559   5.739   0.899   7.736
  975TIP3    H124560   5.723   0.845   7.815
  975TIP3    H224561   5.682   0.855   7.670
  976TIP3   OH224562   6.404   0.889   7.902
  976TIP3    H124563   6.375   0.824   7.836
  976TIP3    H224564   6.498   0.864   7.910
  977TIP3   OH224565   6.916   1.407   7.742
  977TIP3    H124566   6.833   1.375   7.703
  977TIP3    H224567   6.884   1.440   7.828
  978TIP3   OH224568   6.998   1.000   7.314
  978TIP3    H124569   6.916   0.972   7.270
  978TIP3    H224570   7.060   0.932   7.282
  979TIP3   OH224571   6.248   1.438   6.932
  979TIP3    H124572   6.300   1.520   6.915
  979TIP3    H224573   6.161   1.474   6.911
  980TIP3   OH224574   6.406   1.225   6.855
  980TIP3    H124575   6.348   1.298   6.888
  980TIP3    H224576   6.391   1.158   6.924
  981TIP3   OH224577   6.450   1.612   7.576
  981TIP3    H124578   6.517   1.679   7.555
  981TIP3    H224579   6.491   1.531   7.536
  982TIP3   OH224580   6.282   1.701   6.856
  982TIP3    H124581   6.190   1.732   6.870
  982TIP3    H224582   6.325   1.780   6.820
  983TIP3   OH224583   6.824   1.199   7.512
  983TIP3    H124584   6.759   1.178   7.583
  983TIP3    H224585   6.836   1.113   7.467
  984TIP3   OH224586   7.149   1.661   7.715
  984TIP3    H124587   7.063   1.616   7.703
  984TIP3    H224588   7.145   1.731   7.646
  985TIP3   OH224589   5.920   0.377   7.700
  985TIP3    H124590   5.900   0.431   7.779
  985TIP3    H224591   5.881   0.292   7.723
  986TIP3   OH224592   7.130   1.196   6.659
  986TIP3    H124593   7.108   1.102   6.669
  986TIP3    H224594   7.229   1.196   6.657
  987TIP3   OH224595   5.856   1.555   7.511
  987TIP3    H124596   5.922   1.487   7.530
  987TIP3    H224597   5.807   1.566   7.594
  988TIP3   OH224598   6.013   1.130   6.559
  988TIP3    H124599   6.026   1.185   6.637
  988TIP3    H224600   6.054   1.181   6.487
  989TIP3   OH224601   6.792   0.345   7.581
  989TIP3    H124602   6.865   0.387   7.633
  989TIP3    H224603   6.798   0.255   7.617
  990TIP3   OH224604   6.835   0.343   6.721
  990TIP3    H124605   6.806   0.433   6.697
  990TIP3    H224606   6.882   0.362   6.805
  991TIP3   OH224607   6.554   0.502   6.778
  991TIP3    H124608   6.624   0.569   6.787
  991TIP3    H224609   6.524   0.485   6.871
  992TIP3   OH224610   6.675   0.609   7.684
  992TIP3    H124611   6.710   0.645   7.768
  992TIP3    H224612   6.721   0.524   7.679
  993TIP3   OH224613   6.657   0.186   6.858
  993TIP3    H124614   6.631   0.260   6.916
  993TIP3    H224615   6.717   0.233   6.797
  994TIP3   OH224616   6.184   0.312   6.687
  994TIP3    H124617   6.151   0.342   6.601
  994TIP3    H224618   6.270   0.277   6.658
  995TIP3   OH224619   7.242   0.344   7.794
  995TIP3    H124620   7.175   0.411   7.773
  995TIP3    H224621   7.244   0.300   7.708
  996TIP3   OH224622   7.125   0.792   7.199
  996TIP3    H124623   7.050   0.740   7.163
  996TIP3    H224624   7.183   0.726   7.241
  997TIP3   OH224625   7.260   1.705   7.357
  997TIP3    H124626   7.226   1.761   7.284
  997TIP3    H224627   7.351   1.694   7.327
  998TIP3   OH224628   5.956   0.104   7.261
  998TIP3    H124629   5.944   0.079   7.167
  998TIP3    H224630   5.980   0.020   7.300
  999TIP3   OH224631   5.847   1.499   6.854
  999TIP3    H124632   5.771   1.558   6.846
  999TIP3    H224633   5.910   1.535   6.791
 1000TIP3   OH224634   5.761   1.795   7.966
 1000TIP3    H124635   5.819   1.784   8.045
 1000TIP3    H224636   5.727   1.704   7.960
 1001TIP3   OH224637   6.253   1.625   8.141
 1001TIP3    H124638   6.347   1.605   8.122
 1001TIP3    H224639   6.209   1.581   8.066
 1002TIP3   OH224640   6.866   1.522   8.005
 1002TIP3    H124641   6.841   1.432   8.036
 1002TIP3    H224642   6.956   1.528   8.042
 1003TIP3   OH224643   5.743   1.132   8.062
 1003TIP3    H124644   5.707   1.042   8.065
 1003TIP3    H224645   5.699   1.168   7.982
 1004TIP3   OH224646   6.223   1.122   6.294
 1004TIP3    H124647   6.280   1.097   6.368
 1004TIP3    H224648   6.288   1.147   6.228
 1005TIP3   OH224649   6.420   1.143   7.954
 1005TIP3    H124650   6.401   1.206   7.881
 1005TIP3    H224651   6.402   1.054   7.916
 1006TIP3   OH224652   6.969   1.128   7.747
 1006TIP3    H124653   7.039   1.189   7.775
 1006TIP3    H224654   6.934   1.175   7.668
 1007TIP3   OH224655   5.885   0.841   8.002
 1007TIP3    H124656   5.977   0.818   7.986
 1007TIP3    H224657   5.894   0.892   8.086
 1008TIP3   OH224658   6.350   1.000   6.514
 1008TIP3    H124659   6.276   0.967   6.570
 1008TIP3    H224660   6.382   0.919   6.472
 1009TIP3   OH224661   6.242   0.764   7.704
 1009TIP3    H124662   6.164   0.823   7.712
 1009TIP3    H224663   6.299   0.822   7.649
 1010TIP3   OH224664   6.762   1.042   8.077
 1010TIP3    H124665   6.811   0.994   8.009
 1010TIP3    H224666   6.745   0.973   8.143
 1011TIP3   OH224667   6.353   0.538   7.794
 1011TIP3    H124668   6.375   0.481   7.717
 1011TIP3    H224669   6.337   0.624   7.748
 1012TIP3   OH224670   6.389   0.345   7.601
 1012TIP3    H124671   6.448   0.382   7.533
 1012TIP3    H224672   6.303   0.356   7.554
 1013TIP3   OH224673   6.432   0.921   7.575
 1013TIP3    H124674   6.519   0.962   7.562
 1013TIP3    H224675   6.378   0.983   7.522
 1014TIP3   OH224676   6.897   0.670   8.162
 1014TIP3    H124677   6.906   0.573   8.158
 1014TIP3    H224678   6.917   0.690   8.067
 1015TIP3   OH224679   7.022   0.988   7.970
 1015TIP3    H124680   6.998   1.046   7.894
 1015TIP3    H224681   6.983   0.903   7.939
 1016TIP3   OH224682   6.174   0.601   8.031
 1016TIP3    H124683   6.097   0.560   7.987
 1016TIP3    H224684   6.234   0.610   7.955
 1017TIP3   OH224685   6.410   0.070   7.635
 1017TIP3    H124686   6.408   0.167   7.618
 1017TIP3    H224687   6.317   0.047   7.624
 1018TIP3   OH224688   6.517   0.510   8.019
 1018TIP3    H124689   6.451   0.500   8.090
 1018TIP3    H224690   6.462   0.504   7.937
 1019TIP3   OH224691   6.770   0.425   7.933
 1019TIP3    H124692   6.673   0.430   7.932
 1019TIP3    H224693   6.784   0.391   8.023
 1020TIP3   OH224694   7.029   0.370   8.131
 1020TIP3    H124695   7.009   0.283   8.092
 1020TIP3    H224696   6.982   0.363   8.218
 1021TIP3   OH224697   5.939   0.395   7.994
 1021TIP3    H124698   5.914   0.303   7.969
 1021TIP3    H224699   5.943   0.387   8.093
 1022TIP3   OH224700   6.418   7.355   7.911
 1022TIP3    H124701   6.449   7.265   7.927
 1022TIP3    H224702   6.423   7.366   7.814
 1023TIP3   OH224703   6.391   0.147   8.153
 1023TIP3    H124704   6.419   0.116   8.064
 1023TIP3    H224705   6.378   0.243   8.139
 1024TIP3   OH224706   5.632   1.850   6.887
 1024TIP3    H124707   5.563   1.791   6.849
 1024TIP3    H224708   5.660   1.798   6.966
 1025TIP3   OH224709   5.699   1.671   7.078
 1025TIP3    H124710   5.661   1.582   7.083
 1025TIP3    H224711   5.669   1.706   7.165
 1026TIP3   OH224712   7.229   1.265   8.094
 1026TIP3    H124713   7.181   1.286   8.177
 1026TIP3    H224714   7.261   1.352   8.067
 1027TIP3   OH224715   7.286   1.449   7.590
 1027TIP3    H124716   7.239   1.527   7.624
 1027TIP3    H224717   7.246   1.440   7.500
 1028TIP3   OH224718   7.233   0.803   6.937
 1028TIP3    H124719   7.162   0.741   6.960
 1028TIP3    H224720   7.248   0.847   7.023
 1029TIP3   OH224721   5.714   1.004   7.316
 1029TIP3    H124722   5.717   0.969   7.225
 1029TIP3    H224723   5.807   0.987   7.344
 1030TIP3   OH224724   7.328   0.930   7.914
 1030TIP3    H124725   7.267   0.853   7.894
 1030TIP3    H224726   7.294   1.000   7.857
 1031TIP3   OH224727   7.160   0.494   6.771
 1031TIP3    H124728   7.224   0.451   6.831
 1031TIP3    H224729   7.219   0.540   6.709
 1032TIP3   OH224730   7.231   0.523   7.335
 1032TIP3    H124731   7.323   0.507   7.306
 1032TIP3    H224732   7.242   0.600   7.394
 1033TIP3   OH224733   7.297   0.634   7.642
 1033TIP3    H124734   7.218   0.681   7.612
 1033TIP3    H224735   7.360   0.652   7.570
 1034TIP3   OH224736   5.711   0.501   7.910
 1034TIP3    H124737   5.799   0.481   7.948
 1034TIP3    H224738   5.662   0.418   7.930
 1035TIP3   OH224739   7.168   0.216   6.828
 1035TIP3    H124740   7.243   0.217   6.890
 1035TIP3    H224741   7.198   0.163   6.752
 1036TIP3   OH224742   5.812   0.347   7.227
 1036TIP3    H124743   5.848   0.262   7.258
 1036TIP3    H224744   5.890   0.406   7.235
 1037TIP3   OH224745   5.661   0.640   7.329
 1037TIP3    H124746   5.705   0.609   7.248
 1037TIP3    H224747   5.706   0.724   7.343
 1038TIP3   OH224748   5.681   0.263   6.749
 1038TIP3    H124749   5.584   0.261   6.743
 1038TIP3    H224750   5.700   0.334   6.683
 1039TIP3   OH224751   7.153   1.760   6.922
 1039TIP3    H124752   7.216   1.695   6.887
 1039TIP3    H224753   7.187   1.780   7.011
 1040TIP3   OH224754   5.672   0.117   7.514
 1040TIP3    H124755   5.635   0.131   7.603
 1040TIP3    H224756   5.626   0.183   7.461
 1041TIP3   OH224757   5.898   1.439   7.953
 1041TIP3    H124758   5.812   1.476   7.928
 1041TIP3    H224759   5.882   1.410   8.043
 1042TIP3   OH224760   6.180   1.598   7.627
 1042TIP3    H124761   6.195   1.687   7.590
 1042TIP3    H224762   6.274   1.571   7.629
 1043TIP3   OH224763   6.627   1.754   7.862
 1043TIP3    H124764   6.638   1.694   7.938
 1043TIP3    H224765   6.721   1.770   7.839
 1044TIP3   OH224766   6.859   1.899   7.810
 1044TIP3    H124767   6.937   1.856   7.772
 1044TIP3    H224768   6.877   1.906   7.906
 1045TIP3   OH224769   5.930   1.864   7.594
 1045TIP3    H124770   5.904   1.776   7.561
 1045TIP3    H224771   6.000   1.843   7.657
 1046TIP3   OH224772   6.197   1.851   7.495
 1046TIP3    H124773   6.100   1.859   7.494
 1046TIP3    H224774   6.218   1.888   7.407
 1047TIP3   OH224775   6.671   1.814   7.398
 1047TIP3    H124776   6.624   1.867   7.333
 1047TIP3    H224777   6.663   1.870   7.478
 1048TIP3   OH224778   6.864   1.695   7.576
 1048TIP3    H124779   6.799   1.713   7.506
 1048TIP3    H224780   6.934   1.757   7.550
 1049TIP3   OH224781   7.106   1.850   7.516
 1049TIP3    H124782   7.163   1.925   7.537
 1049TIP3    H224783   7.164   1.802   7.453
 1050TIP3   OH224784   5.905   1.741   7.323
 1050TIP3    H124785   5.848   1.673   7.364
 1050TIP3    H224786   5.971   1.686   7.276
 1051TIP3   OH224787   6.087   1.610   7.187
 1051TIP3    H124788   6.081   1.513   7.204
 1051TIP3    H224789   6.175   1.627   7.226
 1052TIP3   OH224790   6.339   1.631   7.285
 1052TIP3    H124791   6.352   1.537   7.262
 1052TIP3    H224792   6.376   1.631   7.375
 1053TIP3   OH224793   6.685   0.299   7.172
 1053TIP3    H124794   6.634   0.218   7.194
 1053TIP3    H224795   6.761   0.258   7.125
 1054TIP3   OH224796   7.179   0.107   7.180
 1054TIP3    H124797   7.266   0.093   7.140
 1054TIP3    H224798   7.149   0.186   7.132
 1055TIP3   OH224799   5.921   0.088   6.937
 1055TIP3    H124800   5.840   0.072   6.991
 1055TIP3    H224801   5.978   0.015   6.969
 1056TIP3   OH224802   5.853   0.156   6.515
 1056TIP3    H124803   5.900   0.152   6.428
 1056TIP3    H224804   5.845   0.250   6.536
 1057TIP3   OH224805   6.402   0.102   6.929
 1057TIP3    H124806   6.459   0.160   6.875
 1057TIP3    H224807   6.440   0.114   7.018
 1058TIP3   OH224808   6.855   0.092   7.094
 1058TIP3    H124809   6.915   0.159   7.059
 1058TIP3    H224810   6.909   0.011   7.089
 1059TIP3   OH224811   6.451   0.246   6.654
 1059TIP3    H124812   6.522   0.200   6.701
 1059TIP3    H224813   6.489   0.334   6.642
 1060TIP3   OH224814   6.723   1.899   6.478
 1060TIP3    H124815   6.783   1.847   6.421
 1060TIP3    H224816   6.641   1.885   6.425
 1061TIP3   OH224817   5.887   0.147   7.896
 1061TIP3    H124818   5.838   0.067   7.872
 1061TIP3    H224819   5.980   0.118   7.900
 1062TIP3   OH224820   6.102   0.092   8.061
 1062TIP3    H124821   6.177   0.135   8.015
 1062TIP3    H224822   6.147   0.011   8.092
 1063TIP3   OH224823   6.990   0.092   8.034
 1063TIP3    H124824   6.947   0.014   8.073
 1063TIP3    H224825   7.077   0.055   8.009
 1064TIP3   OH224826   7.269   1.605   7.954
 1064TIP3    H124827   7.242   1.593   7.861
 1064TIP3    H224828   7.236   1.698   7.966
 1065TIP3   OH224829   1.161   2.865   6.879
 1065TIP3    H124830   1.202   2.952   6.900
 1065TIP3    H224831   1.073   2.898   6.859
 1066TIP3   OH224832   1.052   2.809   7.323
 1066TIP3    H124833   1.063   2.758   7.406
 1066TIP3    H224834   0.992   2.751   7.271
 1067TIP3   OH224835   0.304   2.804   7.405
 1067TIP3    H124836   0.287   2.737   7.472
 1067TIP3    H224837   0.393   2.835   7.431
 1068TIP3   OH224838   0.380   3.239   7.260
 1068TIP3    H124839   0.358   3.144   7.255
 1068TIP3    H224840   0.474   3.228   7.239
 1069TIP3   OH224841   0.055   2.588   6.792
 1069TIP3    H124842  -0.010   2.656   6.813
 1069TIP3    H224843  -0.002   2.509   6.777
 1070TIP3   OH224844   0.159   2.789   7.077
 1070TIP3    H124845   0.132   2.696   7.074
 1070TIP3    H224846   0.183   2.807   6.984
 1071TIP3   OH224847   1.162   3.625   7.096
 1071TIP3    H124848   1.243   3.579   7.062
 1071TIP3    H224849   1.143   3.571   7.174
 1072TIP3   OH224850   0.879   3.089   7.369
 1072TIP3    H124851   0.915   3.042   7.293
 1072TIP3    H224852   0.960   3.099   7.423
 1073TIP3   OH224853   1.747   2.217   7.324
 1073TIP3    H124854   1.764   2.243   7.416
 1073TIP3    H224855   1.835   2.228   7.284
 1074TIP3   OH224856   1.254   2.504   7.380
 1074TIP3    H124857   1.259   2.406   7.370
 1074TIP3    H224858   1.215   2.523   7.292
 1075TIP3   OH224859   0.502   2.300   7.063
 1075TIP3    H124860   0.529   2.373   7.005
 1075TIP3    H224861   0.497   2.229   6.995
 1076TIP3   OH224862   1.302   2.280   6.908
 1076TIP3    H124863   1.338   2.262   6.997
 1076TIP3    H224864   1.335   2.369   6.895
 1077TIP3   OH224865   0.117   2.511   7.136
 1077TIP3    H124866   0.208   2.494   7.167
 1077TIP3    H224867   0.114   2.458   7.054
 1078TIP3   OH224868   0.709   2.715   7.081
 1078TIP3    H124869   0.793   2.680   7.114
 1078TIP3    H224870   0.668   2.634   7.045
 1079TIP3   OH224871   1.769   2.324   7.586
 1079TIP3    H124872   1.741   2.411   7.552
 1079TIP3    H224873   1.814   2.353   7.667
 1080TIP3   OH224874   0.443   2.219   7.468
 1080TIP3    H124875   0.411   2.269   7.390
 1080TIP3    H224876   0.372   2.239   7.533
 1081TIP3   OH224877   1.164   3.137   6.873
 1081TIP3    H124878   1.134   3.159   6.783
 1081TIP3    H224879   1.138   3.220   6.918
 1082TIP3   OH224880   0.657   2.973   7.464
 1082TIP3    H124881   0.595   3.048   7.478
 1082TIP3    H224882   0.732   3.023   7.426
 1083TIP3   OH224883   1.451   2.270   7.120
 1083TIP3    H124884   1.485   2.230   7.201
 1083TIP3    H224885   1.535   2.305   7.086
 1084TIP3   OH224886   0.363   2.407   7.267
 1084TIP3    H124887   0.430   2.465   7.311
 1084TIP3    H224888   0.412   2.377   7.188
 1085TIP3   OH224889   0.520   3.195   7.556
 1085TIP3    H124890   0.500   3.267   7.493
 1085TIP3    H224891   0.434   3.190   7.603
 1086TIP3   OH224892   0.143   3.181   6.617
 1086TIP3    H124893   0.103   3.120   6.552
 1086TIP3    H224894   0.163   3.127   6.694
 1087TIP3   OH224895   1.500   3.289   7.360
 1087TIP3    H124896   1.406   3.317   7.354
 1087TIP3    H224897   1.538   3.364   7.314
 1088TIP3   OH224898   1.445   2.182   7.522
 1088TIP3    H124899   1.455   2.250   7.455
 1088TIP3    H224900   1.525   2.126   7.509
 1089TIP3   OH224901   0.801   1.968   7.199
 1089TIP3    H124902   0.763   1.879   7.200
 1089TIP3    H224903   0.723   2.014   7.238
 1090TIP3   OH224904   1.359   3.476   6.981
 1090TIP3    H124905   1.384   3.387   6.953
 1090TIP3    H224906   1.431   3.534   6.947
 1091TIP3   OH224907   1.588   3.133   7.713
 1091TIP3    H124908   1.594   3.059   7.647
 1091TIP3    H224909   1.613   3.208   7.655
 1092TIP3   OH224910   1.810   2.780   7.506
 1092TIP3    H124911   1.736   2.843   7.500
 1092TIP3    H224912   1.868   2.815   7.435
 1093TIP3   OH224913   1.396   2.723   7.683
 1093TIP3    H124914   1.419   2.818   7.680
 1093TIP3    H224915   1.313   2.719   7.632
 1094TIP3   OH224916   0.556   2.894   6.973
 1094TIP3    H124917   0.515   2.854   6.892
 1094TIP3    H224918   0.625   2.827   6.996
 1095TIP3   OH224919   0.692   3.228   7.229
 1095TIP3    H124920   0.701   3.230   7.132
 1095TIP3    H224921   0.771   3.180   7.262
 1096TIP3   OH224922   0.600   2.759   7.322
 1096TIP3    H124923   0.625   2.763   7.227
 1096TIP3    H224924   0.642   2.840   7.358
 1097TIP3   OH224925   1.249   3.369   7.406
 1097TIP3    H124926   1.201   3.411   7.479
 1097TIP3    H224927   1.228   3.275   7.417
 1098TIP3   OH224928   0.678   3.192   7.781
 1098TIP3    H124929   0.612   3.253   7.822
 1098TIP3    H224930   0.636   3.178   7.692
 1099TIP3   OH224931   0.396   2.836   7.705
 1099TIP3    H124932   0.384   2.921   7.750
 1099TIP3    H224933   0.309   2.797   7.727
 1100TIP3   OH224934   1.082   3.435   6.902
 1100TIP3    H124935   1.101   3.508   6.965
 1100TIP3    H224936   1.015   3.477   6.846
 1101TIP3   OH224937   0.530   3.392   7.887
 1101TIP3    H124938   0.505   3.437   7.803
 1101TIP3    H224939   0.441   3.367   7.918
 1102TIP3   OH224940   1.615   1.916   6.545
 1102TIP3    H124941   1.520   1.923   6.564
 1102TIP3    H224942   1.648   1.982   6.609
 1103TIP3   OH224943   0.441   2.806   6.745
 1103TIP3    H124944   0.425   2.874   6.679
 1103TIP3    H224945   0.399   2.729   6.703
 1104TIP3   OH224946   0.127   3.039   7.621
 1104TIP3    H124947   0.039   3.044   7.581
 1104TIP3    H224948   0.141   2.942   7.619
 1105TIP3   OH224949   0.108   3.368   7.221
 1105TIP3    H124950   0.194   3.321   7.216
 1105TIP3    H224951   0.084   3.354   7.313
 1106TIP3   OH224952   1.846   3.396   7.881
 1106TIP3    H124953   1.828   3.301   7.867
 1106TIP3    H224954   1.761   3.424   7.923
 1107TIP3   OH224955   0.918   3.333   7.776
 1107TIP3    H124956   0.940   3.388   7.854
 1107TIP3    H224957   0.826   3.304   7.791
 1108TIP3   OH224958   0.981   3.683   6.703
 1108TIP3    H124959   0.988   3.732   6.617
 1108TIP3    H224960   0.971   3.760   6.761
 1109TIP3   OH224961   0.362   3.629   6.947
 1109TIP3    H124962   0.408   3.590   7.025
 1109TIP3    H224963   0.271   3.597   6.966
 1110TIP3   OH224964   1.309   3.638   6.386
 1110TIP3    H124965   1.346   3.549   6.377
 1110TIP3    H224966   1.269   3.637   6.473
 1111TIP3   OH224967   1.241   3.635   6.726
 1111TIP3    H124968   1.143   3.637   6.718
 1111TIP3    H224969   1.256   3.543   6.754
 1112TIP3   OH224970   1.565   2.517   7.894
 1112TIP3    H124971   1.553   2.547   7.801
 1112TIP3    H224972   1.565   2.419   7.881
 1113TIP3   OH224973   0.303   3.231   7.720
 1113TIP3    H124974   0.327   3.187   7.804
 1113TIP3    H224975   0.228   3.172   7.694
 1114TIP3   OH224976   0.574   2.052   7.298
 1114TIP3    H124977   0.492   2.034   7.247
 1114TIP3    H224978   0.542   2.128   7.351
 1115TIP3   OH224979   1.029   1.986   7.628
 1115TIP3    H124980   1.064   1.928   7.700
 1115TIP3    H224981   0.932   1.986   7.646
 1116TIP3   OH224982   1.300   2.427   7.714
 1116TIP3    H124983   1.238   2.367   7.762
 1116TIP3    H224984   1.254   2.433   7.629
 1117TIP3   OH224985   0.571   2.503   7.419
 1117TIP3    H124986   0.512   2.510   7.497
 1117TIP3    H224987   0.574   2.596   7.388
 1118TIP3   OH224988   0.561   2.538   6.946
 1118TIP3    H124989   0.464   2.554   6.933
 1118TIP3    H224990   0.580   2.506   6.855
 1119TIP3   OH224991   1.081   2.629   6.795
 1119TIP3    H124992   1.104   2.719   6.825
 1119TIP3    H224993   1.161   2.604   6.745
 1120TIP3   OH224994   1.032   2.620   7.942
 1120TIP3    H124995   0.984   2.536   7.961
 1120TIP3    H224996   1.039   2.655   8.032
 1121TIP3   OH224997   1.195   2.548   7.117
 1121TIP3    H124998   1.203   2.631   7.068
 1121TIP3    H224999   1.179   2.484   7.046
 1122TIP3   OH225000   0.328   2.508   7.578
 1122TIP3    H125001   0.316   2.549   7.665
 1122TIP3    H225002   0.288   2.419   7.590
 1123TIP3   OH225003   0.105   2.241   6.978
 1123TIP3    H125004   0.098   2.223   7.073
 1123TIP3    H225005   0.100   2.150   6.944
 1124TIP3   OH225006   1.132   2.678   7.542
 1124TIP3    H125007   1.187   2.619   7.486
 1124TIP3    H225008   1.078   2.612   7.592
 1125TIP3   OH225009   0.863   2.311   7.031
 1125TIP3    H125010   0.780   2.276   7.067
 1125TIP3    H225011   0.930   2.248   7.067
 1126TIP3   OH225012   0.300   2.503   6.881
 1126TIP3    H125013   0.211   2.525   6.845
 1126TIP3    H225014   0.318   2.425   6.826
 1127TIP3   OH225015   0.605   2.448   6.702
 1127TIP3    H125016   0.701   2.448   6.689
 1127TIP3    H225017   0.577   2.494   6.618
 1128TIP3   OH225018   1.227   2.243   7.327
 1128TIP3    H125019   1.184   2.170   7.374
 1128TIP3    H225020   1.242   2.209   7.237
 1129TIP3   OH225021   0.553   2.544   6.460
 1129TIP3    H125022   0.480   2.518   6.402
 1129TIP3    H225023   0.588   2.622   6.410
 1130TIP3   OH225024   1.552   3.768   8.009
 1130TIP3    H125025   1.585   3.806   7.925
 1130TIP3    H225026   1.631   3.776   8.065
 1131TIP3   OH225027   0.354   3.047   7.913
 1131TIP3    H125028   0.425   3.036   7.979
 1131TIP3    H225029   0.280   3.053   7.977
 1132TIP3   OH225030   0.901   2.591   7.205
 1132TIP3    H125031   0.984   2.548   7.179
 1132TIP3    H225032   0.848   2.519   7.244
 1133TIP3   OH225033   0.497   2.140   6.850
 1133TIP3    H125034   0.419   2.082   6.861
 1133TIP3    H225035   0.502   2.144   6.752
 1134TIP3   OH225036   0.808   2.381   7.447
 1134TIP3    H125037   0.729   2.436   7.429
 1134TIP3    H225038   0.862   2.442   7.499
 1135TIP3   OH225039   0.860   2.993   6.655
 1135TIP3    H125040   0.778   2.949   6.630
 1135TIP3    H225041   0.834   3.054   6.727
 1136TIP3   OH225042   1.606   2.969   7.503
 1136TIP3    H125043   1.651   3.018   7.428
 1136TIP3    H225044   1.517   2.956   7.464
 1137TIP3   OH225045   1.253   2.306   6.544
 1137TIP3    H125046   1.176   2.280   6.492
 1137TIP3    H225047   1.307   2.347   6.475
 1138TIP3   OH225048   1.016   3.049   7.761
 1138TIP3    H125049   0.941   3.019   7.816
 1138TIP3    H225050   1.013   3.144   7.777
 1139TIP3   OH225051   1.277   2.562   6.626
 1139TIP3    H125052   1.277   2.466   6.609
 1139TIP3    H225053   1.373   2.580   6.632
 1140TIP3   OH225054   0.436   2.981   7.227
 1140TIP3    H125055   0.473   2.949   7.143
 1140TIP3    H225056   0.397   2.899   7.262
 1141TIP3   OH225057   0.123   2.763   7.678
 1141TIP3    H125058   0.070   2.738   7.756
 1141TIP3    H225059   0.070   2.728   7.603
 1142TIP3   OH225060   0.791   2.758   7.890
 1142TIP3    H125061   0.728   2.698   7.845
 1142TIP3    H225062   0.877   2.713   7.876
 1143TIP3   OH225063   1.266   3.302   7.767
 1143TIP3    H125064   1.197   3.317   7.702
 1143TIP3    H225065   1.229   3.347   7.846
 1144TIP3   OH225066   1.831   3.119   7.843
 1144TIP3    H125067   1.736   3.117   7.819
 1144TIP3    H225068   1.873   3.109   7.755
 1145TIP3   OH225069   1.616   3.426   6.605
 1145TIP3    H125070   1.564   3.353   6.641
 1145TIP3    H225071   1.646   3.387   6.522
 1146TIP3   OH225072   1.371   2.869   7.371
 1146TIP3    H125073   1.278   2.848   7.358
 1146TIP3    H225074   1.414   2.803   7.312
 1147TIP3   OH225075   0.614   3.290   6.969
 1147TIP3    H125076   0.657   3.367   6.926
 1147TIP3    H225077   0.527   3.292   6.927
 1148TIP3   OH225078   0.786   3.108   6.888
 1148TIP3    H125079   0.719   3.170   6.925
 1148TIP3    H225080   0.753   3.023   6.922
 1149TIP3   OH225081   0.818   3.497   7.569
 1149TIP3    H125082   0.891   3.557   7.547
 1149TIP3    H225083   0.855   3.449   7.647
 1150TIP3   OH225084   0.628   3.536   6.837
 1150TIP3    H125085   0.541   3.575   6.854
 1150TIP3    H225086   0.686   3.614   6.842
 1151TIP3   OH225087   1.115   3.086   7.507
 1151TIP3    H125088   1.079   3.066   7.596
 1151TIP3    H225089   1.187   3.020   7.503
 1152TIP3   OH225090   1.442   3.565   7.745
 1152TIP3    H125091   1.353   3.528   7.728
 1152TIP3    H225092   1.454   3.625   7.667
 1153TIP3   OH225093   0.252   2.255   7.661
 1153TIP3    H125094   0.235   2.283   7.753
 1153TIP3    H225095   0.238   2.160   7.673
 1154TIP3   OH225096   0.222   3.456   7.495
 1154TIP3    H125097   0.269   3.375   7.525
 1154TIP3    H225098   0.143   3.456   7.551
 1155TIP3   OH225099   1.144   2.225   7.621
 1155TIP3    H125100   1.229   2.206   7.575
 1155TIP3    H225101   1.101   2.137   7.624
 1156TIP3   OH225102   1.182   2.132   6.735
 1156TIP3    H125103   1.213   2.195   6.667
 1156TIP3    H225104   1.223   2.176   6.813
 1157TIP3   OH225105   0.917   3.480   6.486
 1157TIP3    H125106   0.955   3.527   6.563
 1157TIP3    H225107   0.974   3.401   6.476
 1158TIP3   OH225108   0.886   2.405   6.721
 1158TIP3    H125109   0.940   2.478   6.753
 1158TIP3    H225110   0.868   2.357   6.803
 1159TIP3   OH225111   1.001   2.494   7.680
 1159TIP3    H125112   0.990   2.519   7.774
 1159TIP3    H225113   1.023   2.399   7.683
 1160TIP3   OH225114   0.940   2.089   6.826
 1160TIP3    H125115   0.956   2.114   6.918
 1160TIP3    H225116   1.029   2.112   6.790
 1161TIP3   OH225117   0.532   2.190   6.587
 1161TIP3    H125118   0.534   2.286   6.608
 1161TIP3    H225119   0.627   2.170   6.580
 1162TIP3   OH225120   1.559   2.276   7.775
 1162TIP3    H125121   1.472   2.275   7.731
 1162TIP3    H225122   1.617   2.262   7.699
 1163TIP3   OH225123   1.460   2.681   7.189
 1163TIP3    H125124   1.395   2.611   7.180
 1163TIP3    H225125   1.539   2.629   7.218
 1164TIP3   OH225126   1.535   3.568   7.302
 1164TIP3    H125127   1.527   3.649   7.247
 1164TIP3    H225128   1.632   3.565   7.307
 1165TIP3   OH225129   0.334   1.999   7.209
 1165TIP3    H125130   0.326   1.972   7.115
 1165TIP3    H225131   0.296   1.919   7.254
 1166TIP3   OH225132   0.204   3.375   6.906
 1166TIP3    H125133   0.135   3.421   6.957
 1166TIP3    H225134   0.202   3.415   6.819
 1167TIP3   OH225135   0.167   3.602   7.928
 1167TIP3    H125136   0.205   3.620   8.016
 1167TIP3    H225137   0.100   3.533   7.951
 1168TIP3   OH225138   0.628   3.535   8.129
 1168TIP3    H125139   0.724   3.527   8.119
 1168TIP3    H225140   0.596   3.491   8.049
 1169TIP3   OH225141   1.204   3.409   8.004
 1169TIP3    H125142   1.186   3.319   8.039
 1169TIP3    H225143   1.296   3.419   8.036
 1170TIP3   OH225144   0.153   3.023   8.087
 1170TIP3    H125145   0.175   2.934   8.119
 1170TIP3    H225146   0.062   3.013   8.052
 1171TIP3   OH225147   0.773   3.015   7.953
 1171TIP3    H125148   0.738   3.076   7.884
 1171TIP3    H225149   0.775   2.927   7.908
 1172TIP3   OH225150   1.337   3.015   7.764
 1172TIP3    H125151   1.416   3.075   7.762
 1172TIP3    H225152   1.266   3.082   7.771
 1173TIP3   OH225153   0.201   2.733   8.000
 1173TIP3    H125154   0.253   2.651   7.996
 1173TIP3    H225155   0.171   2.724   8.093
 1174TIP3   OH225156   0.577   2.645   7.697
 1174TIP3    H125157   0.501   2.706   7.704
 1174TIP3    H225158   0.637   2.699   7.641
 1175TIP3   OH225159   1.132   2.906   8.078
 1175TIP3    H125160   1.216   2.865   8.053
 1175TIP3    H225161   1.095   2.844   8.143
 1176TIP3   OH225162   0.657   2.412   7.790
 1176TIP3    H125163   0.673   2.356   7.712
 1176TIP3    H225164   0.634   2.499   7.749
 1177TIP3   OH225165   0.682   2.192   7.593
 1177TIP3    H125166   0.717   2.249   7.522
 1177TIP3    H225167   0.586   2.191   7.571
 1178TIP3   OH225168   0.806   2.779   7.583
 1178TIP3    H125169   0.891   2.823   7.579
 1178TIP3    H225170   0.749   2.849   7.544
 1179TIP3   OH225171   1.252   2.521   8.149
 1179TIP3    H125172   1.223   2.428   8.149
 1179TIP3    H225173   1.310   2.522   8.227
 1180TIP3   OH225174   1.416   2.848   7.960
 1180TIP3    H125175   1.377   2.906   7.890
 1180TIP3    H225176   1.506   2.837   7.924
 1181TIP3   OH225177   0.502   2.475   8.014
 1181TIP3    H125178   0.413   2.436   8.005
 1181TIP3    H225179   0.544   2.448   7.930
 1182TIP3   OH225180   0.763   1.945   7.644
 1182TIP3    H125181   0.745   2.041   7.634
 1182TIP3    H225182   0.681   1.912   7.601
 1183TIP3   OH225183   0.856   2.422   8.008
 1183TIP3    H125184   0.823   2.384   8.092
 1183TIP3    H225185   0.793   2.381   7.946
 1184TIP3   OH225186   1.154   2.323   7.922
 1184TIP3    H125187   1.061   2.298   7.922
 1184TIP3    H225188   1.188   2.255   7.985
 1185TIP3   OH225189   1.225   2.129   8.096
 1185TIP3    H125190   1.267   2.040   8.098
 1185TIP3    H225191   1.268   2.176   8.171
 1186TIP3   OH225192   0.299   2.287   7.990
 1186TIP3    H125193   0.272   2.199   7.959
 1186TIP3    H225194   0.291   2.276   8.089
 1187TIP3   OH225195   0.742   1.887   7.914
 1187TIP3    H125196   0.818   1.826   7.920
 1187TIP3    H225197   0.736   1.890   7.816
 1188TIP3   OH225198   0.759   2.020   8.162
 1188TIP3    H125199   0.758   1.977   8.075
 1188TIP3    H225200   0.694   2.090   8.147
 1189TIP3   OH225201   0.060   3.728   6.831
 1189TIP3    H125202  -0.010   3.795   6.844
 1189TIP3    H225203   0.069   3.692   6.921
 1190TIP3   OH225204   0.108   3.585   7.061
 1190TIP3    H125205   0.083   3.500   7.105
 1190TIP3    H225206   0.157   3.622   7.136
 1191TIP3   OH225207   1.813   3.631   7.337
 1191TIP3    H125208   1.845   3.656   7.425
 1191TIP3    H225209   1.891   3.642   7.281
 1192TIP3   OH225210   1.782   3.588   7.655
 1192TIP3    H125211   1.747   3.508   7.610
 1192TIP3    H225212   1.806   3.553   7.742
 1193TIP3   OH225213   1.660   3.166   8.141
 1193TIP3    H125214   1.576   3.174   8.190
 1193TIP3    H225215   1.696   3.257   8.153
 1194TIP3   OH225216   1.776   3.089   7.340
 1194TIP3    H125217   1.838   3.023   7.304
 1194TIP3    H225218   1.815   3.172   7.306
 1195TIP3   OH225219   1.642   3.364   7.579
 1195TIP3    H125220   1.569   3.399   7.633
 1195TIP3    H225221   1.594   3.341   7.496
 1196TIP3   OH225222   0.061   2.905   7.301
 1196TIP3    H125223   0.094   2.876   7.212
 1196TIP3    H225224   0.148   2.910   7.346
 1197TIP3   OH225225   1.701   2.838   7.887
 1197TIP3    H125226   1.740   2.749   7.908
 1197TIP3    H225227   1.776   2.885   7.843
 1198TIP3   OH225228   1.808   2.608   7.975
 1198TIP3    H125229   1.729   2.556   7.952
 1198TIP3    H225230   1.879   2.543   7.953
 1199TIP3   OH225231   1.640   2.506   7.299
 1199TIP3    H125232   1.739   2.517   7.308
 1199TIP3    H225233   1.618   2.452   7.376
 1200TIP3   OH225234   1.635   2.569   7.596
 1200TIP3    H125235   1.548   2.602   7.568
 1200TIP3    H225236   1.692   2.643   7.566
 1201TIP3   OH225237   0.084   2.434   7.966
 1201TIP3    H125238   0.173   2.402   7.991
 1201TIP3    H225239   0.033   2.350   7.961
 1202TIP3   OH225240   1.857   1.985   8.095
 1202TIP3    H125241   1.897   1.908   8.050
 1202TIP3    H225242   1.864   2.052   8.023
 1203TIP3   OH225243   1.617   2.084   6.752
 1203TIP3    H125244   1.644   2.083   6.846
 1203TIP3    H225245   1.526   2.048   6.754
 1204TIP3   OH225246   0.151   2.217   7.255
 1204TIP3    H125247   0.211   2.141   7.271
 1204TIP3    H225248   0.213   2.291   7.265
 1205TIP3   OH225249   0.041   2.651   7.400
 1205TIP3    H125250   0.099   2.603   7.339
 1205TIP3    H225251   0.037   2.737   7.352
 1206TIP3   OH225252   1.797   2.194   7.933
 1206TIP3    H125253   1.731   2.213   8.002
 1206TIP3    H225254   1.741   2.149   7.867
 1207TIP3   OH225255   1.489   3.700   6.923
 1207TIP3    H125256   1.558   3.673   6.859
 1207TIP3    H225257   1.537   3.731   7.001
 1208TIP3   OH225258   0.049   1.979   7.538
 1208TIP3    H125259   0.016   2.022   7.617
 1208TIP3    H225260   0.024   2.042   7.469
 1209TIP3   OH225261   0.276   3.348   7.987
 1209TIP3    H125262   0.234   3.394   7.913
 1209TIP3    H225263   0.201   3.302   8.028
 1210TIP3   OH225264   0.531   3.499   7.625
 1210TIP3    H125265   0.545   3.589   7.589
 1210TIP3    H225266   0.622   3.466   7.624
 1211TIP3   OH225267   0.953   3.588   7.880
 1211TIP3    H125268   0.967   3.570   7.975
 1211TIP3    H225269   1.039   3.630   7.858
 1212TIP3   OH225270   1.163   3.768   7.845
 1212TIP3    H125271   1.246   3.731   7.811
 1212TIP3    H225272   1.194   3.824   7.919
 1213TIP3   OH225273   1.667   1.939   7.764
 1213TIP3    H125274   1.643   1.990   7.685
 1213TIP3    H225275   1.682   1.853   7.719
 1214TIP3   OH225276   0.303   3.805   7.586
 1214TIP3    H125277   0.211   3.817   7.553
 1214TIP3    H225278   0.284   3.757   7.668
 1215TIP3   OH225279   0.551   3.740   7.507
 1215TIP3    H125280   0.457   3.753   7.531
 1215TIP3    H225281   0.557   3.799   7.429
 1216TIP3   OH225282   0.980   3.709   7.433
 1216TIP3    H125283   0.900   3.749   7.396
 1216TIP3    H225284   1.009   3.781   7.493
 1217TIP3   OH225285   1.194   3.569   7.570
 1217TIP3    H125286   1.131   3.618   7.513
 1217TIP3    H225287   1.277   3.603   7.531
 1218TIP3   OH225288   1.462   3.711   7.523
 1218TIP3    H125289   1.475   3.799   7.483
 1218TIP3    H225290   1.490   3.651   7.451
 1219TIP3   OH225291   0.261   3.647   7.299
 1219TIP3    H125292   0.232   3.589   7.372
 1219TIP3    H225293   0.344   3.598   7.277
 1220TIP3   OH225294   0.468   3.521   7.185
 1220TIP3    H125295   0.454   3.425   7.201
 1220TIP3    H225296   0.559   3.528   7.220
 1221TIP3   OH225297   0.688   3.523   7.324
 1221TIP3    H125298   0.743   3.442   7.323
 1221TIP3    H225299   0.697   3.548   7.418
 1222TIP3   OH225300   1.009   2.107   7.104
 1222TIP3    H125301   0.937   2.056   7.146
 1222TIP3    H225302   1.088   2.052   7.122
 1223TIP3   OH225303   1.552   1.883   7.141
 1223TIP3    H125304   1.612   1.957   7.114
 1223TIP3    H225305   1.471   1.931   7.167
 1224TIP3   OH225306   1.711   2.039   7.004
 1224TIP3    H125307   1.774   1.973   6.970
 1224TIP3    H225308   1.772   2.111   7.031
 1225TIP3   OH225309   0.308   1.952   6.948
 1225TIP3    H125310   0.232   1.981   6.894
 1225TIP3    H225311   0.331   1.864   6.910
 1226TIP3   OH225312   0.676   1.894   6.923
 1226TIP3    H125313   0.698   1.962   6.857
 1226TIP3    H225314   0.709   1.937   7.003
 1227TIP3   OH225315   1.249   1.976   7.083
 1227TIP3    H125316   1.291   1.976   6.996
 1227TIP3    H225317   1.229   1.880   7.097
 1228TIP3   OH225318   1.369   1.968   6.632
 1228TIP3    H125319   1.288   2.013   6.667
 1228TIP3    H225320   1.349   1.874   6.653
 1229TIP3   OH225321   0.262   3.568   6.618
 1229TIP3    H125322   0.293   3.629   6.549
 1229TIP3    H225323   0.267   3.629   6.693
 1230TIP3   OH225324   0.802   2.162   6.598
 1230TIP3    H125325   0.835   2.152   6.689
 1230TIP3    H225326   0.859   2.235   6.566
 1231TIP3   OH225327   1.682   3.653   6.745
 1231TIP3    H125328   1.663   3.574   6.689
 1231TIP3    H225329   1.689   3.724   6.676
 1232TIP3   OH225330   0.221   2.015   7.897
 1232TIP3    H125331   0.197   1.920   7.901
 1232TIP3    H225332   0.311   2.013   7.936
 1233TIP3   OH225333   0.440   1.969   8.077
 1233TIP3    H125334   0.512   1.909   8.050
 1233TIP3    H225335   0.383   1.911   8.130
 1234TIP3   OH225336   1.311   1.882   8.109
 1234TIP3    H125337   1.327   1.841   8.197
 1234TIP3    H225338   1.399   1.871   8.068
 1235TIP3   OH225339   1.617   3.516   7.940
 1235TIP3    H125340   1.545   3.502   7.874
 1235TIP3    H225341   1.601   3.610   7.962
 1236TIP3   OH225342   3.097   2.916   6.935
 1236TIP3    H125343   3.095   3.010   6.960
 1236TIP3    H225344   3.014   2.907   6.885
 1237TIP3   OH225345   2.963   2.771   7.278
 1237TIP3    H125346   2.969   2.742   7.371
 1237TIP3    H225347   2.900   2.707   7.239
 1238TIP3   OH225348   2.167   2.777   7.413
 1238TIP3    H125349   2.158   2.697   7.469
 1238TIP3    H225350   2.256   2.807   7.441
 1239TIP3   OH225351   3.295   3.107   7.104
 1239TIP3    H125352   3.264   3.037   7.163
 1239TIP3    H225353   3.330   3.170   7.169
 1240TIP3   OH225354   2.263   3.245   7.248
 1240TIP3    H125355   2.235   3.153   7.227
 1240TIP3    H225356   2.359   3.231   7.242
 1241TIP3   OH225357   1.976   2.561   6.807
 1241TIP3    H125358   1.938   2.631   6.862
 1241TIP3    H225359   1.901   2.521   6.762
 1242TIP3   OH225360   2.023   2.817   7.051
 1242TIP3    H125361   2.070   2.740   7.091
 1242TIP3    H225362   2.092   2.885   7.043
 1243TIP3   OH225363   3.027   3.635   7.127
 1243TIP3    H125364   3.095   3.581   7.079
 1243TIP3    H225365   3.008   3.573   7.199
 1244TIP3   OH225366   2.783   3.023   7.367
 1244TIP3    H125367   2.820   2.976   7.290
 1244TIP3    H225368   2.864   3.058   7.409
 1245TIP3   OH225369   3.640   2.198   7.344
 1245TIP3    H125370   3.667   2.259   7.415
 1245TIP3    H225371   3.720   2.192   7.291
 1246TIP3   OH225372   3.147   2.515   7.389
 1246TIP3    H125373   3.172   2.421   7.396
 1246TIP3    H225374   3.103   2.518   7.303
 1247TIP3   OH225375   2.444   2.283   7.047
 1247TIP3    H125376   2.449   2.373   7.011
 1247TIP3    H225377   2.382   2.240   6.984
 1248TIP3   OH225378   3.205   2.326   6.934
 1248TIP3    H125379   3.253   2.295   7.015
 1248TIP3    H225380   3.265   2.396   6.903
 1249TIP3   OH225381   2.109   2.588   7.168
 1249TIP3    H125382   2.170   2.533   7.221
 1249TIP3    H225383   2.113   2.540   7.083
 1250TIP3   OH225384   2.559   2.707   7.104
 1250TIP3    H125385   2.641   2.666   7.140
 1250TIP3    H225386   2.520   2.629   7.059
 1251TIP3   OH225387   3.663   2.339   7.604
 1251TIP3    H125388   3.628   2.421   7.563
 1251TIP3    H225389   3.682   2.370   7.694
 1252TIP3   OH225390   2.324   2.203   7.492
 1252TIP3    H125391   2.282   2.240   7.412
 1252TIP3    H225392   2.261   2.230   7.563
 1253TIP3   OH225393   3.030   3.170   6.846
 1253TIP3    H125394   3.017   3.158   6.750
 1253TIP3    H225395   2.987   3.256   6.860
 1254TIP3   OH225396   2.543   2.969   7.471
 1254TIP3    H125397   2.486   3.044   7.500
 1254TIP3    H225398   2.620   3.016   7.432
 1255TIP3   OH225399   3.379   2.312   7.147
 1255TIP3    H125400   3.395   2.230   7.195
 1255TIP3    H225401   3.420   2.375   7.211
 1256TIP3   OH225402   2.274   2.389   7.271
 1256TIP3    H125403   2.338   2.451   7.312
 1256TIP3    H225404   2.327   2.349   7.200
 1257TIP3   OH225405   2.414   3.182   7.563
 1257TIP3    H125406   2.397   3.265   7.516
 1257TIP3    H225407   2.329   3.174   7.614
 1258TIP3   OH225408   2.007   3.165   6.612
 1258TIP3    H125409   2.026   3.230   6.539
 1258TIP3    H225410   1.925   3.201   6.647
 1259TIP3   OH225411   3.365   3.293   7.328
 1259TIP3    H125412   3.272   3.319   7.348
 1259TIP3    H225413   3.395   3.376   7.289
 1260TIP3   OH225414   3.358   2.114   7.462
 1260TIP3    H125415   3.283   2.124   7.400
 1260TIP3    H225416   3.431   2.152   7.411
 1261TIP3   OH225417   2.672   1.947   7.210
 1261TIP3    H125418   2.641   1.856   7.220
 1261TIP3    H225419   2.591   1.995   7.242
 1262TIP3   OH225420   3.213   3.490   6.990
 1262TIP3    H125421   3.246   3.412   6.941
 1262TIP3    H225422   3.285   3.554   6.968
 1263TIP3   OH225423   3.314   3.261   6.855
 1263TIP3    H125424   3.276   3.194   6.797
 1263TIP3    H225425   3.297   3.215   6.939
 1264TIP3   OH225426   3.474   3.130   7.717
 1264TIP3    H125427   3.493   3.058   7.652
 1264TIP3    H225428   3.494   3.208   7.662
 1265TIP3   OH225429   2.942   2.808   6.692
 1265TIP3    H125430   2.880   2.880   6.670
 1265TIP3    H225431   2.995   2.799   6.610
 1266TIP3   OH225432   3.676   2.777   7.500
 1266TIP3    H125433   3.611   2.849   7.499
 1266TIP3    H225434   3.742   2.811   7.436
 1267TIP3   OH225435   3.290   2.797   6.788
 1267TIP3    H125436   3.227   2.847   6.845
 1267TIP3    H225437   3.359   2.774   6.853
 1268TIP3   OH225438   3.281   2.681   7.686
 1268TIP3    H125439   3.284   2.773   7.716
 1268TIP3    H225440   3.202   2.686   7.631
 1269TIP3   OH225441   2.450   2.905   6.960
 1269TIP3    H125442   2.411   2.862   6.882
 1269TIP3    H225443   2.507   2.833   6.996
 1270TIP3   OH225444   2.570   3.231   7.227
 1270TIP3    H125445   2.577   3.219   7.131
 1270TIP3    H225446   2.653   3.193   7.260
 1271TIP3   OH225447   2.435   2.771   7.342
 1271TIP3    H125448   2.481   2.766   7.255
 1271TIP3    H225449   2.489   2.840   7.387
 1272TIP3   OH225450   3.119   3.342   7.414
 1272TIP3    H125451   3.096   3.400   7.488
 1272TIP3    H225452   3.099   3.253   7.450
 1273TIP3   OH225453   2.568   3.218   7.781
 1273TIP3    H125454   2.496   3.266   7.827
 1273TIP3    H225455   2.525   3.202   7.695
 1274TIP3   OH225456   3.174   2.787   6.551
 1274TIP3    H125457   3.206   2.788   6.646
 1274TIP3    H225458   3.244   2.837   6.510
 1275TIP3   OH225459   2.282   2.845   7.676
 1275TIP3    H125460   2.290   2.936   7.708
 1275TIP3    H225461   2.206   2.815   7.727
 1276TIP3   OH225462   2.944   3.421   6.879
 1276TIP3    H125463   3.032   3.437   6.915
 1276TIP3    H225464   2.886   3.446   6.951
 1277TIP3   OH225465   2.396   3.392   7.897
 1277TIP3    H125466   2.388   3.424   7.805
 1277TIP3    H225467   2.302   3.369   7.915
 1278TIP3   OH225468   3.563   1.945   6.570
 1278TIP3    H125469   3.469   1.935   6.597
 1278TIP3    H225470   3.554   1.998   6.491
 1279TIP3   OH225471   3.700   3.407   6.420
 1279TIP3    H125472   3.659   3.405   6.333
 1279TIP3    H225473   3.781   3.355   6.405
 1280TIP3   OH225474   1.986   3.054   7.623
 1280TIP3    H125475   1.955   3.045   7.532
 1280TIP3    H225476   2.006   2.961   7.645
 1281TIP3   OH225477   1.910   3.333   7.287
 1281TIP3    H125478   2.006   3.321   7.278
 1281TIP3    H225479   1.905   3.401   7.355
 1282TIP3   OH225480   3.737   3.386   7.869
 1282TIP3    H125481   3.727   3.290   7.878
 1282TIP3    H225482   3.653   3.416   7.912
 1283TIP3   OH225483   2.836   3.334   7.778
 1283TIP3    H125484   2.849   3.408   7.842
 1283TIP3    H225485   2.742   3.308   7.793
 1284TIP3   OH225486   2.251   3.605   6.933
 1284TIP3    H125487   2.272   3.566   7.021
 1284TIP3    H225488   2.175   3.549   6.904
 1285TIP3   OH225489   3.130   3.650   6.720
 1285TIP3    H125490   3.063   3.634   6.787
 1285TIP3    H225491   3.206   3.600   6.750
 1286TIP3   OH225492   3.424   2.510   7.918
 1286TIP3    H125493   3.383   2.553   7.841
 1286TIP3    H225494   3.433   2.419   7.883
 1287TIP3   OH225495   2.199   3.185   7.719
 1287TIP3    H125496   2.198   3.144   7.809
 1287TIP3    H225497   2.113   3.150   7.683
 1288TIP3   OH225498   2.459   2.069   7.310
 1288TIP3    H125499   2.372   2.081   7.268
 1288TIP3    H225500   2.437   2.099   7.401
 1289TIP3   OH225501   2.951   1.997   7.618
 1289TIP3    H125502   2.995   1.937   7.682
 1289TIP3    H225503   2.858   1.993   7.649
 1290TIP3   OH225504   3.215   2.408   7.712
 1290TIP3    H125505   3.177   2.383   7.799
 1290TIP3    H225506   3.167   2.490   7.691
 1291TIP3   OH225507   2.883   2.281   6.409
 1291TIP3    H125508   2.837   2.241   6.486
 1291TIP3    H225509   2.822   2.247   6.341
 1292TIP3   OH225510   2.452   2.519   7.422
 1292TIP3    H125511   2.373   2.514   7.480
 1292TIP3    H225512   2.451   2.616   7.402
 1293TIP3   OH225513   2.442   2.527   6.920
 1293TIP3    H125514   2.348   2.514   6.893
 1293TIP3    H225515   2.492   2.482   6.851
 1294TIP3   OH225516   3.008   2.582   6.822
 1294TIP3    H125517   2.976   2.666   6.783
 1294TIP3    H225518   3.068   2.550   6.753
 1295TIP3   OH225519   2.913   2.627   7.951
 1295TIP3    H125520   2.872   2.547   7.988
 1295TIP3    H225521   2.998   2.623   7.999
 1296TIP3   OH225522   3.075   2.552   7.096
 1296TIP3    H125523   3.073   2.638   7.049
 1296TIP3    H225524   3.083   2.492   7.019
 1297TIP3   OH225525   2.203   2.531   7.553
 1297TIP3    H125526   2.246   2.566   7.632
 1297TIP3    H225527   2.174   2.443   7.586
 1298TIP3   OH225528   1.888   2.234   7.017
 1298TIP3    H125529   1.961   2.226   7.081
 1298TIP3    H225530   1.928   2.221   6.928
 1299TIP3   OH225531   1.997   2.364   6.591
 1299TIP3    H125532   2.053   2.409   6.528
 1299TIP3    H225533   1.912   2.407   6.570
 1300TIP3   OH225534   3.009   2.698   7.528
 1300TIP3    H125535   3.070   2.630   7.490
 1300TIP3    H225536   2.950   2.642   7.585
 1301TIP3   OH225537   2.736   2.272   7.035
 1301TIP3    H125538   2.642   2.248   7.050
 1301TIP3    H225539   2.777   2.251   7.121
 1302TIP3   OH225540   2.185   2.433   6.913
 1302TIP3    H125541   2.120   2.470   6.849
 1302TIP3    H225542   2.186   2.338   6.889
 1303TIP3   OH225543   3.148   2.212   7.326
 1303TIP3    H125544   3.072   2.215   7.387
 1303TIP3    H225545   3.111   2.161   7.249
 1304TIP3   OH225546   3.436   3.764   8.014
 1304TIP3    H125547   3.474   3.791   7.928
 1304TIP3    H225548   3.517   3.771   8.069
 1305TIP3   OH225549   2.219   3.016   7.929
 1305TIP3    H125550   2.289   3.042   7.992
 1305TIP3    H225551   2.143   3.002   7.989
 1306TIP3   OH225552   2.778   2.560   7.178
 1306TIP3    H125553   2.869   2.533   7.153
 1306TIP3    H225554   2.751   2.490   7.240
 1307TIP3   OH225555   2.273   2.157   6.885
 1307TIP3    H125556   2.231   2.085   6.937
 1307TIP3    H225557   2.314   2.106   6.813
 1308TIP3   OH225558   2.685   2.376   7.434
 1308TIP3    H125559   2.605   2.432   7.420
 1308TIP3    H225560   2.739   2.432   7.492
 1309TIP3   OH225561   2.757   3.025   6.635
 1309TIP3    H125562   2.707   3.070   6.565
 1309TIP3    H225563   2.716   3.060   6.717
 1310TIP3   OH225564   3.499   2.980   7.506
 1310TIP3    H125565   3.544   3.042   7.443
 1310TIP3    H225566   3.414   2.966   7.460
 1311TIP3   OH225567   3.151   2.283   6.489
 1311TIP3    H125568   3.057   2.293   6.459
 1311TIP3    H225569   3.179   2.376   6.506
 1312TIP3   OH225570   2.849   3.061   7.728
 1312TIP3    H125571   2.853   3.034   7.820
 1312TIP3    H225572   2.841   3.158   7.738
 1313TIP3   OH225573   3.208   2.519   6.599
 1313TIP3    H125574   3.276   2.498   6.666
 1313TIP3    H225575   3.230   2.610   6.576
 1314TIP3   OH225576   2.276   2.970   7.177
 1314TIP3    H125577   2.355   2.948   7.124
 1314TIP3    H225578   2.276   2.899   7.243
 1315TIP3   OH225579   2.960   3.182   6.573
 1315TIP3    H125580   2.920   3.226   6.497
 1315TIP3    H225581   2.896   3.107   6.585
 1316TIP3   OH225582   1.972   2.798   7.733
 1316TIP3    H125583   1.965   2.739   7.810
 1316TIP3    H225584   1.914   2.757   7.666
 1317TIP3   OH225585   2.681   2.757   7.894
 1317TIP3    H125586   2.636   2.677   7.862
 1317TIP3    H225587   2.773   2.725   7.906
 1318TIP3   OH225588   3.155   3.281   7.771
 1318TIP3    H125589   3.084   3.293   7.706
 1318TIP3    H225590   3.118   3.335   7.844
 1319TIP3   OH225591   3.686   2.530   6.601
 1319TIP3    H125592   3.623   2.512   6.528
 1319TIP3    H225593   3.725   2.614   6.571
 1320TIP3   OH225594   3.729   3.114   7.833
 1320TIP3    H125595   3.638   3.120   7.792
 1320TIP3    H225596   3.783   3.097   7.753
 1321TIP3   OH225597   3.478   3.386   6.607
 1321TIP3    H125598   3.493   3.345   6.693
 1321TIP3    H225599   3.566   3.394   6.565
 1322TIP3   OH225600   3.260   2.880   7.318
 1322TIP3    H125601   3.168   2.860   7.297
 1322TIP3    H225602   3.307   2.813   7.266
 1323TIP3   OH225603   2.485   3.322   6.942
 1323TIP3    H125604   2.497   3.412   6.904
 1323TIP3    H225605   2.390   3.313   6.933
 1324TIP3   OH225606   2.648   3.108   6.895
 1324TIP3    H125607   2.596   3.190   6.908
 1324TIP3    H225608   2.591   3.040   6.934
 1325TIP3   OH225609   2.686   3.511   7.591
 1325TIP3    H125610   2.758   3.561   7.549
 1325TIP3    H225611   2.737   3.459   7.656
 1326TIP3   OH225612   2.502   3.572   6.836
 1326TIP3    H125613   2.408   3.590   6.858
 1326TIP3    H225614   2.543   3.654   6.871
 1327TIP3   OH225615   3.006   3.094   7.500
 1327TIP3    H125616   2.963   3.063   7.584
 1327TIP3    H225617   3.048   3.013   7.466
 1328TIP3   OH225618   3.336   3.560   7.744
 1328TIP3    H125619   3.247   3.523   7.734
 1328TIP3    H225620   3.339   3.621   7.666
 1329TIP3   OH225621   2.153   2.281   7.691
 1329TIP3    H125622   2.095   2.324   7.756
 1329TIP3    H225623   2.126   2.188   7.707
 1330TIP3   OH225624   2.085   3.446   7.508
 1330TIP3    H125625   2.161   3.390   7.532
 1330TIP3    H225626   2.068   3.495   7.590
 1331TIP3   OH225627   2.217   3.014   6.518
 1331TIP3    H125628   2.134   3.038   6.564
 1331TIP3    H225629   2.233   3.095   6.467
 1332TIP3   OH225630   2.994   2.266   7.603
 1332TIP3    H125631   3.082   2.277   7.646
 1332TIP3    H225632   2.976   2.171   7.621
 1333TIP3   OH225633   3.061   2.225   6.734
 1333TIP3    H125634   3.098   2.245   6.646
 1333TIP3    H225635   3.126   2.266   6.796
 1334TIP3   OH225636   2.770   2.431   6.803
 1334TIP3    H125637   2.853   2.481   6.811
 1334TIP3    H225638   2.765   2.379   6.886
 1335TIP3   OH225639   2.890   2.524   7.690
 1335TIP3    H125640   2.892   2.545   7.786
 1335TIP3    H225641   2.919   2.431   7.683
 1336TIP3   OH225642   2.877   2.092   6.884
 1336TIP3    H125643   2.827   2.159   6.936
 1336TIP3    H225644   2.949   2.148   6.845
 1337TIP3   OH225645   3.446   2.283   7.771
 1337TIP3    H125646   3.355   2.312   7.745
 1337TIP3    H225647   3.489   2.272   7.684
 1338TIP3   OH225648   3.348   2.633   7.171
 1338TIP3    H125649   3.273   2.575   7.193
 1338TIP3    H225650   3.420   2.591   7.222
 1339TIP3   OH225651   2.054   2.489   6.348
 1339TIP3    H125652   2.095   2.572   6.319
 1339TIP3    H225653   1.970   2.525   6.385
 1340TIP3   OH225654   3.418   3.577   7.331
 1340TIP3    H125655   3.427   3.639   7.255
 1340TIP3    H225656   3.512   3.572   7.355
 1341TIP3   OH225657   2.196   2.007   7.260
 1341TIP3    H125658   2.198   1.969   7.170
 1341TIP3    H225659   2.158   1.930   7.308
 1342TIP3   OH225660   2.067   3.437   6.840
 1342TIP3    H125661   1.976   3.470   6.846
 1342TIP3    H225662   2.077   3.416   6.747
 1343TIP3   OH225663   1.983   3.684   7.974
 1343TIP3    H125664   2.040   3.674   8.054
 1343TIP3    H225665   1.950   3.593   7.968
 1344TIP3   OH225666   2.497   3.511   8.141
 1344TIP3    H125667   2.587   3.475   8.145
 1344TIP3    H225668   2.463   3.469   8.059
 1345TIP3   OH225669   3.092   3.418   8.002
 1345TIP3    H125670   3.073   3.329   8.040
 1345TIP3    H225671   3.184   3.427   8.039
 1346TIP3   OH225672   1.967   3.022   8.060
 1346TIP3    H125673   1.924   2.936   8.062
 1346TIP3    H225674   1.925   3.063   7.981
 1347TIP3   OH225675   2.649   3.017   7.952
 1347TIP3    H125676   2.622   3.081   7.883
 1347TIP3    H225677   2.661   2.932   7.903
 1348TIP3   OH225678   3.220   3.018   7.765
 1348TIP3    H125679   3.306   3.067   7.759
 1348TIP3    H225680   3.165   3.098   7.767
 1349TIP3   OH225681   2.099   2.727   8.007
 1349TIP3    H125682   2.168   2.664   8.028
 1349TIP3    H225683   2.110   2.791   8.081
 1350TIP3   OH225684   2.448   2.640   7.678
 1350TIP3    H125685   2.397   2.724   7.686
 1350TIP3    H225686   2.532   2.676   7.642
 1351TIP3   OH225687   3.015   2.932   8.074
 1351TIP3    H125688   3.071   2.886   8.010
 1351TIP3    H225689   2.986   2.861   8.133
 1352TIP3   OH225690   2.574   2.429   7.796
 1352TIP3    H125691   2.589   2.362   7.727
 1352TIP3    H225692   2.543   2.506   7.743
 1353TIP3   OH225693   2.571   2.201   7.609
 1353TIP3    H125694   2.610   2.250   7.533
 1353TIP3    H225695   2.475   2.202   7.586
 1354TIP3   OH225696   2.698   2.784   7.586
 1354TIP3    H125697   2.782   2.824   7.561
 1354TIP3    H225698   2.635   2.855   7.560
 1355TIP3   OH225699   3.103   2.568   8.135
 1355TIP3    H125700   3.120   2.485   8.184
 1355TIP3    H225701   3.192   2.591   8.104
 1356TIP3   OH225702   3.302   2.860   7.966
 1356TIP3    H125703   3.267   2.910   7.889
 1356TIP3    H225704   3.393   2.839   7.937
 1357TIP3   OH225705   2.397   2.483   8.018
 1357TIP3    H125706   2.313   2.441   7.989
 1357TIP3    H225707   2.454   2.474   7.939
 1358TIP3   OH225708   2.671   1.958   7.645
 1358TIP3    H125709   2.640   2.051   7.646
 1358TIP3    H225710   2.596   1.916   7.602
 1359TIP3   OH225711   2.771   2.389   8.032
 1359TIP3    H125712   2.705   2.370   8.102
 1359TIP3    H225713   2.714   2.378   7.954
 1360TIP3   OH225714   3.038   2.344   7.920
 1360TIP3    H125715   2.943   2.332   7.940
 1360TIP3    H225716   3.074   2.283   7.989
 1361TIP3   OH225717   3.139   2.160   8.096
 1361TIP3    H125718   3.201   2.085   8.103
 1361TIP3    H225719   3.156   2.206   8.182
 1362TIP3   OH225720   2.176   2.315   8.025
 1362TIP3    H125721   2.186   2.233   7.972
 1362TIP3    H225722   2.165   2.276   8.115
 1363TIP3   OH225723   2.636   1.895   7.913
 1363TIP3    H125724   2.693   1.817   7.922
 1363TIP3    H225725   2.648   1.911   7.817
 1364TIP3   OH225726   2.629   2.019   8.176
 1364TIP3    H125727   2.634   1.973   8.089
 1364TIP3    H225728   2.613   2.110   8.146
 1365TIP3   OH225729   1.897   3.728   6.880
 1365TIP3    H125730   1.815   3.690   6.841
 1365TIP3    H225731   1.907   3.675   6.962
 1366TIP3   OH225732   1.954   3.564   7.081
 1366TIP3    H125733   1.894   3.502   7.126
 1366TIP3    H225734   2.028   3.570   7.145
 1367TIP3   OH225735   3.694   3.639   7.344
 1367TIP3    H125736   3.726   3.630   7.435
 1367TIP3    H225737   3.744   3.717   7.316
 1368TIP3   OH225738   3.666   3.570   7.641
 1368TIP3    H125739   3.631   3.491   7.594
 1368TIP3    H225740   3.686   3.531   7.729
 1369TIP3   OH225741   3.561   3.157   8.130
 1369TIP3    H125742   3.472   3.165   8.170
 1369TIP3    H225743   3.596   3.246   8.155
 1370TIP3   OH225744   3.646   2.990   6.632
 1370TIP3    H125745   3.727   3.039   6.656
 1370TIP3    H225746   3.634   2.936   6.713
 1371TIP3   OH225747   3.669   2.813   6.844
 1371TIP3    H125748   3.595   2.756   6.875
 1371TIP3    H225749   3.723   2.818   6.927
 1372TIP3   OH225750   3.652   3.082   7.316
 1372TIP3    H125751   3.719   3.011   7.309
 1372TIP3    H225752   3.693   3.155   7.267
 1373TIP3   OH225753   3.519   3.361   7.567
 1373TIP3    H125754   3.444   3.398   7.617
 1373TIP3    H225755   3.477   3.344   7.480
 1374TIP3   OH225756   3.733   2.809   6.442
 1374TIP3    H125757   3.650   2.762   6.426
 1374TIP3    H225758   3.711   2.869   6.518
 1375TIP3   OH225759   3.529   2.521   6.348
 1375TIP3    H125760   3.548   2.553   6.259
 1375TIP3    H225761   3.509   2.427   6.327
 1376TIP3   OH225762   3.473   2.658   6.930
 1376TIP3    H125763   3.420   2.584   6.894
 1376TIP3    H225764   3.446   2.658   7.025
 1377TIP3   OH225765   1.961   2.894   7.307
 1377TIP3    H125766   1.960   2.863   7.214
 1377TIP3    H225767   2.049   2.861   7.337
 1378TIP3   OH225768   3.580   2.859   7.888
 1378TIP3    H125769   3.625   2.770   7.888
 1378TIP3    H225770   3.649   2.917   7.850
 1379TIP3   OH225771   3.674   2.600   7.939
 1379TIP3    H125772   3.589   2.550   7.936
 1379TIP3    H225773   3.741   2.527   7.939
 1380TIP3   OH225774   3.470   2.275   6.268
 1380TIP3    H125775   3.533   2.209   6.236
 1380TIP3    H225776   3.383   2.230   6.257
 1381TIP3   OH225777   3.419   2.450   6.761
 1381TIP3    H125778   3.442   2.359   6.787
 1381TIP3    H225779   3.509   2.484   6.747
 1382TIP3   OH225780   3.513   2.482   7.315
 1382TIP3    H125781   3.612   2.486   7.312
 1382TIP3    H225782   3.500   2.497   7.410
 1383TIP3   OH225783   3.516   2.557   7.573
 1383TIP3    H125784   3.430   2.582   7.613
 1383TIP3    H225785   3.552   2.645   7.548
 1384TIP3   OH225786   1.958   2.402   7.919
 1384TIP3    H125787   2.042   2.383   7.967
 1384TIP3    H225788   1.905   2.321   7.938
 1385TIP3   OH225789   3.739   1.993   8.087
 1385TIP3    H125790   3.765   1.915   8.035
 1385TIP3    H225791   3.737   2.062   8.017
 1386TIP3   OH225792   3.532   2.208   6.783
 1386TIP3    H125793   3.547   2.141   6.853
 1386TIP3    H225794   3.482   2.157   6.717
 1387TIP3   OH225795   2.032   2.232   7.245
 1387TIP3    H125796   2.072   2.143   7.255
 1387TIP3    H225797   2.108   2.291   7.261
 1388TIP3   OH225798   1.899   2.533   7.339
 1388TIP3    H125799   1.963   2.496   7.276
 1388TIP3    H225800   1.935   2.623   7.345
 1389TIP3   OH225801   3.655   2.204   7.941
 1389TIP3    H125802   3.594   2.205   8.018
 1389TIP3    H225803   3.593   2.175   7.870
 1390TIP3   OH225804   1.927   2.166   6.764
 1390TIP3    H125805   1.842   2.138   6.728
 1390TIP3    H225806   1.968   2.209   6.686
 1391TIP3   OH225807   3.386   3.658   6.888
 1391TIP3    H125808   3.460   3.655   6.825
 1391TIP3    H225809   3.427   3.695   6.968
 1392TIP3   OH225810   1.923   2.008   7.573
 1392TIP3    H125811   1.851   1.946   7.598
 1392TIP3    H225812   1.879   2.056   7.502
 1393TIP3   OH225813   2.134   3.330   7.958
 1393TIP3    H125814   2.048   3.365   7.927
 1393TIP3    H225815   2.111   3.304   8.047
 1394TIP3   OH225816   2.420   3.468   7.625
 1394TIP3    H125817   2.409   3.561   7.597
 1394TIP3    H225818   2.518   3.465   7.630
 1395TIP3   OH225819   2.826   3.590   7.885
 1395TIP3    H125820   2.835   3.592   7.983
 1395TIP3    H225821   2.912   3.629   7.858
 1396TIP3   OH225822   3.047   3.747   7.843
 1396TIP3    H125823   3.130   3.708   7.812
 1396TIP3    H225824   3.076   3.799   7.921
 1397TIP3   OH225825   3.559   1.948   7.739
 1397TIP3    H125826   3.484   1.980   7.687
 1397TIP3    H225827   3.566   1.856   7.705
 1398TIP3   OH225828   2.143   3.794   7.601
 1398TIP3    H125829   2.065   3.843   7.567
 1398TIP3    H225830   2.142   3.829   7.692
 1399TIP3   OH225831   2.383   3.728   7.505
 1399TIP3    H125832   2.296   3.750   7.545
 1399TIP3    H225833   2.379   3.783   7.425
 1400TIP3   OH225834   2.863   3.676   7.428
 1400TIP3    H125835   2.805   3.711   7.359
 1400TIP3    H225836   2.889   3.760   7.471
 1401TIP3   OH225837   3.084   3.565   7.571
 1401TIP3    H125838   3.016   3.601   7.512
 1401TIP3    H225839   3.159   3.621   7.545
 1402TIP3   OH225840   3.316   3.730   7.534
 1402TIP3    H125841   3.334   3.824   7.512
 1402TIP3    H225842   3.354   3.685   7.455
 1403TIP3   OH225843   2.112   3.614   7.295
 1403TIP3    H125844   2.100   3.556   7.373
 1403TIP3    H225845   2.205   3.592   7.270
 1404TIP3   OH225846   2.335   3.531   7.180
 1404TIP3    H125847   2.322   3.435   7.198
 1404TIP3    H225848   2.423   3.542   7.222
 1405TIP3   OH225849   2.550   3.514   7.330
 1405TIP3    H125850   2.592   3.429   7.305
 1405TIP3    H225851   2.558   3.511   7.428
 1406TIP3   OH225852   2.956   2.097   7.170
 1406TIP3    H125853   2.872   2.068   7.209
 1406TIP3    H225854   2.946   2.063   7.080
 1407TIP3   OH225855   3.443   1.909   7.152
 1407TIP3    H125856   3.511   1.968   7.112
 1407TIP3    H225857   3.360   1.944   7.113
 1408TIP3   OH225858   3.612   2.042   6.985
 1408TIP3    H125859   3.673   1.977   6.944
 1408TIP3    H225860   3.672   2.118   7.005
 1409TIP3   OH225861   2.148   1.931   6.986
 1409TIP3    H125862   2.059   1.936   6.945
 1409TIP3    H225863   2.188   1.858   6.935
 1410TIP3   OH225864   2.572   1.941   6.935
 1410TIP3    H125865   2.646   1.949   6.875
 1410TIP3    H225866   2.616   1.942   7.021
 1411TIP3   OH225867   3.197   1.964   7.046
 1411TIP3    H125868   3.164   1.986   6.958
 1411TIP3    H225869   3.133   1.897   7.080
 1412TIP3   OH225870   3.312   1.927   6.635
 1412TIP3    H125871   3.232   1.972   6.606
 1412TIP3    H225872   3.272   1.848   6.680
 1413TIP3   OH225873   2.770   2.195   6.656
 1413TIP3    H125874   2.794   2.143   6.734
 1413TIP3    H225875   2.750   2.284   6.691
 1414TIP3   OH225876   3.575   3.627   6.695
 1414TIP3    H125877   3.545   3.546   6.650
 1414TIP3    H225878   3.517   3.693   6.654
 1415TIP3   OH225879   2.125   2.033   7.871
 1415TIP3    H125880   2.073   1.954   7.895
 1415TIP3    H225881   2.205   2.020   7.927
 1416TIP3   OH225882   2.328   1.973   8.068
 1416TIP3    H125883   2.404   1.916   8.047
 1416TIP3    H225884   2.275   1.913   8.124
 1417TIP3   OH225885   3.151   1.868   8.064
 1417TIP3    H125886   3.164   1.890   8.158
 1417TIP3    H225887   3.247   1.864   8.040
 1418TIP3   OH225888   3.516   3.518   7.938
 1418TIP3    H125889   3.458   3.511   7.859
 1418TIP3    H225890   3.478   3.599   7.978
 1419TIP3   OH225891   4.978   2.901   6.927
 1419TIP3    H125892   4.968   2.997   6.943
 1419TIP3    H225893   4.911   2.887   6.857
 1420TIP3   OH225894   4.855   2.781   7.303
 1420TIP3    H125895   4.878   2.732   7.386
 1420TIP3    H225896   4.790   2.721   7.264
 1421TIP3   OH225897   4.049   2.761   7.410
 1421TIP3    H125898   4.040   2.681   7.466
 1421TIP3    H225899   4.127   2.802   7.452
 1422TIP3   OH225900   5.170   3.112   7.145
 1422TIP3    H125901   5.155   3.035   7.203
 1422TIP3    H225902   5.189   3.181   7.211
 1423TIP3   OH225903   4.172   3.250   7.233
 1423TIP3    H125904   4.141   3.158   7.226
 1423TIP3    H225905   4.268   3.234   7.231
 1424TIP3   OH225906   3.844   2.566   6.820
 1424TIP3    H125907   3.798   2.650   6.838
 1424TIP3    H225908   3.792   2.537   6.743
 1425TIP3   OH225909   3.832   2.785   7.059
 1425TIP3    H125910   3.862   2.693   7.080
 1425TIP3    H225911   3.916   2.826   7.033
 1426TIP3   OH225912   4.890   3.633   7.091
 1426TIP3    H125913   4.963   3.580   7.050
 1426TIP3    H225914   4.888   3.590   7.177
 1427TIP3   OH225915   4.649   3.055   7.376
 1427TIP3    H125916   4.684   3.008   7.299
 1427TIP3    H225917   4.733   3.074   7.423
 1428TIP3   OH225918   5.522   2.208   7.316
 1428TIP3    H125919   5.565   2.253   7.391
 1428TIP3    H225920   5.551   2.264   7.242
 1429TIP3   OH225921   5.055   2.502   7.371
 1429TIP3    H125922   5.023   2.411   7.382
 1429TIP3    H225923   5.053   2.508   7.273
 1430TIP3   OH225924   4.314   2.264   7.044
 1430TIP3    H125925   4.323   2.355   7.009
 1430TIP3    H225926   4.265   2.221   6.971
 1431TIP3   OH225927   5.049   2.329   6.950
 1431TIP3    H125928   5.107   2.289   7.017
 1431TIP3    H225929   5.112   2.380   6.896
 1432TIP3   OH225930   3.972   2.575   7.150
 1432TIP3    H125931   4.038   2.541   7.212
 1432TIP3    H225932   3.996   2.528   7.069
 1433TIP3   OH225933   4.426   2.710   7.091
 1433TIP3    H125934   4.514   2.677   7.117
 1433TIP3    H225935   4.390   2.634   7.040
 1434TIP3   OH225936   5.581   2.357   7.623
 1434TIP3    H125937   5.524   2.422   7.576
 1434TIP3    H225938   5.541   2.361   7.711
 1435TIP3   OH225939   4.228   2.202   7.481
 1435TIP3    H125940   4.182   2.245   7.405
 1435TIP3    H225941   4.169   2.227   7.554
 1436TIP3   OH225942   4.897   3.150   6.833
 1436TIP3    H125943   4.822   3.123   6.777
 1436TIP3    H225944   4.864   3.236   6.866
 1437TIP3   OH225945   4.418   2.957   7.463
 1437TIP3    H125946   4.357   3.028   7.493
 1437TIP3    H225947   4.496   3.011   7.435
 1438TIP3   OH225948   5.263   2.297   7.152
 1438TIP3    H125949   5.271   2.209   7.192
 1438TIP3    H225950   5.323   2.349   7.210
 1439TIP3   OH225951   4.164   2.384   7.266
 1439TIP3    H125952   4.228   2.447   7.307
 1439TIP3    H225953   4.217   2.347   7.192
 1440TIP3   OH225954   4.290   3.178   7.558
 1440TIP3    H125955   4.268   3.255   7.503
 1440TIP3    H225956   4.207   3.171   7.611
 1441TIP3   OH225957   3.892   3.119   6.652
 1441TIP3    H125958   3.879   3.186   6.582
 1441TIP3    H225959   3.910   3.179   6.729
 1442TIP3   OH225960   5.256   3.307   7.328
 1442TIP3    H125961   5.167   3.317   7.371
 1442TIP3    H225962   5.264   3.399   7.297
 1443TIP3   OH225963   5.282   2.174   7.480
 1443TIP3    H125964   5.205   2.230   7.462
 1443TIP3    H225965   5.340   2.200   7.407
 1444TIP3   OH225966   4.560   1.927   7.241
 1444TIP3    H125967   4.529   1.841   7.210
 1444TIP3    H225968   4.473   1.971   7.256
 1445TIP3   OH225969   5.090   3.477   7.016
 1445TIP3    H125970   5.105   3.397   6.964
 1445TIP3    H225971   5.163   3.534   6.985
 1446TIP3   OH225972   5.208   3.266   6.855
 1446TIP3    H125973   5.204   3.195   6.785
 1446TIP3    H225974   5.170   3.213   6.928
 1447TIP3   OH225975   5.357   3.130   7.715
 1447TIP3    H125976   5.379   3.053   7.657
 1447TIP3    H225977   5.372   3.203   7.652
 1448TIP3   OH225978   4.818   2.846   6.708
 1448TIP3    H125979   4.772   2.929   6.685
 1448TIP3    H225980   4.884   2.838   6.636
 1449TIP3   OH225981   5.565   2.780   7.484
 1449TIP3    H125982   5.496   2.848   7.494
 1449TIP3    H225983   5.624   2.824   7.419
 1450TIP3   OH225984   5.188   2.786   6.795
 1450TIP3    H125985   5.135   2.832   6.864
 1450TIP3    H225986   5.258   2.742   6.847
 1451TIP3   OH225987   5.156   2.672   7.707
 1451TIP3    H125988   5.169   2.766   7.725
 1451TIP3    H225989   5.084   2.677   7.642
 1452TIP3   OH225990   4.337   2.920   6.972
 1452TIP3    H125991   4.309   2.894   6.883
 1452TIP3    H225992   4.371   2.835   7.008
 1453TIP3   OH225993   4.461   3.228   7.237
 1453TIP3    H125994   4.480   3.216   7.142
 1453TIP3    H225995   4.520   3.164   7.281
 1454TIP3   OH225996   4.334   2.739   7.343
 1454TIP3    H125997   4.359   2.751   7.249
 1454TIP3    H225998   4.373   2.818   7.387
 1455TIP3   OH225999   5.018   3.347   7.420
 1455TIP3    H126000   4.979   3.404   7.488
 1455TIP3    H226001   4.994   3.257   7.452
 1456TIP3   OH226002   4.460   3.220   7.772
 1456TIP3    H126003   4.387   3.270   7.814
 1456TIP3    H226004   4.416   3.200   7.686
 1457TIP3   OH226005   5.044   2.765   6.573
 1457TIP3    H126006   5.106   2.780   6.648
 1457TIP3    H226007   5.084   2.817   6.499
 1458TIP3   OH226008   4.155   2.839   7.665
 1458TIP3    H126009   4.180   2.917   7.716
 1458TIP3    H226010   4.091   2.802   7.728
 1459TIP3   OH226011   4.809   3.435   6.865
 1459TIP3    H126012   4.843   3.465   6.950
 1459TIP3    H226013   4.752   3.510   6.843
 1460TIP3   OH226014   4.275   3.386   7.882
 1460TIP3    H126015   4.266   3.432   7.795
 1460TIP3    H226016   4.181   3.361   7.898
 1461TIP3   OH226017   4.208   2.790   6.729
 1461TIP3    H126018   4.162   2.870   6.695
 1461TIP3    H226019   4.139   2.723   6.718
 1462TIP3   OH226020   3.861   3.047   7.609
 1462TIP3    H126021   3.818   3.034   7.523
 1462TIP3    H226022   3.893   2.956   7.625
 1463TIP3   OH226023   3.840   3.307   7.274
 1463TIP3    H126024   3.936   3.290   7.272
 1463TIP3    H226025   3.838   3.380   7.338
 1464TIP3   OH226026   5.624   3.387   7.877
 1464TIP3    H126027   5.615   3.294   7.902
 1464TIP3    H226028   5.537   3.418   7.913
 1465TIP3   OH226029   4.726   3.320   7.768
 1465TIP3    H126030   4.747   3.386   7.836
 1465TIP3    H226031   4.632   3.300   7.785
 1466TIP3   OH226032   4.761   3.708   6.704
 1466TIP3    H126033   4.789   3.744   6.618
 1466TIP3    H226034   4.765   3.789   6.759
 1467TIP3   OH226035   4.126   3.590   6.930
 1467TIP3    H126036   4.159   3.567   7.020
 1467TIP3    H226037   4.033   3.565   6.939
 1468TIP3   OH226038   5.327   2.528   7.903
 1468TIP3    H126039   5.269   2.566   7.834
 1468TIP3    H226040   5.327   2.434   7.875
 1469TIP3   OH226041   4.072   3.181   7.705
 1469TIP3    H126042   4.076   3.150   7.797
 1469TIP3    H226043   3.988   3.142   7.672
 1470TIP3   OH226044   4.335   2.036   7.307
 1470TIP3    H126045   4.244   2.036   7.271
 1470TIP3    H226046   4.321   2.092   7.387
 1471TIP3   OH226047   4.809   1.988   7.630
 1471TIP3    H126048   4.848   1.945   7.709
 1471TIP3    H226049   4.712   1.980   7.646
 1472TIP3   OH226050   5.094   2.389   7.755
 1472TIP3    H126051   5.032   2.353   7.824
 1472TIP3    H226052   5.056   2.475   7.736
 1473TIP3   OH226053   5.136   2.886   6.344
 1473TIP3    H126054   5.061   2.898   6.284
 1473TIP3    H226055   5.202   2.848   6.284
 1474TIP3   OH226056   4.350   2.492   7.430
 1474TIP3    H126057   4.267   2.499   7.481
 1474TIP3    H226058   4.354   2.584   7.394
 1475TIP3   OH226059   4.321   2.510   6.939
 1475TIP3    H126060   4.231   2.499   6.900
 1475TIP3    H226061   4.380   2.526   6.864
 1476TIP3   OH226062   4.895   2.546   6.761
 1476TIP3    H126063   4.897   2.640   6.733
 1476TIP3    H226064   4.975   2.510   6.718
 1477TIP3   OH226065   4.792   2.628   7.950
 1477TIP3    H126066   4.751   2.546   7.983
 1477TIP3    H226067   4.876   2.625   8.000
 1478TIP3   OH226068   5.013   2.566   7.111
 1478TIP3    H126069   4.993   2.648   7.062
 1478TIP3    H226070   4.997   2.498   7.041
 1479TIP3   OH226071   4.085   2.518   7.547
 1479TIP3    H126072   4.124   2.558   7.627
 1479TIP3    H226073   4.053   2.433   7.584
 1480TIP3   OH226074   3.794   2.256   7.029
 1480TIP3    H126075   3.861   2.247   7.098
 1480TIP3    H226076   3.843   2.249   6.946
 1481TIP3   OH226077   3.879   2.324   6.543
 1481TIP3    H126078   3.944   2.368   6.485
 1481TIP3    H226079   3.819   2.399   6.557
 1482TIP3   OH226080   4.917   2.669   7.533
 1482TIP3    H126081   4.969   2.596   7.493
 1482TIP3    H226082   4.847   2.624   7.586
 1483TIP3   OH226083   4.624   2.294   7.004
 1483TIP3    H126084   4.534   2.263   7.024
 1483TIP3    H226085   4.678   2.233   7.060
 1484TIP3   OH226086   4.068   2.428   6.906
 1484TIP3    H126087   3.985   2.461   6.863
 1484TIP3    H226088   4.076   2.337   6.871
 1485TIP3   OH226089   5.046   2.209   7.339
 1485TIP3    H126090   4.974   2.180   7.398
 1485TIP3    H226091   5.029   2.161   7.255
 1486TIP3   OH226092   5.335   3.777   8.005
 1486TIP3    H126093   5.374   3.798   7.918
 1486TIP3    H226094   5.414   3.777   8.061
 1487TIP3   OH226095   4.121   2.989   7.934
 1487TIP3    H126096   4.186   3.025   7.998
 1487TIP3    H226097   4.038   2.993   7.986
 1488TIP3   OH226098   4.663   2.582   7.175
 1488TIP3    H126099   4.749   2.543   7.150
 1488TIP3    H226100   4.619   2.506   7.217
 1489TIP3   OH226101   4.181   2.141   6.845
 1489TIP3    H126102   4.108   2.094   6.890
 1489TIP3    H226103   4.244   2.068   6.831
 1490TIP3   OH226104   4.594   2.380   7.447
 1490TIP3    H126105   4.514   2.435   7.432
 1490TIP3    H226106   4.648   2.438   7.505
 1491TIP3   OH226107   4.683   3.093   6.678
 1491TIP3    H126108   4.634   3.051   6.605
 1491TIP3    H226109   4.612   3.105   6.746
 1492TIP3   OH226110   5.385   2.977   7.511
 1492TIP3    H126111   5.432   3.034   7.445
 1492TIP3    H226112   5.299   2.966   7.467
 1493TIP3   OH226113   4.982   2.349   6.414
 1493TIP3    H126114   4.954   2.411   6.340
 1493TIP3    H226115   5.049   2.404   6.458
 1494TIP3   OH226116   4.730   3.038   7.713
 1494TIP3    H126117   4.754   3.021   7.805
 1494TIP3    H226118   4.717   3.134   7.717
 1495TIP3   OH226119   5.152   2.494   6.588
 1495TIP3    H126120   5.205   2.496   6.669
 1495TIP3    H226121   5.127   2.586   6.575
 1496TIP3   OH226122   4.149   2.968   7.173
 1496TIP3    H126123   4.219   2.959   7.105
 1496TIP3    H226124   4.169   2.894   7.233
 1497TIP3   OH226125   3.845   2.780   7.743
 1497TIP3    H126126   3.834   2.718   7.817
 1497TIP3    H226127   3.795   2.736   7.671
 1498TIP3   OH226128   4.536   2.759   7.909
 1498TIP3    H126129   4.496   2.691   7.854
 1498TIP3    H226130   4.628   2.727   7.912
 1499TIP3   OH226131   5.043   3.292   7.764
 1499TIP3    H126132   4.967   3.317   7.710
 1499TIP3    H226133   5.015   3.332   7.849
 1500TIP3   OH226134   5.514   2.542   6.611
 1500TIP3    H126135   5.515   2.499   6.524
 1500TIP3    H226136   5.530   2.636   6.587
 1501TIP3   OH226137   5.602   3.097   7.864
 1501TIP3    H126138   5.513   3.124   7.830
 1501TIP3    H226139   5.653   3.091   7.780
 1502TIP3   OH226140   5.419   3.346   6.611
 1502TIP3    H126141   5.358   3.282   6.651
 1502TIP3    H226142   5.417   3.322   6.517
 1503TIP3   OH226143   5.154   2.882   7.315
 1503TIP3    H126144   5.063   2.857   7.293
 1503TIP3    H226145   5.207   2.819   7.261
 1504TIP3   OH226146   4.373   3.322   6.951
 1504TIP3    H126147   4.386   3.413   6.917
 1504TIP3    H226148   4.280   3.306   6.929
 1505TIP3   OH226149   4.014   2.815   6.353
 1505TIP3    H126150   4.045   2.869   6.427
 1505TIP3    H226151   3.919   2.801   6.372
 1506TIP3   OH226152   4.532   3.092   6.900
 1506TIP3    H126153   4.479   3.172   6.920
 1506TIP3    H226154   4.479   3.022   6.943
 1507TIP3   OH226155   4.570   3.495   7.583
 1507TIP3    H126156   4.637   3.559   7.554
 1507TIP3    H226157   4.619   3.453   7.655
 1508TIP3   OH226158   4.391   3.588   6.840
 1508TIP3    H126159   4.299   3.607   6.871
 1508TIP3    H226160   4.435   3.672   6.867
 1509TIP3   OH226161   4.891   3.081   7.492
 1509TIP3    H126162   4.853   3.054   7.579
 1509TIP3    H226163   4.923   2.996   7.455
 1510TIP3   OH226164   5.226   3.545   7.746
 1510TIP3    H126165   5.143   3.495   7.737
 1510TIP3    H226166   5.225   3.604   7.666
 1511TIP3   OH226167   4.052   2.292   7.702
 1511TIP3    H126168   3.976   2.319   7.757
 1511TIP3    H226169   4.061   2.201   7.733
 1512TIP3   OH226170   5.245   3.067   6.675
 1512TIP3    H126171   5.212   2.977   6.689
 1512TIP3    H226172   5.333   3.045   6.637
 1513TIP3   OH226173   3.977   3.444   7.505
 1513TIP3    H126174   4.051   3.391   7.537
 1513TIP3    H226175   3.959   3.501   7.581
 1514TIP3   OH226176   4.424   3.278   6.476
 1514TIP3    H126177   4.512   3.283   6.433
 1514TIP3    H226178   4.414   3.368   6.514
 1515TIP3   OH226179   4.102   2.984   6.562
 1515TIP3    H126180   4.030   3.026   6.614
 1515TIP3    H226181   4.129   3.063   6.511
 1516TIP3   OH226182   4.873   2.263   7.616
 1516TIP3    H126183   4.954   2.270   7.668
 1516TIP3    H226184   4.849   2.170   7.630
 1517TIP3   OH226185   4.984   2.187   6.692
 1517TIP3    H126186   4.968   2.228   6.605
 1517TIP3    H226187   5.026   2.259   6.740
 1518TIP3   OH226188   4.659   2.391   6.747
 1518TIP3    H126189   4.744   2.439   6.758
 1518TIP3    H226190   4.646   2.354   6.837
 1519TIP3   OH226191   4.773   2.514   7.691
 1519TIP3    H126192   4.779   2.536   7.786
 1519TIP3    H226193   4.803   2.421   7.684
 1520TIP3   OH226194   4.755   2.112   6.827
 1520TIP3    H126195   4.726   2.161   6.906
 1520TIP3    H226196   4.846   2.149   6.815
 1521TIP3   OH226197   4.375   3.544   6.567
 1521TIP3    H126198   4.440   3.608   6.531
 1521TIP3    H226199   4.383   3.564   6.663
 1522TIP3   OH226200   4.335   2.244   6.479
 1522TIP3    H126201   4.295   2.261   6.565
 1522TIP3    H226202   4.403   2.178   6.501
 1523TIP3   OH226203   5.347   2.292   7.759
 1523TIP3    H126204   5.251   2.309   7.774
 1523TIP3    H226205   5.349   2.285   7.662
 1524TIP3   OH226206   5.266   2.679   7.148
 1524TIP3    H126207   5.188   2.620   7.150
 1524TIP3    H226208   5.329   2.628   7.202
 1525TIP3   OH226209   4.161   3.231   6.450
 1525TIP3    H126210   4.173   3.307   6.509
 1525TIP3    H226211   4.257   3.214   6.438
 1526TIP3   OH226212   3.991   2.541   6.399
 1526TIP3    H126213   4.026   2.630   6.382
 1526TIP3    H226214   3.947   2.522   6.315
 1527TIP3   OH226215   5.312   3.572   7.307
 1527TIP3    H126216   5.304   3.643   7.240
 1527TIP3    H226217   5.410   3.572   7.314
 1528TIP3   OH226218   4.064   1.990   7.250
 1528TIP3    H126219   4.065   1.974   7.153
 1528TIP3    H226220   4.037   1.901   7.281
 1529TIP3   OH226221   3.922   3.322   6.807
 1529TIP3    H126222   3.869   3.348   6.883
 1529TIP3    H226223   3.937   3.405   6.757
 1530TIP3   OH226224   3.876   3.680   7.976
 1530TIP3    H126225   3.939   3.676   8.052
 1530TIP3    H226226   3.843   3.588   7.976
 1531TIP3   OH226227   4.373   3.507   8.144
 1531TIP3    H126228   4.464   3.473   8.153
 1531TIP3    H226229   4.340   3.454   8.070
 1532TIP3   OH226230   4.977   3.414   8.009
 1532TIP3    H126231   4.956   3.333   8.061
 1532TIP3    H226232   5.071   3.426   8.036
 1533TIP3   OH226233   3.860   3.015   8.054
 1533TIP3    H126234   3.806   2.935   8.059
 1533TIP3    H226235   3.820   3.061   7.977
 1534TIP3   OH226236   4.542   3.026   7.959
 1534TIP3    H126237   4.516   3.086   7.886
 1534TIP3    H226238   4.548   2.938   7.914
 1535TIP3   OH226239   5.109   3.017   7.760
 1535TIP3    H126240   5.194   3.066   7.760
 1535TIP3    H226241   5.050   3.095   7.767
 1536TIP3   OH226242   3.986   2.701   8.007
 1536TIP3    H126243   4.054   2.645   8.045
 1536TIP3    H226244   3.997   2.783   8.060
 1537TIP3   OH226245   4.434   2.879   6.555
 1537TIP3    H126246   4.363   2.855   6.617
 1537TIP3    H226247   4.383   2.901   6.476
 1538TIP3   OH226248   4.338   2.643   7.681
 1538TIP3    H126249   4.286   2.725   7.670
 1538TIP3    H226250   4.422   2.674   7.642
 1539TIP3   OH226251   4.888   2.925   8.074
 1539TIP3    H126252   4.948   2.873   8.018
 1539TIP3    H226253   4.857   2.857   8.137
 1540TIP3   OH226254   4.461   2.427   7.808
 1540TIP3    H126255   4.470   2.361   7.736
 1540TIP3    H226256   4.436   2.506   7.755
 1541TIP3   OH226257   4.461   2.223   7.611
 1541TIP3    H126258   4.514   2.262   7.537
 1541TIP3    H226259   4.370   2.229   7.573
 1542TIP3   OH226260   4.578   2.790   7.594
 1542TIP3    H126261   4.659   2.836   7.568
 1542TIP3    H226262   4.512   2.858   7.566
 1543TIP3   OH226263   4.991   2.565   8.128
 1543TIP3    H126264   4.998   2.479   8.176
 1543TIP3    H226265   5.084   2.590   8.123
 1544TIP3   OH226266   5.174   2.858   7.969
 1544TIP3    H126267   5.141   2.902   7.889
 1544TIP3    H226268   5.268   2.844   7.944
 1545TIP3   OH226269   4.278   2.475   8.024
 1545TIP3    H126270   4.198   2.427   7.991
 1545TIP3    H226271   4.341   2.456   7.951
 1546TIP3   OH226272   4.539   1.966   7.617
 1546TIP3    H126273   4.514   2.061   7.626
 1546TIP3    H226274   4.459   1.932   7.576
 1547TIP3   OH226275   4.643   2.388   8.031
 1547TIP3    H126276   4.575   2.369   8.099
 1547TIP3    H226277   4.587   2.380   7.951
 1548TIP3   OH226278   4.908   2.320   7.925
 1548TIP3    H126279   4.815   2.308   7.945
 1548TIP3    H226280   4.946   2.260   7.994
 1549TIP3   OH226281   5.017   2.145   8.087
 1549TIP3    H126282   5.068   2.062   8.097
 1549TIP3    H226283   5.038   2.197   8.167
 1550TIP3   OH226284   4.059   2.308   8.024
 1550TIP3    H126285   4.063   2.225   7.974
 1550TIP3    H226286   4.046   2.276   8.117
 1551TIP3   OH226287   4.492   1.918   7.880
 1551TIP3    H126288   4.576   1.866   7.892
 1551TIP3    H226289   4.493   1.923   7.782
 1552TIP3   OH226290   4.510   2.006   8.167
 1552TIP3    H126291   4.511   1.962   8.080
 1552TIP3    H226292   4.475   2.094   8.145
 1553TIP3   OH226293   4.528   3.752   6.488
 1553TIP3    H126294   4.625   3.741   6.480
 1553TIP3    H226295   4.517   3.847   6.506
 1554TIP3   OH226296   3.899   3.223   6.393
 1554TIP3    H126297   3.996   3.228   6.410
 1554TIP3    H226298   3.889   3.133   6.362
 1555TIP3   OH226299   3.746   3.753   6.897
 1555TIP3    H126300   3.691   3.691   6.846
 1555TIP3    H226301   3.787   3.693   6.962
 1556TIP3   OH226302   3.836   3.555   7.067
 1556TIP3    H126303   3.781   3.481   7.096
 1556TIP3    H226304   3.863   3.590   7.155
 1557TIP3   OH226305   5.582   3.624   7.327
 1557TIP3    H126306   5.602   3.633   7.422
 1557TIP3    H226307   5.654   3.676   7.289
 1558TIP3   OH226308   5.561   3.573   7.652
 1558TIP3    H126309   5.525   3.496   7.601
 1558TIP3    H226310   5.589   3.529   7.735
 1559TIP3   OH226311   5.412   3.179   8.141
 1559TIP3    H126312   5.327   3.183   8.192
 1559TIP3    H226313   5.457   3.261   8.174
 1560TIP3   OH226314   5.500   2.985   6.644
 1560TIP3    H126315   5.585   3.033   6.646
 1560TIP3    H226316   5.505   2.929   6.725
 1561TIP3   OH226317   5.571   2.826   6.854
 1561TIP3    H126318   5.500   2.762   6.880
 1561TIP3    H226319   5.627   2.823   6.935
 1562TIP3   OH226320   5.533   3.072   7.317
 1562TIP3    H126321   5.607   3.012   7.296
 1562TIP3    H226322   5.567   3.159   7.293
 1563TIP3   OH226323   5.402   3.370   7.566
 1563TIP3    H126324   5.329   3.404   7.620
 1563TIP3    H226325   5.358   3.356   7.479
 1564TIP3   OH226326   5.610   2.793   6.471
 1564TIP3    H126327   5.534   2.777   6.412
 1564TIP3    H226328   5.566   2.845   6.541
 1565TIP3   OH226329   5.390   2.644   6.922
 1565TIP3    H126330   5.363   2.550   6.912
 1565TIP3    H226331   5.353   2.664   7.011
 1566TIP3   OH226332   3.844   2.888   7.324
 1566TIP3    H126333   3.830   2.850   7.234
 1566TIP3    H226334   3.935   2.855   7.343
 1567TIP3   OH226335   5.452   2.859   7.883
 1567TIP3    H126336   5.500   2.774   7.899
 1567TIP3    H226337   5.523   2.917   7.849
 1568TIP3   OH226338   5.567   2.629   7.971
 1568TIP3    H126339   5.480   2.598   7.939
 1568TIP3    H226340   5.624   2.550   7.954
 1569TIP3   OH226341   5.291   2.420   6.823
 1569TIP3    H126342   5.325   2.327   6.824
 1569TIP3    H226343   5.352   2.455   6.757
 1570TIP3   OH226344   5.431   2.498   7.284
 1570TIP3    H126345   5.528   2.508   7.299
 1570TIP3    H226346   5.401   2.524   7.374
 1571TIP3   OH226347   5.392   2.550   7.558
 1571TIP3    H126348   5.299   2.575   7.578
 1571TIP3    H226349   5.438   2.636   7.555
 1572TIP3   OH226350   3.842   2.390   7.907
 1572TIP3    H126351   3.923   2.367   7.956
 1572TIP3    H226352   3.779   2.321   7.938
 1573TIP3   OH226353   5.596   1.990   8.069
 1573TIP3    H126354   5.645   1.919   8.022
 1573TIP3    H226355   5.597   2.060   8.000
 1574TIP3   OH226356   5.398   2.189   6.765
 1574TIP3    H126357   5.422   2.127   6.837
 1574TIP3    H226358   5.341   2.132   6.711
 1575TIP3   OH226359   3.928   2.221   7.292
 1575TIP3    H126360   3.973   2.134   7.285
 1575TIP3    H226361   4.000   2.283   7.268
 1576TIP3   OH226362   3.774   2.525   7.326
 1576TIP3    H126363   3.840   2.498   7.258
 1576TIP3    H226364   3.810   2.612   7.347
 1577TIP3   OH226365   5.559   2.208   7.922
 1577TIP3    H126366   5.480   2.213   7.980
 1577TIP3    H226367   5.519   2.169   7.843
 1578TIP3   OH226368   5.584   2.151   6.371
 1578TIP3    H126369   5.651   2.082   6.357
 1578TIP3    H226370   5.626   2.197   6.445
 1579TIP3   OH226371   3.803   2.167   6.746
 1579TIP3    H126372   3.708   2.189   6.753
 1579TIP3    H226373   3.825   2.210   6.661
 1580TIP3   OH226374   5.273   3.633   6.902
 1580TIP3    H126375   5.338   3.617   6.831
 1580TIP3    H226376   5.313   3.706   6.954
 1581TIP3   OH226377   3.794   2.017   7.565
 1581TIP3    H126378   3.721   1.979   7.617
 1581TIP3    H226379   3.752   2.087   7.512
 1582TIP3   OH226380   4.020   3.321   7.955
 1582TIP3    H126381   3.936   3.360   7.927
 1582TIP3    H226382   3.999   3.292   8.044
 1583TIP3   OH226383   4.302   3.472   7.631
 1583TIP3    H126384   4.293   3.563   7.595
 1583TIP3    H226385   4.400   3.464   7.628
 1584TIP3   OH226386   4.715   3.598   7.881
 1584TIP3    H126387   4.720   3.596   7.978
 1584TIP3    H226388   4.803   3.635   7.858
 1585TIP3   OH226389   4.941   3.768   7.839
 1585TIP3    H126390   5.027   3.756   7.794
 1585TIP3    H226391   4.965   3.796   7.930
 1586TIP3   OH226392   5.507   1.975   7.757
 1586TIP3    H126393   5.429   2.003   7.707
 1586TIP3    H226394   5.528   1.892   7.711
 1587TIP3   OH226395   4.037   3.778   7.591
 1587TIP3    H126396   3.953   3.816   7.557
 1587TIP3    H226397   4.039   3.814   7.681
 1588TIP3   OH226398   4.274   3.720   7.493
 1588TIP3    H126399   4.180   3.744   7.512
 1588TIP3    H226400   4.296   3.784   7.423
 1589TIP3   OH226401   4.805   3.703   7.399
 1589TIP3    H126402   4.720   3.717   7.355
 1589TIP3    H226403   4.807   3.777   7.464
 1590TIP3   OH226404   4.969   3.572   7.575
 1590TIP3    H126405   4.906   3.614   7.512
 1590TIP3    H226406   5.049   3.619   7.546
 1591TIP3   OH226407   5.238   3.705   7.536
 1591TIP3    H126408   5.254   3.794   7.501
 1591TIP3    H226409   5.266   3.651   7.458
 1592TIP3   OH226410   4.001   3.611   7.296
 1592TIP3    H126411   3.979   3.546   7.367
 1592TIP3    H226412   4.092   3.582   7.273
 1593TIP3   OH226413   4.227   3.529   7.171
 1593TIP3    H126414   4.215   3.433   7.188
 1593TIP3    H226415   4.313   3.541   7.217
 1594TIP3   OH226416   4.454   3.516   7.318
 1594TIP3    H126417   4.489   3.425   7.303
 1594TIP3    H226418   4.464   3.524   7.414
 1595TIP3   OH226419   4.743   2.083   7.120
 1595TIP3    H126420   4.685   2.035   7.184
 1595TIP3    H226421   4.824   2.030   7.121
 1596TIP3   OH226422   5.352   1.921   7.179
 1596TIP3    H126423   5.417   1.980   7.135
 1596TIP3    H226424   5.268   1.966   7.157
 1597TIP3   OH226425   5.501   2.056   6.980
 1597TIP3    H126426   5.564   1.989   6.941
 1597TIP3    H226427   5.561   2.134   6.992
 1598TIP3   OH226428   4.043   1.947   6.978
 1598TIP3    H126429   3.957   1.944   6.932
 1598TIP3    H226430   4.080   1.858   6.955
 1599TIP3   OH226431   3.883   1.970   6.492
 1599TIP3    H126432   3.945   2.035   6.452
 1599TIP3    H226433   3.863   2.008   6.579
 1600TIP3   OH226434   4.488   1.935   6.948
 1600TIP3    H126435   4.579   1.928   6.914
 1600TIP3    H226436   4.500   1.986   7.030
 1601TIP3   OH226437   5.080   1.979   7.095
 1601TIP3    H126438   5.092   1.980   7.000
 1601TIP3    H226439   5.024   1.898   7.104
 1602TIP3   OH226440   5.284   1.909   6.650
 1602TIP3    H126441   5.258   1.957   6.568
 1602TIP3    H226442   5.198   1.868   6.676
 1603TIP3   OH226443   3.914   3.549   6.639
 1603TIP3    H126444   3.839   3.529   6.581
 1603TIP3    H226445   3.909   3.646   6.638
 1604TIP3   OH226446   4.082   2.138   6.380
 1604TIP3    H126447   4.126   2.061   6.341
 1604TIP3    H226448   4.159   2.196   6.396
 1605TIP3   OH226449   4.598   2.168   6.589
 1605TIP3    H126450   4.630   2.116   6.665
 1605TIP3    H226451   4.627   2.255   6.624
 1606TIP3   OH226452   4.810   3.735   6.431
 1606TIP3    H126453   4.838   3.791   6.358
 1606TIP3    H226454   4.785   3.655   6.384
 1607TIP3   OH226455   5.465   3.578   6.726
 1607TIP3    H126456   5.449   3.496   6.674
 1607TIP3    H226457   5.455   3.644   6.655
 1608TIP3   OH226458   4.005   2.045   7.878
 1608TIP3    H126459   3.947   1.967   7.881
 1608TIP3    H226460   4.071   2.026   7.949
 1609TIP3   OH226461   4.201   1.985   8.071
 1609TIP3    H126462   4.284   1.941   8.043
 1609TIP3    H226463   4.161   1.911   8.122
 1610TIP3   OH226464   5.063   1.879   8.077
 1610TIP3    H126465   5.076   1.833   8.162
 1610TIP3    H226466   5.156   1.885   8.046
 1611TIP3   OH226467   5.407   3.519   7.936
 1611TIP3    H126468   5.357   3.520   7.852
 1611TIP3    H226469   5.380   3.603   7.976
 1612TIP3   OH226470   6.869   2.886   6.902
 1612TIP3    H126471   6.877   2.980   6.928
 1612TIP3    H226472   6.775   2.877   6.886
 1613TIP3   OH226473   6.693   2.815   7.292
 1613TIP3    H126474   6.727   2.762   7.367
 1613TIP3    H226475   6.656   2.746   7.233
 1614TIP3   OH226476   5.942   2.777   7.403
 1614TIP3    H126477   5.925   2.705   7.466
 1614TIP3    H226478   6.020   2.817   7.445
 1615TIP3   OH226479   7.080   3.098   7.144
 1615TIP3    H126480   7.058   3.024   7.203
 1615TIP3    H226481   7.102   3.168   7.208
 1616TIP3   OH226482   6.057   3.257   7.243
 1616TIP3    H126483   6.030   3.163   7.233
 1616TIP3    H226484   6.153   3.247   7.226
 1617TIP3   OH226485   5.733   2.551   6.793
 1617TIP3    H126486   5.726   2.643   6.822
 1617TIP3    H226487   5.639   2.535   6.772
 1618TIP3   OH226488   5.722   2.787   7.068
 1618TIP3    H126489   5.768   2.700   7.076
 1618TIP3    H226490   5.799   2.845   7.063
 1619TIP3   OH226491   6.772   3.612   7.119
 1619TIP3    H126492   6.844   3.559   7.079
 1619TIP3    H226493   6.771   3.577   7.209
 1620TIP3   OH226494   6.542   3.114   7.357
 1620TIP3    H126495   6.557   3.066   7.275
 1620TIP3    H226496   6.628   3.104   7.402
 1621TIP3   OH226497   6.917   2.514   7.367
 1621TIP3    H126498   6.909   2.418   7.379
 1621TIP3    H226499   6.943   2.516   7.273
 1622TIP3   OH226500   6.200   2.279   7.053
 1622TIP3    H126501   6.217   2.363   7.006
 1622TIP3    H226502   6.154   2.229   6.983
 1623TIP3   OH226503   6.920   2.312   6.989
 1623TIP3    H126504   7.006   2.275   7.021
 1623TIP3    H226505   6.943   2.338   6.898
 1624TIP3   OH226506   5.858   2.574   7.137
 1624TIP3    H126507   5.919   2.537   7.203
 1624TIP3    H226508   5.893   2.533   7.055
 1625TIP3   OH226509   6.314   2.711   7.098
 1625TIP3    H126510   6.406   2.681   7.102
 1625TIP3    H226511   6.274   2.637   7.047
 1626TIP3   OH226512   6.101   2.213   7.497
 1626TIP3    H126513   6.062   2.254   7.417
 1626TIP3    H226514   6.046   2.254   7.565
 1627TIP3   OH226515   6.791   3.167   6.842
 1627TIP3    H126516   6.732   3.160   6.766
 1627TIP3    H226517   6.765   3.257   6.871
 1628TIP3   OH226518   6.320   2.990   7.450
 1628TIP3    H126519   6.262   3.063   7.481
 1628TIP3    H226520   6.399   3.040   7.419
 1629TIP3   OH226521   7.139   2.252   7.141
 1629TIP3    H126522   7.098   2.203   7.214
 1629TIP3    H226523   7.189   2.319   7.193
 1630TIP3   OH226524   6.061   2.387   7.268
 1630TIP3    H126525   6.123   2.453   7.305
 1630TIP3    H226526   6.112   2.350   7.193
 1631TIP3   OH226527   6.170   3.185   7.562
 1631TIP3    H126528   6.144   3.258   7.503
 1631TIP3    H226529   6.084   3.174   7.611
 1632TIP3   OH226530   5.743   3.129   6.631
 1632TIP3    H126531   5.755   3.204   6.571
 1632TIP3    H226532   5.779   3.166   6.714
 1633TIP3   OH226533   7.128   3.287   7.334
 1633TIP3    H126534   7.037   3.287   7.374
 1633TIP3    H226535   7.143   3.381   7.318
 1634TIP3   OH226536   7.180   2.203   7.469
 1634TIP3    H126537   7.089   2.232   7.451
 1634TIP3    H226538   7.229   2.262   7.408
 1635TIP3   OH226539   6.430   1.917   7.194
 1635TIP3    H126540   6.403   1.824   7.206
 1635TIP3    H226541   6.346   1.962   7.224
 1636TIP3   OH226542   6.946   3.474   6.977
 1636TIP3    H126543   7.005   3.404   6.941
 1636TIP3    H226544   7.007   3.551   6.965
 1637TIP3   OH226545   7.137   3.306   6.889
 1637TIP3    H126546   7.101   3.245   6.824
 1637TIP3    H226547   7.158   3.242   6.960
 1638TIP3   OH226548   7.222   3.125   7.726
 1638TIP3    H126549   7.234   3.050   7.664
 1638TIP3    H226550   7.233   3.204   7.669
 1639TIP3   OH226551   7.012   2.655   7.693
 1639TIP3    H126552   7.028   2.750   7.708
 1639TIP3    H226553   6.935   2.660   7.633
 1640TIP3   OH226554   6.191   2.908   6.955
 1640TIP3    H126555   6.123   2.870   6.894
 1640TIP3    H226556   6.229   2.828   6.997
 1641TIP3   OH226557   6.329   3.242   7.216
 1641TIP3    H126558   6.351   3.235   7.121
 1641TIP3    H226559   6.408   3.204   7.258
 1642TIP3   OH226560   6.222   2.766   7.345
 1642TIP3    H126561   6.254   2.757   7.253
 1642TIP3    H226562   6.269   2.847   7.374
 1643TIP3   OH226563   6.887   3.333   7.427
 1643TIP3    H126564   6.869   3.405   7.490
 1643TIP3    H226565   6.834   3.260   7.464
 1644TIP3   OH226566   6.348   3.223   7.767
 1644TIP3    H126567   6.283   3.274   7.821
 1644TIP3    H226568   6.292   3.203   7.688
 1645TIP3   OH226569   6.028   2.834   7.666
 1645TIP3    H126570   6.051   2.926   7.686
 1645TIP3    H226571   5.967   2.817   7.741
 1646TIP3   OH226572   6.686   3.424   6.866
 1646TIP3    H126573   6.753   3.451   6.930
 1646TIP3    H226574   6.624   3.498   6.871
 1647TIP3   OH226575   6.166   3.374   7.886
 1647TIP3    H126576   6.155   3.423   7.801
 1647TIP3    H226577   6.073   3.346   7.901
 1648TIP3   OH226578   7.361   1.909   6.485
 1648TIP3    H126579   7.263   1.905   6.494
 1648TIP3    H226580   7.378   2.006   6.502
 1649TIP3   OH226581   6.034   2.792   6.776
 1649TIP3    H126582   6.045   2.866   6.713
 1649TIP3    H226583   6.069   2.718   6.725
 1650TIP3   OH226584   5.734   3.035   7.644
 1650TIP3    H126585   5.700   3.024   7.554
 1650TIP3    H226586   5.749   2.941   7.668
 1651TIP3   OH226587   5.714   3.331   7.277
 1651TIP3    H126588   5.784   3.266   7.293
 1651TIP3    H226589   5.737   3.396   7.346
 1652TIP3   OH226590   6.610   3.314   7.771
 1652TIP3    H126591   6.623   3.387   7.834
 1652TIP3    H226592   6.516   3.289   7.783
 1653TIP3   OH226593   6.645   3.719   6.667
 1653TIP3    H126594   6.552   3.690   6.665
 1653TIP3    H226595   6.645   3.801   6.721
 1654TIP3   OH226596   5.999   3.578   6.934
 1654TIP3    H126597   6.055   3.572   7.014
 1654TIP3    H226598   5.911   3.566   6.973
 1655TIP3   OH226599   6.931   3.570   6.437
 1655TIP3    H126600   6.948   3.640   6.372
 1655TIP3    H226601   6.934   3.615   6.523
 1656TIP3   OH226602   6.898   3.642   6.714
 1656TIP3    H126603   6.801   3.649   6.699
 1656TIP3    H226604   6.902   3.576   6.785
 1657TIP3   OH226605   7.183   2.532   7.925
 1657TIP3    H126606   7.171   2.532   7.829
 1657TIP3    H226607   7.279   2.505   7.930
 1658TIP3   OH226608   5.951   3.171   7.704
 1658TIP3    H126609   5.961   3.136   7.796
 1658TIP3    H226610   5.865   3.131   7.678
 1659TIP3   OH226611   6.196   2.021   7.278
 1659TIP3    H126612   6.098   2.022   7.279
 1659TIP3    H226613   6.218   2.094   7.336
 1660TIP3   OH226614   6.689   1.987   7.618
 1660TIP3    H126615   6.737   1.948   7.694
 1660TIP3    H226616   6.594   1.984   7.647
 1661TIP3   OH226617   7.003   2.370   7.713
 1661TIP3    H126618   6.953   2.345   7.793
 1661TIP3    H226619   7.010   2.466   7.727
 1662TIP3   OH226620   6.230   2.528   7.459
 1662TIP3    H126621   6.145   2.535   7.505
 1662TIP3    H226622   6.239   2.621   7.428
 1663TIP3   OH226623   6.213   2.516   6.936
 1663TIP3    H126624   6.116   2.507   6.918
 1663TIP3    H226625   6.253   2.527   6.846
 1664TIP3   OH226626   6.795   2.571   6.769
 1664TIP3    H126627   6.757   2.616   6.692
 1664TIP3    H226628   6.839   2.499   6.719
 1665TIP3   OH226629   6.651   2.622   7.921
 1665TIP3    H126630   6.610   2.540   7.956
 1665TIP3    H226631   6.732   2.625   7.974
 1666TIP3   OH226632   6.929   2.573   7.083
 1666TIP3    H126633   6.900   2.628   7.007
 1666TIP3    H226634   6.919   2.481   7.046
 1667TIP3   OH226635   5.969   2.524   7.550
 1667TIP3    H126636   5.991   2.545   7.642
 1667TIP3    H226637   5.934   2.433   7.554
 1668TIP3   OH226638   6.292   2.287   6.322
 1668TIP3    H126639   6.246   2.212   6.364
 1668TIP3    H226640   6.307   2.257   6.231
 1669TIP3   OH226641   5.674   2.262   7.009
 1669TIP3    H126642   5.762   2.247   7.045
 1669TIP3    H226643   5.695   2.289   6.918
 1670TIP3   OH226644   5.729   2.338   6.533
 1670TIP3    H126645   5.820   2.362   6.514
 1670TIP3    H226646   5.692   2.417   6.576
 1671TIP3   OH226647   6.795   2.703   7.513
 1671TIP3    H126648   6.846   2.634   7.463
 1671TIP3    H226649   6.738   2.648   7.572
 1672TIP3   OH226650   6.516   2.284   7.050
 1672TIP3    H126651   6.420   2.279   7.064
 1672TIP3    H226652   6.552   2.230   7.123
 1673TIP3   OH226653   5.956   2.448   6.912
 1673TIP3    H126654   5.882   2.478   6.853
 1673TIP3    H226655   5.978   2.359   6.878
 1674TIP3   OH226656   6.324   2.514   6.697
 1674TIP3    H126657   6.394   2.448   6.687
 1674TIP3    H226658   6.274   2.510   6.614
 1675TIP3   OH226659   6.898   2.246   7.329
 1675TIP3    H126660   6.833   2.204   7.389
 1675TIP3    H226661   6.864   2.218   7.242
 1676TIP3   OH226662   6.178   2.604   6.414
 1676TIP3    H126663   6.089   2.590   6.380
 1676TIP3    H226664   6.225   2.529   6.373
 1677TIP3   OH226665   7.203   3.756   7.990
 1677TIP3    H126666   7.199   3.787   7.898
 1677TIP3    H226667   7.287   3.795   8.019
 1678TIP3   OH226668   5.992   3.002   7.928
 1678TIP3    H126669   6.067   3.007   7.991
 1678TIP3    H226670   5.914   3.012   7.987
 1679TIP3   OH226671   6.599   2.592   7.186
 1679TIP3    H126672   6.656   2.528   7.142
 1679TIP3    H226673   6.563   2.538   7.257
 1680TIP3   OH226674   6.045   2.195   6.850
 1680TIP3    H126675   6.004   2.119   6.898
 1680TIP3    H226676   6.098   2.148   6.784
 1681TIP3   OH226677   6.487   2.413   7.433
 1681TIP3    H126678   6.401   2.459   7.443
 1681TIP3    H226679   6.541   2.456   7.501
 1682TIP3   OH226680   7.241   2.951   7.500
 1682TIP3    H126681   7.297   2.941   7.419
 1682TIP3    H226682   7.153   2.944   7.459
 1683TIP3   OH226683   6.719   3.068   7.800
 1683TIP3    H126684   6.646   3.006   7.805
 1683TIP3    H226685   6.671   3.153   7.792
 1684TIP3   OH226686   6.046   2.981   7.186
 1684TIP3    H126687   6.114   2.963   7.120
 1684TIP3    H226688   6.051   2.902   7.244
 1685TIP3   OH226689   5.711   2.784   7.731
 1685TIP3    H126690   5.710   2.716   7.801
 1685TIP3    H226691   5.661   2.744   7.657
 1686TIP3   OH226692   6.400   2.754   7.918
 1686TIP3    H126693   6.353   2.704   7.848
 1686TIP3    H226694   6.488   2.712   7.914
 1687TIP3   OH226695   6.939   3.310   7.762
 1687TIP3    H126696   6.857   3.287   7.717
 1687TIP3    H226697   6.903   3.343   7.847
 1688TIP3   OH226698   6.996   2.883   7.326
 1688TIP3    H126699   6.904   2.863   7.300
 1688TIP3    H226700   7.044   2.805   7.290
 1689TIP3   OH226701   6.266   3.319   6.945
 1689TIP3    H126702   6.314   3.393   6.902
 1689TIP3    H226703   6.174   3.342   6.923
 1690TIP3   OH226704   5.863   2.669   6.389
 1690TIP3    H126705   5.919   2.712   6.455
 1690TIP3    H226706   5.773   2.688   6.420
 1691TIP3   OH226707   6.407   3.088   6.888
 1691TIP3    H126708   6.351   3.166   6.903
 1691TIP3    H226709   6.347   3.013   6.904
 1692TIP3   OH226710   6.443   3.492   7.585
 1692TIP3    H126711   6.515   3.540   7.540
 1692TIP3    H226712   6.496   3.444   7.651
 1693TIP3   OH226713   6.283   3.580   6.830
 1693TIP3    H126714   6.187   3.586   6.842
 1693TIP3    H226715   6.310   3.668   6.864
 1694TIP3   OH226716   6.790   3.079   7.499
 1694TIP3    H126717   6.787   3.043   7.590
 1694TIP3    H226718   6.847   3.013   7.455
 1695TIP3   OH226719   7.135   3.526   7.725
 1695TIP3    H126720   7.052   3.474   7.732
 1695TIP3    H226721   7.114   3.589   7.653
 1696TIP3   OH226722   5.882   2.307   7.673
 1696TIP3    H126723   5.799   2.353   7.646
 1696TIP3    H226724   5.883   2.332   7.767
 1697TIP3   OH226725   5.859   3.455   7.507
 1697TIP3    H126726   5.922   3.384   7.530
 1697TIP3    H226727   5.872   3.516   7.581
 1698TIP3   OH226728   5.996   2.985   6.582
 1698TIP3    H126729   5.960   3.034   6.658
 1698TIP3    H226730   6.044   3.058   6.536
 1699TIP3   OH226731   6.751   2.273   7.599
 1699TIP3    H126732   6.844   2.296   7.619
 1699TIP3    H226733   6.741   2.179   7.622
 1700TIP3   OH226734   6.590   2.369   6.782
 1700TIP3    H126735   6.648   2.447   6.775
 1700TIP3    H226736   6.575   2.360   6.878
 1701TIP3   OH226737   6.664   2.516   7.666
 1701TIP3    H126738   6.683   2.538   7.759
 1701TIP3    H226739   6.700   2.425   7.656
 1702TIP3   OH226740   6.642   2.087   6.864
 1702TIP3    H126741   6.613   2.136   6.944
 1702TIP3    H226742   6.700   2.156   6.826
 1703TIP3   OH226743   7.271   2.254   7.763
 1703TIP3    H126744   7.178   2.282   7.772
 1703TIP3    H226745   7.286   2.275   7.670
 1704TIP3   OH226746   7.135   2.679   7.213
 1704TIP3    H126747   7.061   2.644   7.159
 1704TIP3    H226748   7.187   2.598   7.226
 1705TIP3   OH226749   6.053   3.199   6.433
 1705TIP3    H126750   6.099   3.281   6.461
 1705TIP3    H226751   6.108   3.172   6.359
 1706TIP3   OH226752   7.278   3.615   7.374
 1706TIP3    H126753   7.260   3.677   7.300
 1706TIP3    H226754   7.375   3.609   7.368
 1707TIP3   OH226755   5.933   1.988   7.250
 1707TIP3    H126756   5.937   1.972   7.153
 1707TIP3    H226757   5.915   1.895   7.281
 1708TIP3   OH226758   5.826   3.354   6.797
 1708TIP3    H126759   5.846   3.436   6.745
 1708TIP3    H226760   5.901   3.354   6.858
 1709TIP3   OH226761   5.762   3.662   7.971
 1709TIP3    H126762   5.829   3.647   8.042
 1709TIP3    H226763   5.719   3.575   7.965
 1710TIP3   OH226764   6.250   3.495   8.148
 1710TIP3    H126765   6.343   3.469   8.152
 1710TIP3    H226766   6.219   3.447   8.069
 1711TIP3   OH226767   6.861   3.397   8.005
 1711TIP3    H126768   6.843   3.307   8.042
 1711TIP3    H226769   6.951   3.407   8.042
 1712TIP3   OH226770   5.744   2.997   8.071
 1712TIP3    H126771   5.696   2.913   8.064
 1712TIP3    H226772   5.705   3.045   7.994
 1713TIP3   OH226773   6.424   3.027   7.937
 1713TIP3    H126774   6.394   3.089   7.866
 1713TIP3    H226775   6.403   2.937   7.905
 1714TIP3   OH226776   6.990   3.009   7.736
 1714TIP3    H126777   7.066   3.071   7.751
 1714TIP3    H226778   6.914   3.067   7.758
 1715TIP3   OH226779   5.924   2.723   7.995
 1715TIP3    H126780   6.016   2.742   7.978
 1715TIP3    H226781   5.910   2.791   8.065
 1716TIP3   OH226782   6.326   2.847   6.529
 1716TIP3    H126783   6.269   2.776   6.560
 1716TIP3    H226784   6.374   2.799   6.459
 1717TIP3   OH226785   6.232   2.665   7.718
 1717TIP3    H126786   6.154   2.716   7.691
 1717TIP3    H226787   6.300   2.705   7.660
 1718TIP3   OH226788   6.453   2.703   6.321
 1718TIP3    H126789   6.371   2.687   6.271
 1718TIP3    H226790   6.493   2.615   6.327
 1719TIP3   OH226791   6.736   2.896   8.090
 1719TIP3    H126792   6.814   2.875   8.033
 1719TIP3    H226793   6.718   2.809   8.130
 1720TIP3   OH226794   6.329   2.426   7.809
 1720TIP3    H126795   6.339   2.357   7.739
 1720TIP3    H226796   6.320   2.506   7.754
 1721TIP3   OH226797   6.354   2.242   7.609
 1721TIP3    H126798   6.413   2.272   7.537
 1721TIP3    H226799   6.265   2.255   7.571
 1722TIP3   OH226800   6.442   2.798   7.601
 1722TIP3    H126801   6.530   2.806   7.560
 1722TIP3    H226802   6.392   2.871   7.559
 1723TIP3   OH226803   6.955   2.563   8.125
 1723TIP3    H126804   6.930   2.479   8.085
 1723TIP3    H226805   7.043   2.575   8.085
 1724TIP3   OH226806   6.995   2.877   7.977
 1724TIP3    H126807   6.990   2.937   7.900
 1724TIP3    H226808   7.065   2.817   7.945
 1725TIP3   OH226809   6.135   2.520   8.052
 1725TIP3    H126810   6.072   2.467   7.998
 1725TIP3    H226811   6.208   2.532   7.989
 1726TIP3   OH226812   6.423   1.974   7.623
 1726TIP3    H126813   6.384   2.064   7.628
 1726TIP3    H226814   6.348   1.922   7.591
 1727TIP3   OH226815   6.538   2.395   8.031
 1727TIP3    H126816   6.480   2.382   8.109
 1727TIP3    H226817   6.473   2.382   7.960
 1728TIP3   OH226818   6.823   2.325   7.921
 1728TIP3    H126819   6.735   2.287   7.935
 1728TIP3    H226820   6.881   2.259   7.967
 1729TIP3   OH226821   6.989   2.166   8.072
 1729TIP3    H126822   6.956   2.074   8.083
 1729TIP3    H226823   6.971   2.209   8.160
 1730TIP3   OH226824   5.951   2.305   8.000
 1730TIP3    H126825   5.979   2.216   7.975
 1730TIP3    H226826   5.926   2.289   8.095
 1731TIP3   OH226827   6.414   1.900   7.937
 1731TIP3    H126828   6.490   1.838   7.928
 1731TIP3    H226829   6.421   1.942   7.850
 1732TIP3   OH226830   6.408   2.034   8.178
 1732TIP3    H126831   6.402   1.984   8.094
 1732TIP3    H226832   6.387   2.125   8.149
 1733TIP3   OH226833   5.633   3.740   6.890
 1733TIP3    H126834   5.570   3.675   6.854
 1733TIP3    H226835   5.670   3.692   6.966
 1734TIP3   OH226836   5.739   3.544   7.079
 1734TIP3    H126837   5.698   3.491   7.151
 1734TIP3    H226838   5.803   3.592   7.138
 1735TIP3   OH226839   7.241   3.127   8.089
 1735TIP3    H126840   7.196   3.148   8.173
 1735TIP3    H226841   7.279   3.212   8.065
 1736TIP3   OH226842   7.279   3.346   7.577
 1736TIP3    H126843   7.220   3.414   7.615
 1736TIP3    H226844   7.239   3.328   7.490
 1737TIP3   OH226845   7.273   2.551   6.351
 1737TIP3    H126846   7.276   2.640   6.389
 1737TIP3    H226847   7.304   2.570   6.262
 1738TIP3   OH226848   7.225   2.760   6.916
 1738TIP3    H126849   7.166   2.684   6.909
 1738TIP3    H226850   7.212   2.787   7.009
 1739TIP3   OH226851   5.739   2.899   7.313
 1739TIP3    H126852   5.721   2.854   7.227
 1739TIP3    H226853   5.830   2.866   7.333
 1740TIP3   OH226854  -0.029   2.842   7.902
 1740TIP3    H126855   0.063   2.824   7.933
 1740TIP3    H226856  -0.024   2.931   7.863
 1741TIP3   OH226857   7.205   2.255   6.228
 1741TIP3    H126858   7.192   2.330   6.290
 1741TIP3    H226859   7.131   2.193   6.253
 1742TIP3   OH226860   7.198   2.388   6.755
 1742TIP3    H126861   7.181   2.297   6.786
 1742TIP3    H226862   7.235   2.370   6.667
 1743TIP3   OH226863   7.261   2.421   7.318
 1743TIP3    H126864   7.337   2.422   7.257
 1743TIP3    H226865   7.288   2.490   7.382
 1744TIP3   OH226866   7.252   2.557   7.621
 1744TIP3    H126867   7.161   2.590   7.627
 1744TIP3    H226868   7.284   2.608   7.544
 1745TIP3   OH226869   5.726   2.416   7.917
 1745TIP3    H126870   5.808   2.371   7.949
 1745TIP3    H226871   5.661   2.341   7.920
 1746TIP3   OH226872   7.187   2.121   6.787
 1746TIP3    H126873   7.278   2.130   6.821
 1746TIP3    H226874   7.197   2.063   6.710
 1747TIP3   OH226875   5.830   2.220   7.315
 1747TIP3    H126876   5.857   2.133   7.280
 1747TIP3    H226877   5.891   2.281   7.270
 1748TIP3   OH226878   5.685   2.527   7.329
 1748TIP3    H126879   5.728   2.527   7.241
 1748TIP3    H226880   5.728   2.603   7.369
 1749TIP3   OH226881   5.677   2.165   6.738
 1749TIP3    H126882   5.581   2.184   6.739
 1749TIP3    H226883   5.698   2.193   6.647
 1750TIP3   OH226884   7.139   3.649   6.933
 1750TIP3    H126885   7.194   3.575   6.903
 1750TIP3    H226886   7.197   3.694   6.997
 1751TIP3   OH226887   5.595   2.003   7.466
 1751TIP3    H126888   5.499   1.993   7.485
 1751TIP3    H226889   5.588   2.072   7.396
 1752TIP3   OH226890   5.901   3.321   7.954
 1752TIP3    H126891   5.825   3.364   7.911
 1752TIP3    H226892   5.879   3.330   8.047
 1753TIP3   OH226893   6.182   3.494   7.642
 1753TIP3    H126894   6.179   3.579   7.591
 1753TIP3    H226895   6.277   3.472   7.628
 1754TIP3   OH226896   6.600   3.602   7.879
 1754TIP3    H126897   6.607   3.574   7.973
 1754TIP3    H226898   6.695   3.612   7.855
 1755TIP3   OH226899   6.842   3.759   7.846
 1755TIP3    H126900   6.922   3.749   7.791
 1755TIP3    H226901   6.874   3.791   7.933
 1756TIP3   OH226902   5.924   3.798   7.589
 1756TIP3    H126903   5.853   3.858   7.558
 1756TIP3    H226904   5.918   3.808   7.685
 1757TIP3   OH226905   6.155   3.717   7.492
 1757TIP3    H126906   6.068   3.753   7.523
 1757TIP3    H226907   6.173   3.773   7.415
 1758TIP3   OH226908   6.684   3.696   7.400
 1758TIP3    H126909   6.604   3.725   7.354
 1758TIP3    H226910   6.686   3.759   7.474
 1759TIP3   OH226911   6.854   3.567   7.562
 1759TIP3    H126912   6.791   3.605   7.498
 1759TIP3    H226913   6.928   3.629   7.549
 1760TIP3   OH226914   7.083   3.721   7.526
 1760TIP3    H126915   7.138   3.796   7.556
 1760TIP3    H226916   7.148   3.681   7.462
 1761TIP3   OH226917   5.886   3.632   7.281
 1761TIP3    H126918   5.871   3.580   7.362
 1761TIP3    H226919   5.975   3.598   7.255
 1762TIP3   OH226920   6.115   3.525   7.176
 1762TIP3    H126921   6.099   3.432   7.204
 1762TIP3    H226922   6.210   3.534   7.200
 1763TIP3   OH226923   6.352   3.518   7.304
 1763TIP3    H126924   6.373   3.423   7.293
 1763TIP3    H226925   6.344   3.527   7.400
 1764TIP3   OH226926   6.667   2.046   7.157
 1764TIP3    H126927   6.588   1.987   7.165
 1764TIP3    H226928   6.741   1.985   7.162
 1765TIP3   OH226929   7.215   1.896   7.168
 1765TIP3    H126930   7.253   1.971   7.117
 1765TIP3    H226931   7.120   1.923   7.166
 1766TIP3   OH226932   5.934   1.984   6.972
 1766TIP3    H126933   5.841   1.972   6.946
 1766TIP3    H226934   5.972   1.895   6.951
 1767TIP3   OH226935   5.799   2.003   6.462
 1767TIP3    H126936   5.896   2.015   6.453
 1767TIP3    H226937   5.792   1.961   6.549
 1768TIP3   OH226938   6.391   2.006   6.922
 1768TIP3    H126939   6.484   2.020   6.897
 1768TIP3    H226940   6.400   1.981   7.015
 1769TIP3   OH226941   6.962   1.959   7.101
 1769TIP3    H126942   6.953   1.986   7.008
 1769TIP3    H226943   6.907   1.877   7.103
 1770TIP3   OH226944   7.108   1.917   6.613
 1770TIP3    H126945   7.057   1.992   6.646
 1770TIP3    H226946   7.056   1.843   6.651
 1771TIP3   OH226947   5.810   3.584   6.637
 1771TIP3    H126948   5.735   3.574   6.577
 1771TIP3    H226949   5.828   3.679   6.623
 1772TIP3   OH226950   6.549   2.162   6.580
 1772TIP3    H126951   6.550   2.096   6.651
 1772TIP3    H226952   6.543   2.245   6.632
 1773TIP3   OH226953   5.886   2.031   7.881
 1773TIP3    H126954   5.844   1.943   7.890
 1773TIP3    H226955   5.969   2.015   7.931
 1774TIP3   OH226956   6.089   1.962   8.058
 1774TIP3    H126957   6.180   1.928   8.048
 1774TIP3    H226958   6.048   1.889   8.107
 1775TIP3   OH226959   5.938   3.672   6.344
 1775TIP3    H126960   5.898   3.701   6.429
 1775TIP3    H226961   6.000   3.602   6.371
 1776TIP3   OH226962   6.928   1.902   8.086
 1776TIP3    H126963   6.923   1.860   8.174
 1776TIP3    H226964   7.021   1.887   8.059
 1777TIP3   OH226965   7.278   3.488   7.954
 1777TIP3    H126966   7.245   3.470   7.863
 1777TIP3    H226967   7.264   3.585   7.955
 1778TIP3   OH226968   1.238   4.776   6.913
 1778TIP3    H126969   1.238   4.870   6.942
 1778TIP3    H226970   1.154   4.771   6.865
 1779TIP3   OH226971   1.085   4.670   7.260
 1779TIP3    H126972   1.083   4.624   7.347
 1779TIP3    H226973   1.020   4.617   7.211
 1780TIP3   OH226974   0.315   4.654   7.413
 1780TIP3    H126975   0.297   4.597   7.490
 1780TIP3    H226976   0.398   4.699   7.438
 1781TIP3   OH226977   1.402   4.971   7.116
 1781TIP3    H126978   1.386   4.892   7.169
 1781TIP3    H226979   1.428   5.036   7.182
 1782TIP3   OH226980   0.386   5.103   7.263
 1782TIP3    H126981   0.353   5.013   7.242
 1782TIP3    H226982   0.479   5.092   7.239
 1783TIP3   OH226983   0.072   4.465   6.809
 1783TIP3    H126984   0.103   4.550   6.842
 1783TIP3    H226985   0.004   4.444   6.875
 1784TIP3   OH226986   0.093   4.665   7.086
 1784TIP3    H126987   0.146   4.590   7.121
 1784TIP3    H226988   0.156   4.721   7.038
 1785TIP3   OH226989   1.169   5.522   7.110
 1785TIP3    H126990   1.250   5.471   7.086
 1785TIP3    H226991   1.131   5.463   7.177
 1786TIP3   OH226992   0.907   4.878   7.329
 1786TIP3    H126993   0.955   4.841   7.252
 1786TIP3    H226994   0.977   4.932   7.369
 1787TIP3   OH226995   1.753   4.091   7.333
 1787TIP3    H126996   1.778   4.137   7.415
 1787TIP3    H226997   1.840   4.085   7.289
 1788TIP3   OH226998   1.268   4.405   7.386
 1788TIP3    H126999   1.283   4.312   7.405
 1788TIP3    H227000   1.226   4.399   7.298
 1789TIP3   OH227001   0.537   4.187   7.107
 1789TIP3    H127002   0.564   4.263   7.051
 1789TIP3    H227003   0.489   4.132   7.043
 1790TIP3   OH227004   1.258   4.201   6.959
 1790TIP3    H127005   1.328   4.164   7.016
 1790TIP3    H227006   1.302   4.207   6.875
 1791TIP3   OH227007   0.199   4.429   7.165
 1791TIP3    H127008   0.258   4.379   7.224
 1791TIP3    H227009   0.239   4.406   7.079
 1792TIP3   OH227010   0.686   4.597   7.089
 1792TIP3    H127011   0.762   4.550   7.127
 1792TIP3    H227012   0.643   4.525   7.039
 1793TIP3   OH227013   1.777   4.223   7.593
 1793TIP3    H127014   1.740   4.304   7.548
 1793TIP3    H227015   1.803   4.261   7.679
 1794TIP3   OH227016   0.432   4.067   7.467
 1794TIP3    H127017   0.371   4.120   7.412
 1794TIP3    H227018   0.371   4.013   7.523
 1795TIP3   OH227019   1.156   5.041   6.835
 1795TIP3    H127020   1.113   5.039   6.747
 1795TIP3    H227021   1.117   5.123   6.874
 1796TIP3   OH227022   0.659   4.868   7.457
 1796TIP3    H127023   0.616   4.955   7.472
 1796TIP3    H227024   0.737   4.894   7.405
 1797TIP3   OH227025   1.504   4.133   7.079
 1797TIP3    H127026   1.494   4.103   7.171
 1797TIP3    H227027   1.595   4.165   7.084
 1798TIP3   OH227028   0.371   4.274   7.293
 1798TIP3    H127029   0.427   4.344   7.335
 1798TIP3    H227030   0.437   4.234   7.231
 1799TIP3   OH227031   0.539   5.086   7.542
 1799TIP3    H127032   0.508   5.151   7.478
 1799TIP3    H227033   0.461   5.084   7.603
 1800TIP3   OH227034   0.124   5.032   6.633
 1800TIP3    H127035   0.134   5.102   6.568
 1800TIP3    H227036   0.160   5.069   6.715
 1801TIP3   OH227037   1.484   5.172   7.326
 1801TIP3    H127038   1.394   5.207   7.346
 1801TIP3    H227039   1.516   5.248   7.274
 1802TIP3   OH227040   1.490   4.019   7.466
 1802TIP3    H127041   1.413   4.035   7.408
 1802TIP3    H227042   1.564   4.053   7.413
 1803TIP3   OH227043   0.774   3.791   7.221
 1803TIP3    H127044   0.741   3.701   7.234
 1803TIP3    H227045   0.696   3.845   7.249
 1804TIP3   OH227046   1.344   5.353   7.009
 1804TIP3    H127047   1.353   5.288   6.937
 1804TIP3    H227048   1.416   5.416   6.988
 1805TIP3   OH227049   1.433   5.134   6.843
 1805TIP3    H127050   1.377   5.088   6.779
 1805TIP3    H227051   1.409   5.086   6.924
 1806TIP3   OH227052   1.577   5.020   7.718
 1806TIP3    H127053   1.591   4.947   7.654
 1806TIP3    H227054   1.596   5.096   7.659
 1807TIP3   OH227055   1.041   4.720   6.675
 1807TIP3    H127056   0.966   4.782   6.655
 1807TIP3    H227057   1.109   4.758   6.618
 1808TIP3   OH227058   1.026   4.537   6.404
 1808TIP3    H127059   1.102   4.552   6.460
 1808TIP3    H227060   1.054   4.465   6.349
 1809TIP3   OH227061   1.791   4.663   7.511
 1809TIP3    H127062   1.721   4.731   7.500
 1809TIP3    H227063   1.852   4.688   7.439
 1810TIP3   OH227064   1.457   4.701   6.787
 1810TIP3    H127065   1.375   4.733   6.833
 1810TIP3    H227066   1.506   4.661   6.862
 1811TIP3   OH227067   1.417   4.540   7.694
 1811TIP3    H127068   1.411   4.634   7.716
 1811TIP3    H227069   1.341   4.535   7.633
 1812TIP3   OH227070   0.538   4.806   6.972
 1812TIP3    H127071   0.495   4.773   6.890
 1812TIP3    H227072   0.598   4.731   6.993
 1813TIP3   OH227073   0.709   5.117   7.228
 1813TIP3    H127074   0.716   5.114   7.131
 1813TIP3    H227075   0.779   5.057   7.257
 1814TIP3   OH227076   0.588   4.650   7.330
 1814TIP3    H127077   0.621   4.652   7.237
 1814TIP3    H227078   0.626   4.732   7.369
 1815TIP3   OH227079   1.230   5.242   7.396
 1815TIP3    H127080   1.174   5.288   7.460
 1815TIP3    H227081   1.223   5.149   7.425
 1816TIP3   OH227082   0.679   5.081   7.786
 1816TIP3    H127083   0.606   5.132   7.829
 1816TIP3    H227084   0.643   5.071   7.694
 1817TIP3   OH227085   1.346   4.616   6.545
 1817TIP3    H127086   1.384   4.657   6.626
 1817TIP3    H227087   1.325   4.695   6.493
 1818TIP3   OH227088   0.405   4.700   7.714
 1818TIP3    H127089   0.422   4.794   7.735
 1818TIP3    H227090   0.314   4.695   7.751
 1819TIP3   OH227091   1.092   5.297   6.912
 1819TIP3    H127092   1.154   5.341   6.973
 1819TIP3    H227093   1.024   5.364   6.901
 1820TIP3   OH227094   0.535   5.289   7.887
 1820TIP3    H127095   0.515   5.327   7.799
 1820TIP3    H227096   0.444   5.260   7.911
 1821TIP3   OH227097   1.619   3.840   6.566
 1821TIP3    H127098   1.525   3.811   6.557
 1821TIP3    H227099   1.645   3.842   6.473
 1822TIP3   OH227100   0.435   4.664   6.750
 1822TIP3    H127101   0.469   4.711   6.673
 1822TIP3    H227102   0.451   4.571   6.730
 1823TIP3   OH227103   0.146   4.913   7.632
 1823TIP3    H127104   0.052   4.931   7.620
 1823TIP3    H227105   0.148   4.817   7.624
 1824TIP3   OH227106   0.113   5.230   7.231
 1824TIP3    H127107   0.197   5.180   7.231
 1824TIP3    H227108   0.086   5.222   7.324
 1825TIP3   OH227109   1.847   5.275   7.871
 1825TIP3    H127110   1.837   5.178   7.867
 1825TIP3    H227111   1.763   5.299   7.917
 1826TIP3   OH227112   0.923   5.204   7.796
 1826TIP3    H127113   0.921   5.292   7.838
 1826TIP3    H227114   0.828   5.181   7.786
 1827TIP3   OH227115   1.022   5.596   6.730
 1827TIP3    H127116   1.030   5.607   6.635
 1827TIP3    H227117   0.998   5.686   6.760
 1828TIP3   OH227118   0.382   5.483   6.928
 1828TIP3    H127119   0.382   5.445   7.018
 1828TIP3    H227120   0.317   5.427   6.882
 1829TIP3   OH227121   1.336   5.491   6.406
 1829TIP3    H127122   1.351   5.395   6.407
 1829TIP3    H227123   1.314   5.511   6.499
 1830TIP3   OH227124   1.283   5.515   6.713
 1830TIP3    H127125   1.194   5.530   6.751
 1830TIP3    H227126   1.301   5.425   6.743
 1831TIP3   OH227127   1.543   4.415   7.918
 1831TIP3    H127128   1.501   4.448   7.836
 1831TIP3    H227129   1.554   4.320   7.899
 1832TIP3   OH227130   0.336   5.116   7.709
 1832TIP3    H127131   0.345   5.082   7.802
 1832TIP3    H227132   0.258   5.063   7.682
 1833TIP3   OH227133   0.559   3.923   7.290
 1833TIP3    H127134   0.479   3.911   7.235
 1833TIP3    H227135   0.525   3.996   7.344
 1834TIP3   OH227136   1.052   3.883   7.630
 1834TIP3    H127137   1.088   3.832   7.705
 1834TIP3    H227138   0.956   3.881   7.653
 1835TIP3   OH227139   1.331   4.263   7.722
 1835TIP3    H127140   1.274   4.227   7.795
 1835TIP3    H227141   1.348   4.353   7.753
 1836TIP3   OH227142   0.546   4.413   7.425
 1836TIP3    H127143   0.510   4.468   7.497
 1836TIP3    H227144   0.575   4.487   7.367
 1837TIP3   OH227145   0.570   4.391   6.938
 1837TIP3    H127146   0.474   4.394   6.914
 1837TIP3    H227147   0.609   4.354   6.855
 1838TIP3   OH227148   1.104   4.502   6.820
 1838TIP3    H127149   1.065   4.577   6.770
 1838TIP3    H227150   1.159   4.461   6.750
 1839TIP3   OH227151   1.008   4.509   7.963
 1839TIP3    H127152   0.967   4.424   7.990
 1839TIP3    H227153   1.097   4.498   7.999
 1840TIP3   OH227154   1.209   4.444   7.098
 1840TIP3    H127155   1.192   4.528   7.051
 1840TIP3    H227156   1.213   4.382   7.023
 1841TIP3   OH227157   0.281   4.420   7.605
 1841TIP3    H127158   0.301   4.497   7.660
 1841TIP3    H227159   0.187   4.409   7.628
 1842TIP3   OH227160   0.079   4.178   6.976
 1842TIP3    H127161   0.088   4.134   7.061
 1842TIP3    H227162   0.067   4.104   6.915
 1843TIP3   OH227163   0.097   4.251   6.492
 1843TIP3    H127164   0.194   4.243   6.503
 1843TIP3    H227165   0.092   4.212   6.402
 1844TIP3   OH227166   1.118   4.576   7.520
 1844TIP3    H127167   1.185   4.518   7.477
 1844TIP3    H227168   1.071   4.513   7.580
 1845TIP3   OH227169   0.854   4.161   7.043
 1845TIP3    H127170   0.763   4.157   7.077
 1845TIP3    H227171   0.902   4.100   7.101
 1846TIP3   OH227172   0.311   4.339   6.898
 1846TIP3    H127173   0.217   4.325   6.879
 1846TIP3    H227174   0.345   4.248   6.881
 1847TIP3   OH227175   0.643   4.307   6.687
 1847TIP3    H127176   0.741   4.302   6.705
 1847TIP3    H227177   0.636   4.382   6.627
 1848TIP3   OH227178   1.270   4.098   7.305
 1848TIP3    H127179   1.198   4.081   7.368
 1848TIP3    H227180   1.252   4.029   7.237
 1849TIP3   OH227181   0.524   4.511   6.470
 1849TIP3    H127182   0.454   4.519   6.403
 1849TIP3    H227183   0.601   4.515   6.411
 1850TIP3   OH227184   1.581   5.683   8.006
 1850TIP3    H127185   1.597   5.730   7.922
 1850TIP3    H227186   1.669   5.696   8.049
 1851TIP3   OH227187   0.353   4.935   7.907
 1851TIP3    H127188   0.402   4.943   7.991
 1851TIP3    H227189   0.263   4.929   7.943
 1852TIP3   OH227190   0.933   4.437   7.195
 1852TIP3    H127191   1.010   4.414   7.140
 1852TIP3    H227192   0.908   4.350   7.229
 1853TIP3   OH227193   0.391   4.085   6.883
 1853TIP3    H127194   0.337   4.009   6.916
 1853TIP3    H227195   0.452   4.043   6.821
 1854TIP3   OH227196   0.784   4.293   7.490
 1854TIP3    H127197   0.724   4.366   7.464
 1854TIP3    H227198   0.863   4.341   7.517
 1855TIP3   OH227199   0.838   4.889   6.650
 1855TIP3    H127200   0.757   4.853   6.608
 1855TIP3    H227201   0.801   4.925   6.734
 1856TIP3   OH227202   1.612   4.866   7.509
 1856TIP3    H127203   1.655   4.927   7.443
 1856TIP3    H227204   1.528   4.848   7.464
 1857TIP3   OH227205   0.969   4.935   7.743
 1857TIP3    H127206   0.918   4.910   7.822
 1857TIP3    H227207   0.973   5.032   7.756
 1858TIP3   OH227208   1.256   4.377   6.605
 1858TIP3    H127209   1.340   4.353   6.648
 1858TIP3    H227210   1.282   4.462   6.565
 1859TIP3   OH227211   0.372   4.846   7.190
 1859TIP3    H127212   0.431   4.835   7.113
 1859TIP3    H227213   0.390   4.765   7.242
 1860TIP3   OH227214   1.032   5.061   6.588
 1860TIP3    H127215   1.007   5.155   6.591
 1860TIP3    H227216   0.946   5.013   6.596
 1861TIP3   OH227217   0.121   4.638   7.679
 1861TIP3    H127218   0.048   4.637   7.745
 1861TIP3    H227219   0.073   4.640   7.595
 1862TIP3   OH227220   0.740   4.638   7.902
 1862TIP3    H127221   0.713   4.599   7.818
 1862TIP3    H227222   0.832   4.605   7.910
 1863TIP3   OH227223   1.272   5.159   7.723
 1863TIP3    H127224   1.192   5.171   7.671
 1863TIP3    H227225   1.239   5.182   7.812
 1864TIP3   OH227226   1.821   5.005   7.838
 1864TIP3    H127227   1.731   5.017   7.799
 1864TIP3    H227228   1.875   4.985   7.758
 1865TIP3   OH227229   1.675   5.227   6.597
 1865TIP3    H127230   1.578   5.229   6.600
 1865TIP3    H227231   1.696   5.242   6.502
 1866TIP3   OH227232   1.358   4.734   7.309
 1866TIP3    H127233   1.264   4.713   7.296
 1866TIP3    H227234   1.400   4.662   7.258
 1867TIP3   OH227235   0.615   5.196   6.958
 1867TIP3    H127236   0.653   5.272   6.907
 1867TIP3    H227237   0.520   5.214   6.947
 1868TIP3   OH227238   0.736   4.973   6.878
 1868TIP3    H127239   0.697   5.063   6.888
 1868TIP3    H227240   0.678   4.922   6.937
 1869TIP3   OH227241   0.829   5.379   7.566
 1869TIP3    H127242   0.886   5.448   7.526
 1869TIP3    H227243   0.884   5.343   7.636
 1870TIP3   OH227244   0.641   5.430   6.839
 1870TIP3    H127245   0.550   5.445   6.868
 1870TIP3    H227246   0.669   5.522   6.829
 1871TIP3   OH227247   1.124   4.969   7.487
 1871TIP3    H127248   1.083   4.928   7.566
 1871TIP3    H227249   1.171   4.893   7.449
 1872TIP3   OH227250   1.417   5.443   7.774
 1872TIP3    H127251   1.347   5.385   7.739
 1872TIP3    H227252   1.437   5.499   7.694
 1873TIP3   OH227253   0.245   4.123   7.680
 1873TIP3    H127254   0.208   4.210   7.699
 1873TIP3    H227255   0.182   4.065   7.726
 1874TIP3   OH227256   1.438   4.903   6.619
 1874TIP3    H127257   1.459   4.832   6.684
 1874TIP3    H227258   1.521   4.950   6.606
 1875TIP3   OH227259   0.227   5.349   7.494
 1875TIP3    H127260   0.285   5.276   7.520
 1875TIP3    H227261   0.160   5.348   7.564
 1876TIP3   OH227262   0.675   5.159   6.506
 1876TIP3    H127263   0.751   5.209   6.538
 1876TIP3    H227264   0.644   5.215   6.432
 1877TIP3   OH227265   1.102   4.158   7.603
 1877TIP3    H127266   1.191   4.172   7.638
 1877TIP3    H227267   1.088   4.062   7.617
 1878TIP3   OH227268   0.975   5.342   6.515
 1878TIP3    H127269   0.891   5.391   6.520
 1878TIP3    H227270   0.986   5.332   6.420
 1879TIP3   OH227271   0.904   4.299   6.808
 1879TIP3    H127272   0.974   4.364   6.822
 1879TIP3    H227273   0.910   4.241   6.886
 1880TIP3   OH227274   0.989   4.400   7.690
 1880TIP3    H127275   1.011   4.424   7.782
 1880TIP3    H227276   1.035   4.313   7.677
 1881TIP3   OH227277   0.965   3.941   6.876
 1881TIP3    H127278   0.907   4.019   6.864
 1881TIP3    H227279   1.044   3.979   6.836
 1882TIP3   OH227280   0.579   4.061   6.555
 1882TIP3    H127281   0.570   4.151   6.590
 1882TIP3    H227282   0.676   4.051   6.564
 1883TIP3   OH227283   1.582   4.172   7.787
 1883TIP3    H127284   1.488   4.156   7.768
 1883TIP3    H227285   1.619   4.183   7.698
 1884TIP3   OH227286   1.470   4.526   7.145
 1884TIP3    H127287   1.395   4.464   7.155
 1884TIP3    H227288   1.541   4.481   7.197
 1885TIP3   OH227289   1.530   5.475   7.335
 1885TIP3    H127290   1.543   5.554   7.278
 1885TIP3    H227291   1.622   5.450   7.352
 1886TIP3   OH227292   0.317   3.884   7.202
 1886TIP3    H127293   0.278   3.852   7.117
 1886TIP3    H227294   0.303   3.803   7.257
 1887TIP3   OH227295   0.196   5.289   6.849
 1887TIP3    H127296   0.101   5.302   6.861
 1887TIP3    H227297   0.207   5.330   6.761
 1888TIP3   OH227298   0.188   5.492   7.936
 1888TIP3    H127299   0.218   5.522   8.025
 1888TIP3    H227300   0.112   5.436   7.959
 1889TIP3   OH227301   0.633   5.423   8.131
 1889TIP3    H127302   0.670   5.346   8.177
 1889TIP3    H227303   0.613   5.385   8.043
 1890TIP3   OH227304   1.243   5.213   7.983
 1890TIP3    H127305   1.194   5.140   8.028
 1890TIP3    H227306   1.334   5.187   8.003
 1891TIP3   OH227307   0.144   4.917   8.070
 1891TIP3    H127308   0.160   4.839   8.125
 1891TIP3    H227309   0.053   4.904   8.038
 1892TIP3   OH227310   0.558   4.873   6.269
 1892TIP3    H127311   0.610   4.879   6.351
 1892TIP3    H227312   0.593   4.943   6.214
 1893TIP3   OH227313   0.779   4.896   7.958
 1893TIP3    H127314   0.745   4.967   7.899
 1893TIP3    H227315   0.750   4.814   7.913
 1894TIP3   OH227316   1.341   4.882   7.743
 1894TIP3    H127317   1.426   4.932   7.755
 1894TIP3    H227318   1.281   4.958   7.736
 1895TIP3   OH227319   0.204   4.613   8.001
 1895TIP3    H127320   0.236   4.521   7.998
 1895TIP3    H227321   0.196   4.619   8.097
 1896TIP3   OH227322   0.661   4.753   6.518
 1896TIP3    H127323   0.639   4.673   6.568
 1896TIP3    H227324   0.710   4.712   6.444
 1897TIP3   OH227325   0.576   4.506   7.674
 1897TIP3    H127326   0.512   4.573   7.710
 1897TIP3    H227327   0.641   4.567   7.631
 1898TIP3   OH227328   0.767   4.588   6.331
 1898TIP3    H127329   0.792   4.648   6.258
 1898TIP3    H227330   0.857   4.563   6.362
 1899TIP3   OH227331   1.118   4.792   8.080
 1899TIP3    H127332   1.156   4.763   7.996
 1899TIP3    H227333   1.117   4.709   8.132
 1900TIP3   OH227334   0.671   4.306   7.813
 1900TIP3    H127335   0.749   4.280   7.762
 1900TIP3    H227336   0.654   4.394   7.772
 1901TIP3   OH227337   0.670   4.078   7.591
 1901TIP3    H127338   0.724   4.140   7.536
 1901TIP3    H227339   0.605   4.040   7.528
 1902TIP3   OH227340   0.786   4.667   7.595
 1902TIP3    H127341   0.879   4.681   7.575
 1902TIP3    H227342   0.747   4.751   7.561
 1903TIP3   OH227343   1.232   4.435   8.129
 1903TIP3    H127344   1.239   4.344   8.166
 1903TIP3    H227345   1.319   4.447   8.088
 1904TIP3   OH227346   1.401   4.744   7.970
 1904TIP3    H127347   1.357   4.781   7.891
 1904TIP3    H227348   1.493   4.738   7.936
 1905TIP3   OH227349   0.443   4.401   8.015
 1905TIP3    H127350   0.375   4.330   8.017
 1905TIP3    H227351   0.507   4.373   7.948
 1906TIP3   OH227352   0.776   3.841   7.635
 1906TIP3    H127353   0.749   3.936   7.638
 1906TIP3    H227354   0.700   3.801   7.588
 1907TIP3   OH227355   0.875   4.286   8.024
 1907TIP3    H127356   0.839   4.270   8.113
 1907TIP3    H227357   0.798   4.255   7.973
 1908TIP3   OH227358   1.156   4.209   7.919
 1908TIP3    H127359   1.060   4.203   7.932
 1908TIP3    H227360   1.184   4.151   7.993
 1909TIP3   OH227361   1.242   4.039   8.098
 1909TIP3    H127362   1.287   3.953   8.111
 1909TIP3    H227363   1.268   4.088   8.179
 1910TIP3   OH227364   0.293   4.166   8.002
 1910TIP3    H127365   0.269   4.082   7.959
 1910TIP3    H227366   0.270   4.149   8.097
 1911TIP3   OH227367   0.740   3.780   7.898
 1911TIP3    H127368   0.815   3.718   7.903
 1911TIP3    H227369   0.745   3.802   7.802
 1912TIP3   OH227370   0.751   3.908   8.160
 1912TIP3    H127371   0.749   3.857   8.077
 1912TIP3    H227372   0.750   3.998   8.124
 1913TIP3   OH227373   0.018   5.669   6.850
 1913TIP3    H127374  -0.067   5.621   6.847
 1913TIP3    H227375   0.062   5.608   6.913
 1914TIP3   OH227376   0.085   5.463   7.049
 1914TIP3    H127377   0.108   5.368   7.058
 1914TIP3    H227378   0.135   5.496   7.128
 1915TIP3   OH227379   1.816   5.522   7.338
 1915TIP3    H127380   1.862   5.515   7.423
 1915TIP3    H227381   1.836   5.613   7.312
 1916TIP3   OH227382   1.787   5.458   7.651
 1916TIP3    H127383   1.752   5.379   7.603
 1916TIP3    H227384   1.820   5.416   7.733
 1917TIP3   OH227385   1.647   5.068   8.142
 1917TIP3    H127386   1.562   5.076   8.190
 1917TIP3    H227387   1.699   5.144   8.179
 1918TIP3   OH227388   1.838   4.697   6.846
 1918TIP3    H127389   1.751   4.671   6.882
 1918TIP3    H227390   1.888   4.713   6.929
 1919TIP3   OH227391   1.761   4.973   7.320
 1919TIP3    H127392   1.827   4.901   7.310
 1919TIP3    H227393   1.806   5.047   7.274
 1920TIP3   OH227394   1.638   5.247   7.559
 1920TIP3    H127395   1.561   5.282   7.606
 1920TIP3    H227396   1.598   5.210   7.477
 1921TIP3   OH227397   1.631   4.362   6.315
 1921TIP3    H127398   1.655   4.424   6.246
 1921TIP3    H227399   1.600   4.290   6.258
 1922TIP3   OH227400   1.622   4.544   6.934
 1922TIP3    H127401   1.562   4.469   6.926
 1922TIP3    H227402   1.597   4.564   7.027
 1923TIP3   OH227403   0.050   4.792   7.312
 1923TIP3    H127404   0.048   4.766   7.218
 1923TIP3    H227405   0.145   4.808   7.328
 1924TIP3   OH227406   1.678   4.745   7.875
 1924TIP3    H127407   1.739   4.668   7.881
 1924TIP3    H227408   1.735   4.817   7.843
 1925TIP3   OH227409   1.800   4.517   7.959
 1925TIP3    H127410   1.714   4.486   7.924
 1925TIP3    H227411   1.860   4.440   7.947
 1926TIP3   OH227412   1.493   4.273   6.712
 1926TIP3    H127413   1.524   4.208   6.778
 1926TIP3    H227414   1.537   4.354   6.742
 1927TIP3   OH227415   1.641   4.387   7.283
 1927TIP3    H127416   1.737   4.394   7.301
 1927TIP3    H227417   1.608   4.377   7.373
 1928TIP3   OH227418   1.631   4.438   7.559
 1928TIP3    H127419   1.549   4.458   7.608
 1928TIP3    H227420   1.671   4.527   7.553
 1929TIP3   OH227421   0.071   4.298   7.946
 1929TIP3    H127422   0.155   4.257   7.974
 1929TIP3    H227423   0.007   4.223   7.952
 1930TIP3   OH227424   1.826   3.881   8.081
 1930TIP3    H127425   1.872   3.809   8.035
 1930TIP3    H227426   1.827   3.950   8.010
 1931TIP3   OH227427   1.562   4.002   6.790
 1931TIP3    H127428   1.620   3.986   6.867
 1931TIP3    H227429   1.563   3.915   6.746
 1932TIP3   OH227430   0.157   4.095   7.264
 1932TIP3    H127431   0.217   4.020   7.244
 1932TIP3    H227432   0.216   4.170   7.258
 1933TIP3   OH227433   0.048   4.535   7.402
 1933TIP3    H127434   0.124   4.501   7.352
 1933TIP3    H227435   0.030   4.615   7.348
 1934TIP3   OH227436   1.785   4.095   7.939
 1934TIP3    H127437   1.718   4.103   8.010
 1934TIP3    H227438   1.727   4.072   7.863
 1935TIP3   OH227439   1.732   4.062   6.420
 1935TIP3    H127440   1.807   4.018   6.462
 1935TIP3    H227441   1.748   4.152   6.453
 1936TIP3   OH227442   0.047   4.077   6.702
 1936TIP3    H127443   0.027   4.057   6.608
 1936TIP3    H227444   0.098   4.159   6.688
 1937TIP3   OH227445   1.500   5.559   6.941
 1937TIP3    H127446   1.563   5.518   6.876
 1937TIP3    H227447   1.561   5.596   7.007
 1938TIP3   OH227448   0.045   3.846   7.560
 1938TIP3    H127449   0.014   3.880   7.644
 1938TIP3    H227450   0.009   3.912   7.496
 1939TIP3   OH227451   0.272   5.216   7.974
 1939TIP3    H127452   0.236   5.296   7.931
 1939TIP3    H227453   0.198   5.187   8.031
 1940TIP3   OH227454   0.544   5.382   7.621
 1940TIP3    H127455   0.551   5.472   7.584
 1940TIP3    H227456   0.636   5.352   7.615
 1941TIP3   OH227457   0.953   5.466   7.892
 1941TIP3    H127458   0.951   5.454   7.988
 1941TIP3    H227459   1.045   5.494   7.877
 1942TIP3   OH227460   1.196   5.597   7.883
 1942TIP3    H127461   1.252   5.591   7.803
 1942TIP3    H227462   1.218   5.686   7.916
 1943TIP3   OH227463   1.686   3.837   7.751
 1943TIP3    H127464   1.612   3.871   7.700
 1943TIP3    H227465   1.696   3.746   7.717
 1944TIP3   OH227466   0.308   5.674   7.588
 1944TIP3    H127467   0.218   5.689   7.551
 1944TIP3    H227468   0.285   5.655   7.679
 1945TIP3   OH227469   0.550   5.629   7.478
 1945TIP3    H127470   0.458   5.631   7.514
 1945TIP3    H227471   0.546   5.694   7.405
 1946TIP3   OH227472   0.980   5.587   7.418
 1946TIP3    H127473   0.924   5.631   7.353
 1946TIP3    H227474   0.998   5.659   7.482
 1947TIP3   OH227475   1.192   5.465   7.580
 1947TIP3    H127476   1.138   5.506   7.510
 1947TIP3    H227477   1.280   5.495   7.552
 1948TIP3   OH227478   1.440   5.594   7.557
 1948TIP3    H127479   1.456   5.687   7.538
 1948TIP3    H227480   1.469   5.552   7.473
 1949TIP3   OH227481   0.217   5.510   7.274
 1949TIP3    H127482   0.201   5.469   7.361
 1949TIP3    H227483   0.298   5.460   7.248
 1950TIP3   OH227484   0.434   5.384   7.175
 1950TIP3    H127485   0.432   5.290   7.202
 1950TIP3    H227486   0.525   5.407   7.205
 1951TIP3   OH227487   0.671   5.398   7.289
 1951TIP3    H127488   0.685   5.301   7.281
 1951TIP3    H227489   0.711   5.415   7.376
 1952TIP3   OH227490   0.974   3.950   7.168
 1952TIP3    H127491   0.899   3.891   7.191
 1952TIP3    H227492   0.999   3.923   7.078
 1953TIP3   OH227493   1.557   3.809   7.161
 1953TIP3    H127494   1.612   3.868   7.106
 1953TIP3    H227495   1.467   3.843   7.146
 1954TIP3   OH227496   1.741   3.928   6.990
 1954TIP3    H127497   1.800   3.860   6.952
 1954TIP3    H227498   1.803   3.994   7.029
 1955TIP3   OH227499   0.256   3.872   6.931
 1955TIP3    H127500   0.192   3.853   6.861
 1955TIP3    H227501   0.313   3.792   6.923
 1956TIP3   OH227502   0.221   3.877   6.492
 1956TIP3    H127503   0.151   3.898   6.424
 1956TIP3    H227504   0.250   3.968   6.509
 1957TIP3   OH227505   0.707   3.807   6.939
 1957TIP3    H127506   0.786   3.850   6.904
 1957TIP3    H227507   0.726   3.809   7.034
 1958TIP3   OH227508   1.245   3.889   7.083
 1958TIP3    H127509   1.240   3.888   6.987
 1958TIP3    H227510   1.209   3.800   7.102
 1959TIP3   OH227511   1.359   3.837   6.595
 1959TIP3    H127512   1.275   3.822   6.547
 1959TIP3    H227513   1.338   3.783   6.675
 1960TIP3   OH227514   0.171   5.466   6.632
 1960TIP3    H127515   0.090   5.410   6.639
 1960TIP3    H227516   0.139   5.529   6.566
 1961TIP3   OH227517   0.322   4.121   6.439
 1961TIP3    H127518   0.317   4.124   6.342
 1961TIP3    H227519   0.417   4.105   6.456
 1962TIP3   OH227520   1.667   5.435   6.774
 1962TIP3    H127521   1.688   5.355   6.721
 1962TIP3    H227522   1.660   5.501   6.701
 1963TIP3   OH227523   0.212   3.901   7.898
 1963TIP3    H127524   0.193   3.805   7.896
 1963TIP3    H227525   0.302   3.898   7.939
 1964TIP3   OH227526   0.432   3.862   8.059
 1964TIP3    H127527   0.505   3.799   8.046
 1964TIP3    H227528   0.369   3.810   8.113
 1965TIP3   OH227529   1.300   3.782   8.124
 1965TIP3    H127530   1.319   3.733   8.206
 1965TIP3    H227531   1.382   3.765   8.072
 1966TIP3   OH227532   1.618   5.394   7.932
 1966TIP3    H127533   1.539   5.394   7.872
 1966TIP3    H227534   1.619   5.488   7.961
 1967TIP3   OH227535   3.085   4.780   6.918
 1967TIP3    H127536   3.106   4.864   6.963
 1967TIP3    H227537   3.004   4.807   6.874
 1968TIP3   OH227538   2.973   4.673   7.277
 1968TIP3    H127539   2.973   4.629   7.364
 1968TIP3    H227540   2.909   4.623   7.223
 1969TIP3   OH227541   2.167   4.661   7.407
 1969TIP3    H127542   2.158   4.580   7.460
 1969TIP3    H227543   2.225   4.714   7.465
 1970TIP3   OH227544   3.302   4.978   7.139
 1970TIP3    H127545   3.298   4.918   7.216
 1970TIP3    H227546   3.322   5.064   7.182
 1971TIP3   OH227547   2.270   5.118   7.250
 1971TIP3    H127548   2.246   5.024   7.240
 1971TIP3    H227549   2.365   5.107   7.232
 1972TIP3   OH227550   1.976   4.447   6.803
 1972TIP3    H127551   1.953   4.538   6.829
 1972TIP3    H227552   1.894   4.401   6.828
 1973TIP3   OH227553   1.986   4.706   7.067
 1973TIP3    H127554   2.019   4.616   7.086
 1973TIP3    H227555   2.068   4.758   7.069
 1974TIP3   OH227556   3.053   5.521   7.107
 1974TIP3    H127557   3.129   5.473   7.065
 1974TIP3    H227558   3.022   5.451   7.166
 1975TIP3   OH227559   2.772   4.939   7.382
 1975TIP3    H127560   2.800   4.904   7.296
 1975TIP3    H227561   2.860   4.964   7.419
 1976TIP3   OH227562   3.658   4.087   7.348
 1976TIP3    H127563   3.662   4.136   7.433
 1976TIP3    H227564   3.751   4.098   7.319
 1977TIP3   OH227565   3.151   4.394   7.381
 1977TIP3    H127566   3.159   4.298   7.397
 1977TIP3    H227567   3.135   4.395   7.284
 1978TIP3   OH227568   2.444   4.160   7.051
 1978TIP3    H127569   2.460   4.246   7.006
 1978TIP3    H227570   2.393   4.115   6.981
 1979TIP3   OH227571   3.173   4.203   6.961
 1979TIP3    H127572   3.228   4.158   7.029
 1979TIP3    H227573   3.246   4.245   6.910
 1980TIP3   OH227574   2.098   4.471   7.150
 1980TIP3    H127575   2.160   4.439   7.218
 1980TIP3    H227576   2.125   4.415   7.075
 1981TIP3   OH227577   2.552   4.593   7.103
 1981TIP3    H127578   2.647   4.574   7.112
 1981TIP3    H227579   2.520   4.510   7.062
 1982TIP3   OH227580   3.656   4.222   7.604
 1982TIP3    H127581   3.625   4.304   7.561
 1982TIP3    H227582   3.678   4.258   7.692
 1983TIP3   OH227583   2.339   4.092   7.479
 1983TIP3    H127584   2.295   4.141   7.407
 1983TIP3    H227585   2.286   4.119   7.556
 1984TIP3   OH227586   3.015   5.050   6.849
 1984TIP3    H127587   3.040   5.040   6.757
 1984TIP3    H227588   2.976   5.140   6.848
 1985TIP3   OH227589   2.535   4.847   7.460
 1985TIP3    H127590   2.475   4.923   7.478
 1985TIP3    H227591   2.614   4.895   7.427
 1986TIP3   OH227592   3.356   4.142   7.142
 1986TIP3    H127593   3.400   4.074   7.194
 1986TIP3    H227594   3.432   4.197   7.119
 1987TIP3   OH227595   2.284   4.278   7.277
 1987TIP3    H127596   2.347   4.341   7.316
 1987TIP3    H227597   2.336   4.238   7.205
 1988TIP3   OH227598   2.407   5.066   7.559
 1988TIP3    H127599   2.385   5.134   7.494
 1988TIP3    H227600   2.322   5.059   7.609
 1989TIP3   OH227601   3.374   5.183   7.322
 1989TIP3    H127602   3.281   5.200   7.349
 1989TIP3    H227603   3.395   5.270   7.285
 1990TIP3   OH227604   3.359   4.011   7.472
 1990TIP3    H127605   3.282   4.028   7.414
 1990TIP3    H227606   3.433   4.038   7.417
 1991TIP3   OH227607   2.671   3.823   7.230
 1991TIP3    H127608   2.640   3.731   7.228
 1991TIP3    H227609   2.586   3.868   7.254
 1992TIP3   OH227610   3.218   5.347   6.993
 1992TIP3    H127611   3.240   5.273   6.934
 1992TIP3    H227612   3.295   5.407   6.977
 1993TIP3   OH227613   3.338   5.119   6.838
 1993TIP3    H127614   3.336   5.050   6.769
 1993TIP3    H227615   3.318   5.067   6.918
 1994TIP3   OH227616   3.479   5.012   7.711
 1994TIP3    H127617   3.501   4.939   7.649
 1994TIP3    H227618   3.502   5.090   7.655
 1995TIP3   OH227619   3.684   4.666   7.504
 1995TIP3    H127620   3.612   4.731   7.492
 1995TIP3    H227621   3.745   4.696   7.433
 1996TIP3   OH227622   3.276   4.611   6.817
 1996TIP3    H127623   3.205   4.676   6.836
 1996TIP3    H227624   3.349   4.645   6.871
 1997TIP3   OH227625   3.294   4.572   7.700
 1997TIP3    H127626   3.287   4.663   7.730
 1997TIP3    H227627   3.225   4.570   7.632
 1998TIP3   OH227628   2.463   4.773   6.933
 1998TIP3    H127629   2.428   4.714   6.864
 1998TIP3    H227630   2.506   4.712   6.996
 1999TIP3   OH227631   2.565   5.084   7.244
 1999TIP3    H127632   2.584   5.084   7.149
 1999TIP3    H227633   2.648   5.054   7.287
 2000TIP3   OH227634   2.454   4.628   7.344
 2000TIP3    H127635   2.489   4.632   7.252
 2000TIP3    H227636   2.497   4.706   7.388
 2001TIP3   OH227637   3.125   5.229   7.408
 2001TIP3    H127638   3.095   5.287   7.480
 2001TIP3    H227639   3.097   5.141   7.440
 2002TIP3   OH227640   2.574   5.104   7.767
 2002TIP3    H127641   2.501   5.150   7.812
 2002TIP3    H227642   2.530   5.086   7.680
 2003TIP3   OH227643   2.270   4.731   7.665
 2003TIP3    H127644   2.294   4.809   7.717
 2003TIP3    H227645   2.210   4.689   7.728
 2004TIP3   OH227646   2.940   5.368   6.854
 2004TIP3    H127647   2.988   5.405   6.930
 2004TIP3    H227648   2.907   5.451   6.811
 2005TIP3   OH227649   2.386   5.274   7.884
 2005TIP3    H127650   2.376   5.313   7.795
 2005TIP3    H227651   2.292   5.251   7.903
 2006TIP3   OH227652   2.331   4.652   6.726
 2006TIP3    H127653   2.296   4.742   6.719
 2006TIP3    H227654   2.252   4.597   6.729
 2007TIP3   OH227655   1.970   4.927   7.625
 2007TIP3    H127656   1.924   4.911   7.541
 2007TIP3    H227657   2.007   4.838   7.640
 2008TIP3   OH227658   1.936   5.200   7.283
 2008TIP3    H127659   2.031   5.186   7.269
 2008TIP3    H227660   1.937   5.271   7.349
 2009TIP3   OH227661   3.736   5.271   7.862
 2009TIP3    H127662   3.724   5.177   7.885
 2009TIP3    H227663   3.651   5.307   7.899
 2010TIP3   OH227664   2.832   5.209   7.767
 2010TIP3    H127665   2.847   5.277   7.836
 2010TIP3    H227666   2.737   5.185   7.776
 2011TIP3   OH227667   2.866   5.591   6.714
 2011TIP3    H127668   2.882   5.603   6.618
 2011TIP3    H227669   2.891   5.678   6.749
 2012TIP3   OH227670   2.247   5.470   6.925
 2012TIP3    H127671   2.266   5.434   7.014
 2012TIP3    H227672   2.156   5.437   6.910
 2013TIP3   OH227673   3.147   5.524   6.721
 2013TIP3    H127674   3.051   5.519   6.707
 2013TIP3    H227675   3.174   5.432   6.720
 2014TIP3   OH227676   3.453   4.410   7.898
 2014TIP3    H127677   3.388   4.448   7.836
 2014TIP3    H227678   3.441   4.315   7.877
 2015TIP3   OH227679   2.188   5.066   7.709
 2015TIP3    H127680   2.195   5.027   7.799
 2015TIP3    H227681   2.103   5.028   7.677
 2016TIP3   OH227682   2.443   3.926   7.304
 2016TIP3    H127683   2.351   3.917   7.274
 2016TIP3    H227684   2.428   3.979   7.386
 2017TIP3   OH227685   2.948   3.876   7.625
 2017TIP3    H127686   2.979   3.833   7.707
 2017TIP3    H227687   2.851   3.877   7.639
 2018TIP3   OH227688   3.207   4.295   7.737
 2018TIP3    H127689   3.146   4.271   7.812
 2018TIP3    H227690   3.162   4.371   7.697
 2019TIP3   OH227691   2.473   4.385   7.442
 2019TIP3    H127692   2.387   4.393   7.487
 2019TIP3    H227693   2.482   4.477   7.406
 2020TIP3   OH227694   2.464   4.395   6.920
 2020TIP3    H127695   2.368   4.387   6.903
 2020TIP3    H227696   2.500   4.421   6.834
 2021TIP3   OH227697   2.903   4.515   7.951
 2021TIP3    H127698   2.861   4.431   7.980
 2021TIP3    H227699   2.986   4.510   8.002
 2022TIP3   OH227700   3.111   4.442   7.113
 2022TIP3    H127701   3.103   4.522   7.058
 2022TIP3    H227702   3.118   4.370   7.048
 2023TIP3   OH227703   2.205   4.411   7.540
 2023TIP3    H127704   2.243   4.456   7.618
 2023TIP3    H227705   2.169   4.328   7.579
 2024TIP3   OH227706   1.916   4.130   7.019
 2024TIP3    H127707   1.999   4.113   7.067
 2024TIP3    H227708   1.934   4.103   6.927
 2025TIP3   OH227709   1.974   4.215   6.522
 2025TIP3    H127710   2.006   4.265   6.444
 2025TIP3    H227711   1.966   4.288   6.586
 2026TIP3   OH227712   3.022   4.581   7.525
 2026TIP3    H127713   3.076   4.510   7.483
 2026TIP3    H227714   2.963   4.528   7.586
 2027TIP3   OH227715   2.747   4.153   7.016
 2027TIP3    H127716   2.663   4.153   7.066
 2027TIP3    H227717   2.810   4.123   7.084
 2028TIP3   OH227718   2.197   4.322   6.913
 2028TIP3    H127719   2.125   4.353   6.855
 2028TIP3    H227720   2.221   4.234   6.875
 2029TIP3   OH227721   3.128   4.102   7.347
 2029TIP3    H127722   3.045   4.080   7.393
 2029TIP3    H227723   3.116   4.056   7.262
 2030TIP3   OH227724   2.386   4.506   6.374
 2030TIP3    H127725   2.347   4.454   6.446
 2030TIP3    H227726   2.455   4.555   6.420
 2031TIP3   OH227727   3.433   5.641   8.009
 2031TIP3    H127728   3.488   5.665   7.931
 2031TIP3    H227729   3.500   5.646   8.079
 2032TIP3   OH227730   2.227   4.889   7.940
 2032TIP3    H127731   2.288   4.896   8.016
 2032TIP3    H227732   2.141   4.896   7.986
 2033TIP3   OH227733   2.803   4.482   7.153
 2033TIP3    H127734   2.887   4.435   7.138
 2033TIP3    H227735   2.775   4.443   7.236
 2034TIP3   OH227736   2.284   4.065   6.853
 2034TIP3    H127737   2.224   3.997   6.891
 2034TIP3    H227738   2.346   4.008   6.805
 2035TIP3   OH227739   2.705   4.250   7.423
 2035TIP3    H127740   2.622   4.304   7.423
 2035TIP3    H227741   2.759   4.300   7.485
 2036TIP3   OH227742   2.696   4.865   6.628
 2036TIP3    H127743   2.692   4.945   6.574
 2036TIP3    H227744   2.684   4.902   6.718
 2037TIP3   OH227745   3.502   4.858   7.497
 2037TIP3    H127746   3.551   4.917   7.434
 2037TIP3    H227747   3.415   4.853   7.455
 2038TIP3   OH227748   2.861   4.937   7.738
 2038TIP3    H127749   2.840   4.928   7.832
 2038TIP3    H227750   2.845   5.033   7.726
 2039TIP3   OH227751   2.283   4.848   7.214
 2039TIP3    H127752   2.358   4.822   7.157
 2039TIP3    H227753   2.270   4.767   7.267
 2040TIP3   OH227754   1.951   4.675   7.737
 2040TIP3    H127755   1.952   4.608   7.808
 2040TIP3    H227756   1.895   4.637   7.667
 2041TIP3   OH227757   2.656   4.645   7.908
 2041TIP3    H127758   2.620   4.582   7.845
 2041TIP3    H227759   2.749   4.615   7.914
 2042TIP3   OH227760   3.154   5.165   7.773
 2042TIP3    H127761   3.080   5.188   7.714
 2042TIP3    H227762   3.125   5.214   7.853
 2043TIP3   OH227763   3.630   4.415   6.647
 2043TIP3    H127764   3.627   4.366   6.565
 2043TIP3    H227765   3.651   4.505   6.613
 2044TIP3   OH227766   3.716   4.996   7.847
 2044TIP3    H127767   3.623   5.008   7.814
 2044TIP3    H227768   3.766   4.987   7.763
 2045TIP3   OH227769   3.259   4.760   7.321
 2045TIP3    H127770   3.167   4.732   7.309
 2045TIP3    H227771   3.307   4.690   7.270
 2046TIP3   OH227772   2.495   5.191   6.968
 2046TIP3    H127773   2.557   5.251   6.923
 2046TIP3    H227774   2.411   5.233   6.945
 2047TIP3   OH227775   2.636   4.971   6.882
 2047TIP3    H127776   2.578   5.048   6.899
 2047TIP3    H227777   2.583   4.898   6.917
 2048TIP3   OH227778   2.689   5.379   7.567
 2048TIP3    H127779   2.751   5.444   7.530
 2048TIP3    H227780   2.742   5.342   7.640
 2049TIP3   OH227781   2.512   5.486   6.852
 2049TIP3    H127782   2.418   5.474   6.876
 2049TIP3    H227783   2.522   5.583   6.861
 2050TIP3   OH227784   3.011   4.973   7.502
 2050TIP3    H127785   2.972   4.943   7.587
 2050TIP3    H227786   3.055   4.892   7.470
 2051TIP3   OH227787   3.326   5.427   7.742
 2051TIP3    H127788   3.241   5.384   7.722
 2051TIP3    H227789   3.336   5.487   7.664
 2052TIP3   OH227790   3.690   5.524   6.473
 2052TIP3    H127791   3.722   5.546   6.385
 2052TIP3    H227792   3.597   5.498   6.452
 2053TIP3   OH227793   2.172   4.179   7.692
 2053TIP3    H127794   2.107   4.213   7.755
 2053TIP3    H227795   2.158   4.084   7.703
 2054TIP3   OH227796   3.357   4.882   6.664
 2054TIP3    H127797   3.378   4.789   6.645
 2054TIP3    H227798   3.439   4.926   6.635
 2055TIP3   OH227799   2.092   5.337   7.508
 2055TIP3    H127800   2.157   5.266   7.524
 2055TIP3    H227801   2.109   5.394   7.584
 2056TIP3   OH227802   2.991   4.151   7.619
 2056TIP3    H127803   3.085   4.167   7.634
 2056TIP3    H227804   2.983   4.054   7.633
 2057TIP3   OH227805   3.061   4.138   6.730
 2057TIP3    H127806   3.124   4.184   6.671
 2057TIP3    H227807   3.100   4.155   6.818
 2058TIP3   OH227808   2.776   4.287   6.767
 2058TIP3    H127809   2.866   4.311   6.792
 2058TIP3    H227810   2.740   4.247   6.849
 2059TIP3   OH227811   2.898   4.404   7.681
 2059TIP3    H127812   2.899   4.418   7.778
 2059TIP3    H227813   2.924   4.309   7.670
 2060TIP3   OH227814   2.874   3.966   6.854
 2060TIP3    H127815   2.825   4.033   6.907
 2060TIP3    H227816   2.946   4.021   6.816
 2061TIP3   OH227817   2.556   5.456   6.585
 2061TIP3    H127818   2.621   5.517   6.547
 2061TIP3    H227819   2.559   5.473   6.681
 2062TIP3   OH227820   2.458   4.137   6.485
 2062TIP3    H127821   2.416   4.155   6.570
 2062TIP3    H227822   2.547   4.103   6.512
 2063TIP3   OH227823   3.452   4.163   7.776
 2063TIP3    H127824   3.355   4.176   7.767
 2063TIP3    H227825   3.482   4.175   7.683
 2064TIP3   OH227826   3.372   4.546   7.179
 2064TIP3    H127827   3.292   4.492   7.171
 2064TIP3    H227828   3.433   4.483   7.224
 2065TIP3   OH227829   2.090   4.376   6.321
 2065TIP3    H127830   2.144   4.440   6.272
 2065TIP3    H227831   2.064   4.314   6.251
 2066TIP3   OH227832   3.409   5.463   7.323
 2066TIP3    H127833   3.421   5.530   7.252
 2066TIP3    H227834   3.503   5.450   7.346
 2067TIP3   OH227835   2.188   3.871   7.246
 2067TIP3    H127836   2.186   3.852   7.149
 2067TIP3    H227837   2.149   3.789   7.282
 2068TIP3   OH227838   2.045   5.247   6.814
 2068TIP3    H127839   1.962   5.291   6.836
 2068TIP3    H227840   2.074   5.307   6.742
 2069TIP3   OH227841   1.994   5.564   7.970
 2069TIP3    H127842   2.071   5.551   8.032
 2069TIP3    H227843   1.964   5.471   7.967
 2070TIP3   OH227844   2.472   5.413   8.111
 2070TIP3    H127845   2.564   5.382   8.112
 2070TIP3    H227846   2.442   5.373   8.026
 2071TIP3   OH227847   3.095   5.299   8.003
 2071TIP3    H127848   3.074   5.213   8.045
 2071TIP3    H227849   3.187   5.308   8.038
 2072TIP3   OH227850   1.974   4.905   8.049
 2072TIP3    H127851   1.932   4.817   8.055
 2072TIP3    H227852   1.928   4.945   7.973
 2073TIP3   OH227853   2.641   4.911   7.953
 2073TIP3    H127854   2.621   4.971   7.878
 2073TIP3    H227855   2.640   4.820   7.912
 2074TIP3   OH227856   3.229   4.897   7.769
 2074TIP3    H127857   3.313   4.946   7.761
 2074TIP3    H227858   3.171   4.976   7.774
 2075TIP3   OH227859   2.129   4.598   8.004
 2075TIP3    H127860   2.201   4.543   8.036
 2075TIP3    H227861   2.136   4.675   8.064
 2076TIP3   OH227862   2.458   4.534   7.694
 2076TIP3    H127863   2.411   4.620   7.687
 2076TIP3    H227864   2.534   4.555   7.636
 2077TIP3   OH227865   3.015   4.816   8.077
 2077TIP3    H127866   3.054   4.770   8.000
 2077TIP3    H227867   2.990   4.742   8.136
 2078TIP3   OH227868   3.566   4.822   6.306
 2078TIP3    H127869   3.554   4.777   6.222
 2078TIP3    H227870   3.563   4.915   6.281
 2079TIP3   OH227871   2.589   4.311   7.806
 2079TIP3    H127872   2.588   4.242   7.736
 2079TIP3    H227873   2.561   4.389   7.755
 2080TIP3   OH227874   2.586   4.102   7.601
 2080TIP3    H127875   2.642   4.139   7.528
 2080TIP3    H227876   2.497   4.113   7.562
 2081TIP3   OH227877   2.701   4.676   7.589
 2081TIP3    H127878   2.785   4.721   7.572
 2081TIP3    H227879   2.640   4.747   7.561
 2082TIP3   OH227880   3.110   4.438   8.137
 2082TIP3    H127881   3.122   4.351   8.182
 2082TIP3    H227882   3.201   4.471   8.136
 2083TIP3   OH227883   3.307   4.747   7.973
 2083TIP3    H127884   3.266   4.790   7.896
 2083TIP3    H227885   3.397   4.727   7.938
 2084TIP3   OH227886   2.380   4.377   8.031
 2084TIP3    H127887   2.310   4.319   7.994
 2084TIP3    H227888   2.438   4.390   7.954
 2085TIP3   OH227889   2.666   3.848   7.614
 2085TIP3    H127890   2.636   3.940   7.626
 2085TIP3    H227891   2.586   3.808   7.578
 2086TIP3   OH227892   2.767   4.268   8.030
 2086TIP3    H127893   2.698   4.250   8.097
 2086TIP3    H227894   2.712   4.263   7.950
 2087TIP3   OH227895   3.030   4.226   7.926
 2087TIP3    H127896   2.937   4.214   7.950
 2087TIP3    H227897   3.071   4.164   7.990
 2088TIP3   OH227898   3.143   4.041   8.091
 2088TIP3    H127899   3.186   3.956   8.113
 2088TIP3    H227900   3.158   4.096   8.172
 2089TIP3   OH227901   2.173   4.192   8.020
 2089TIP3    H127902   2.165   4.108   7.970
 2089TIP3    H227903   2.164   4.158   8.114
 2090TIP3   OH227904   2.619   3.800   7.869
 2090TIP3    H127905   2.697   3.746   7.890
 2090TIP3    H227906   2.627   3.799   7.771
 2091TIP3   OH227907   2.634   3.902   8.162
 2091TIP3    H127908   2.622   3.866   8.072
 2091TIP3    H227909   2.628   3.997   8.143
 2092TIP3   OH227910   2.656   5.708   6.443
 2092TIP3    H127911   2.753   5.702   6.448
 2092TIP3    H227912   2.637   5.685   6.351
 2093TIP3   OH227913   1.852   5.628   6.886
 2093TIP3    H127914   1.803   5.553   6.844
 2093TIP3    H227915   1.899   5.580   6.957
 2094TIP3   OH227916   1.960   5.442   7.079
 2094TIP3    H127917   1.884   5.398   7.120
 2094TIP3    H227918   2.021   5.448   7.156
 2095TIP3   OH227919   3.688   5.502   7.310
 2095TIP3    H127920   3.719   5.521   7.400
 2095TIP3    H227921   3.722   5.576   7.259
 2096TIP3   OH227922   3.667   5.456   7.633
 2096TIP3    H127923   3.628   5.379   7.587
 2096TIP3    H227924   3.685   5.414   7.720
 2097TIP3   OH227925   3.558   5.041   8.138
 2097TIP3    H127926   3.468   5.053   8.175
 2097TIP3    H227927   3.597   5.129   8.160
 2098TIP3   OH227928   3.656   4.870   6.662
 2098TIP3    H127929   3.740   4.919   6.671
 2098TIP3    H227930   3.651   4.820   6.746
 2099TIP3   OH227931   3.683   4.714   6.887
 2099TIP3    H127932   3.604   4.655   6.882
 2099TIP3    H227933   3.701   4.711   6.982
 2100TIP3   OH227934   3.672   4.969   7.332
 2100TIP3    H127935   3.736   4.896   7.317
 2100TIP3    H227936   3.722   5.049   7.308
 2101TIP3   OH227937   3.516   5.243   7.568
 2101TIP3    H127938   3.440   5.279   7.617
 2101TIP3    H227939   3.472   5.212   7.485
 2102TIP3   OH227940   3.705   4.639   6.523
 2102TIP3    H127941   3.632   4.660   6.460
 2102TIP3    H227942   3.724   4.731   6.552
 2103TIP3   OH227943   3.506   4.533   6.947
 2103TIP3    H127944   3.452   4.459   6.912
 2103TIP3    H227945   3.469   4.543   7.037
 2104TIP3   OH227946   1.956   4.782   7.319
 2104TIP3    H127947   1.953   4.751   7.226
 2104TIP3    H227948   2.049   4.754   7.341
 2105TIP3   OH227949   3.582   4.739   7.897
 2105TIP3    H127950   3.635   4.658   7.879
 2105TIP3    H227951   3.641   4.811   7.866
 2106TIP3   OH227952   3.704   4.497   7.915
 2106TIP3    H127953   3.609   4.472   7.908
 2106TIP3    H227954   3.749   4.409   7.919
 2107TIP3   OH227955   3.471   4.046   6.278
 2107TIP3    H127956   3.524   4.111   6.229
 2107TIP3    H227957   3.389   4.094   6.296
 2108TIP3   OH227958   3.400   4.290   6.840
 2108TIP3    H127959   3.453   4.211   6.816
 2108TIP3    H227960   3.428   4.351   6.771
 2109TIP3   OH227961   3.520   4.344   7.290
 2109TIP3    H127962   3.617   4.354   7.304
 2109TIP3    H227963   3.490   4.352   7.381
 2110TIP3   OH227964   3.513   4.439   7.552
 2110TIP3    H127965   3.430   4.464   7.597
 2110TIP3    H227966   3.554   4.525   7.532
 2111TIP3   OH227967   1.960   4.291   7.909
 2111TIP3    H127968   2.043   4.267   7.956
 2111TIP3    H227969   1.904   4.214   7.934
 2112TIP3   OH227970   3.719   3.873   8.084
 2112TIP3    H127971   3.767   3.803   8.036
 2112TIP3    H227972   3.717   3.944   8.016
 2113TIP3   OH227973   3.512   4.025   6.768
 2113TIP3    H127974   3.538   3.995   6.858
 2113TIP3    H227975   3.436   3.966   6.747
 2114TIP3   OH227976   2.061   4.112   7.279
 2114TIP3    H127977   2.105   4.026   7.263
 2114TIP3    H227978   2.135   4.176   7.270
 2115TIP3   OH227979   1.897   4.413   7.325
 2115TIP3    H127980   1.957   4.368   7.263
 2115TIP3    H227981   1.947   4.494   7.340
 2116TIP3   OH227982   3.665   4.083   7.936
 2116TIP3    H127983   3.591   4.092   7.999
 2116TIP3    H227984   3.617   4.052   7.857
 2117TIP3   OH227985   1.924   4.062   6.747
 2117TIP3    H127986   1.840   4.022   6.724
 2117TIP3    H227987   1.955   4.096   6.661
 2118TIP3   OH227988   3.402   5.532   6.945
 2118TIP3    H127989   3.453   5.505   6.865
 2118TIP3    H227990   3.462   5.590   6.994
 2119TIP3   OH227991   1.904   3.904   7.567
 2119TIP3    H127992   1.829   3.872   7.621
 2119TIP3    H227993   1.865   3.969   7.508
 2120TIP3   OH227994   2.126   5.218   7.958
 2120TIP3    H127995   2.033   5.241   7.940
 2120TIP3    H227996   2.127   5.194   8.051
 2121TIP3   OH227997   2.422   5.362   7.624
 2121TIP3    H127998   2.425   5.454   7.592
 2121TIP3    H227999   2.518   5.341   7.620
 2122TIP3   OH228000   2.832   5.478   7.884
 2122TIP3    H128001   2.846   5.462   7.980
 2122TIP3    H228002   2.919   5.515   7.859
 2123TIP3   OH228003   3.056   5.638   7.842
 2123TIP3    H128004   3.138   5.595   7.816
 2123TIP3    H228005   3.082   5.685   7.925
 2124TIP3   OH228006   3.579   3.829   7.737
 2124TIP3    H128007   3.497   3.866   7.700
 2124TIP3    H228008   3.586   3.742   7.694
 2125TIP3   OH228009   2.165   5.670   7.597
 2125TIP3    H128010   2.083   5.720   7.574
 2125TIP3    H228011   2.167   5.685   7.693
 2126TIP3   OH228012   2.401   5.609   7.488
 2126TIP3    H128013   2.309   5.634   7.514
 2126TIP3    H228014   2.427   5.687   7.434
 2127TIP3   OH228015   2.871   5.568   7.422
 2127TIP3    H128016   2.888   5.623   7.344
 2127TIP3    H228017   2.888   5.634   7.494
 2128TIP3   OH228018   3.075   5.443   7.568
 2128TIP3    H128019   3.012   5.479   7.502
 2128TIP3    H228020   3.149   5.505   7.551
 2129TIP3   OH228021   3.329   5.614   7.533
 2129TIP3    H128022   3.331   5.706   7.501
 2129TIP3    H228023   3.350   5.569   7.447
 2130TIP3   OH228024   2.115   5.506   7.302
 2130TIP3    H128025   2.088   5.446   7.375
 2130TIP3    H228026   2.204   5.470   7.279
 2131TIP3   OH228027   2.328   5.398   7.170
 2131TIP3    H128028   2.313   5.308   7.203
 2131TIP3    H228029   2.419   5.413   7.206
 2132TIP3   OH228030   2.563   5.408   7.299
 2132TIP3    H128031   2.612   5.325   7.290
 2132TIP3    H228032   2.576   5.428   7.394
 2133TIP3   OH228033   2.896   3.983   7.185
 2133TIP3    H128034   2.811   3.962   7.227
 2133TIP3    H228035   2.910   3.907   7.127
 2134TIP3   OH228036   3.445   3.773   7.138
 2134TIP3    H128037   3.512   3.839   7.106
 2134TIP3    H228038   3.362   3.821   7.113
 2135TIP3   OH228039   3.597   3.943   7.007
 2135TIP3    H128040   3.666   3.884   6.968
 2135TIP3    H228041   3.654   4.021   7.030
 2136TIP3   OH228042   2.153   3.848   6.963
 2136TIP3    H128043   2.067   3.823   6.923
 2136TIP3    H228044   2.202   3.763   6.951
 2137TIP3   OH228045   2.603   3.812   6.956
 2137TIP3    H128046   2.675   3.848   6.905
 2137TIP3    H228047   2.620   3.849   7.045
 2138TIP3   OH228048   3.188   3.847   7.084
 2138TIP3    H128049   3.154   3.868   6.997
 2138TIP3    H228050   3.125   3.778   7.114
 2139TIP3   OH228051   3.274   3.868   6.654
 2139TIP3    H128052   3.207   3.914   6.603
 2139TIP3    H228053   3.224   3.789   6.683
 2140TIP3   OH228054   2.066   5.448   6.627
 2140TIP3    H128055   2.045   5.424   6.535
 2140TIP3    H228056   2.053   5.546   6.618
 2141TIP3   OH228057   2.178   3.973   6.380
 2141TIP3    H128058   2.269   3.962   6.349
 2141TIP3    H228059   2.189   4.052   6.434
 2142TIP3   OH228060   2.702   4.060   6.622
 2142TIP3    H128061   2.757   3.995   6.670
 2142TIP3    H228062   2.745   4.143   6.650
 2143TIP3   OH228063   2.942   5.592   6.452
 2143TIP3    H128064   3.014   5.652   6.427
 2143TIP3    H228065   2.920   5.554   6.366
 2144TIP3   OH228066   3.551   5.444   6.739
 2144TIP3    H128067   3.551   5.366   6.680
 2144TIP3    H228068   3.529   5.514   6.674
 2145TIP3   OH228069   2.131   3.924   7.878
 2145TIP3    H128070   2.077   3.843   7.891
 2145TIP3    H228071   2.206   3.904   7.938
 2146TIP3   OH228072   2.325   3.857   8.068
 2146TIP3    H128073   2.408   3.814   8.042
 2146TIP3    H228074   2.282   3.787   8.120
 2147TIP3   OH228075   3.181   3.771   8.117
 2147TIP3    H128076   3.196   3.732   8.206
 2147TIP3    H228077   3.268   3.756   8.074
 2148TIP3   OH228078   3.513   5.390   7.929
 2148TIP3    H128079   3.443   5.377   7.862
 2148TIP3    H228080   3.479   5.470   7.973
 2149TIP3   OH228081   4.985   4.783   6.926
 2149TIP3    H128082   5.006   4.871   6.964
 2149TIP3    H228083   4.895   4.800   6.896
 2150TIP3   OH228084   4.877   4.647   7.251
 2150TIP3    H128085   4.880   4.617   7.344
 2150TIP3    H228086   4.791   4.615   7.219
 2151TIP3   OH228087   4.081   4.669   7.407
 2151TIP3    H128088   4.061   4.587   7.457
 2151TIP3    H228089   4.151   4.705   7.465
 2152TIP3   OH228090   5.172   4.980   7.158
 2152TIP3    H128091   5.176   4.906   7.221
 2152TIP3    H228092   5.196   5.056   7.216
 2153TIP3   OH228093   4.161   5.148   7.225
 2153TIP3    H128094   4.088   5.085   7.231
 2153TIP3    H228095   4.217   5.114   7.297
 2154TIP3   OH228096   3.855   4.451   6.817
 2154TIP3    H128097   3.811   4.537   6.824
 2154TIP3    H228098   3.776   4.395   6.812
 2155TIP3   OH228099   3.942   4.699   7.073
 2155TIP3    H128100   3.947   4.601   7.084
 2155TIP3    H228101   3.940   4.709   6.976
 2156TIP3   OH228102   4.910   5.514   7.088
 2156TIP3    H128103   4.986   5.471   7.042
 2156TIP3    H228104   4.908   5.457   7.167
 2157TIP3   OH228105   4.661   4.970   7.357
 2157TIP3    H128106   4.673   4.955   7.263
 2157TIP3    H228107   4.754   4.968   7.389
 2158TIP3   OH228108   5.520   4.117   7.321
 2158TIP3    H128109   5.545   4.155   7.407
 2158TIP3    H228110   5.608   4.101   7.283
 2159TIP3   OH228111   5.055   4.392   7.378
 2159TIP3    H128112   5.079   4.306   7.415
 2159TIP3    H228113   5.058   4.371   7.283
 2160TIP3   OH228114   4.323   4.154   7.048
 2160TIP3    H128115   4.320   4.244   7.008
 2160TIP3    H228116   4.276   4.104   6.978
 2161TIP3   OH228117   5.078   4.178   6.925
 2161TIP3    H128118   5.121   4.157   7.010
 2161TIP3    H228119   5.119   4.265   6.910
 2162TIP3   OH228120   3.958   4.428   7.134
 2162TIP3    H128121   4.021   4.373   7.184
 2162TIP3    H228122   3.986   4.401   7.043
 2163TIP3   OH228123   4.470   4.564   7.091
 2163TIP3    H128124   4.559   4.522   7.096
 2163TIP3    H228125   4.415   4.488   7.062
 2164TIP3   OH228126   5.558   4.229   7.598
 2164TIP3    H128127   5.518   4.318   7.589
 2164TIP3    H228128   5.595   4.238   7.687
 2165TIP3   OH228129   4.227   4.095   7.481
 2165TIP3    H128130   4.177   4.134   7.405
 2165TIP3    H228131   4.167   4.114   7.555
 2166TIP3   OH228132   4.902   5.051   6.834
 2166TIP3    H128133   4.882   5.055   6.739
 2166TIP3    H228134   4.891   5.146   6.857
 2167TIP3   OH228135   4.433   4.853   7.477
 2167TIP3    H128136   4.369   4.925   7.496
 2167TIP3    H228137   4.511   4.906   7.450
 2168TIP3   OH228138   5.257   4.146   7.140
 2168TIP3    H128139   5.274   4.070   7.197
 2168TIP3    H228140   5.346   4.186   7.140
 2169TIP3   OH228141   4.168   4.267   7.271
 2169TIP3    H128142   4.225   4.337   7.309
 2169TIP3    H228143   4.226   4.229   7.201
 2170TIP3   OH228144   4.281   5.075   7.551
 2170TIP3    H128145   4.267   5.171   7.543
 2170TIP3    H228146   4.214   5.052   7.621
 2171TIP3   OH228147   3.913   5.000   6.661
 2171TIP3    H128148   3.935   5.056   6.584
 2171TIP3    H228149   3.901   5.072   6.726
 2172TIP3   OH228150   5.230   5.179   7.319
 2172TIP3    H128151   5.139   5.216   7.326
 2172TIP3    H228152   5.276   5.264   7.299
 2173TIP3   OH228153   5.269   4.084   7.486
 2173TIP3    H128154   5.183   4.095   7.440
 2173TIP3    H228155   5.330   4.121   7.419
 2174TIP3   OH228156   4.557   3.817   7.237
 2174TIP3    H128157   4.524   3.727   7.224
 2174TIP3    H228158   4.470   3.862   7.258
 2175TIP3   OH228159   5.113   5.365   6.996
 2175TIP3    H128160   5.123   5.294   6.929
 2175TIP3    H228161   5.192   5.421   6.976
 2176TIP3   OH228162   5.205   5.163   6.828
 2176TIP3    H128163   5.201   5.080   6.776
 2176TIP3    H228164   5.190   5.125   6.917
 2177TIP3   OH228165   5.350   5.019   7.720
 2177TIP3    H128166   5.376   4.953   7.651
 2177TIP3    H228167   5.360   5.102   7.668
 2178TIP3   OH228168   5.562   4.680   7.520
 2178TIP3    H128169   5.490   4.746   7.503
 2178TIP3    H228170   5.621   4.701   7.445
 2179TIP3   OH228171   5.167   4.628   6.727
 2179TIP3    H128172   5.109   4.679   6.787
 2179TIP3    H228173   5.237   4.599   6.788
 2180TIP3   OH228174   5.164   4.587   7.689
 2180TIP3    H128175   5.136   4.671   7.727
 2180TIP3    H228176   5.096   4.576   7.621
 2181TIP3   OH228177   4.365   4.761   6.945
 2181TIP3    H128178   4.311   4.715   6.877
 2181TIP3    H228179   4.415   4.685   6.983
 2182TIP3   OH228180   4.465   5.107   7.242
 2182TIP3    H128181   4.516   5.155   7.175
 2182TIP3    H228182   4.536   5.062   7.293
 2183TIP3   OH228183   4.354   4.644   7.323
 2183TIP3    H128184   4.394   4.643   7.233
 2183TIP3    H228185   4.399   4.720   7.366
 2184TIP3   OH228186   4.984   5.229   7.401
 2184TIP3    H128187   4.981   5.284   7.481
 2184TIP3    H228188   4.980   5.140   7.438
 2185TIP3   OH228189   4.447   5.097   7.768
 2185TIP3    H128190   4.373   5.145   7.810
 2185TIP3    H228191   4.411   5.084   7.677
 2186TIP3   OH228192   4.146   4.731   7.671
 2186TIP3    H128193   4.167   4.790   7.745
 2186TIP3    H228194   4.072   4.684   7.714
 2187TIP3   OH228195   4.836   5.323   6.883
 2187TIP3    H128196   4.848   5.336   6.979
 2187TIP3    H228197   4.783   5.400   6.861
 2188TIP3   OH228198   4.276   5.272   7.892
 2188TIP3    H128199   4.268   5.322   7.809
 2188TIP3    H228200   4.183   5.243   7.904
 2189TIP3   OH228201   4.210   4.657   6.738
 2189TIP3    H128202   4.201   4.741   6.687
 2189TIP3    H228203   4.164   4.595   6.680
 2190TIP3   OH228204   3.865   4.916   7.640
 2190TIP3    H128205   3.835   4.895   7.549
 2190TIP3    H228206   3.876   4.825   7.675
 2191TIP3   OH228207   3.844   5.205   7.276
 2191TIP3    H128208   3.931   5.201   7.318
 2191TIP3    H228209   3.814   5.287   7.317
 2192TIP3   OH228210   5.621   5.270   7.887
 2192TIP3    H128211   5.600   5.174   7.886
 2192TIP3    H228212   5.534   5.304   7.921
 2193TIP3   OH228213   4.707   5.209   7.784
 2193TIP3    H128214   4.724   5.284   7.844
 2193TIP3    H228215   4.613   5.187   7.799
 2194TIP3   OH228216   4.801   5.623   6.683
 2194TIP3    H128217   4.729   5.637   6.620
 2194TIP3    H228218   4.787   5.696   6.747
 2195TIP3   OH228219   4.128   5.464   6.905
 2195TIP3    H128220   4.163   5.470   6.997
 2195TIP3    H228221   4.035   5.447   6.923
 2196TIP3   OH228222   5.052   5.527   6.724
 2196TIP3    H128223   4.963   5.559   6.697
 2196TIP3    H228224   5.031   5.440   6.760
 2197TIP3   OH228225   5.287   4.458   7.899
 2197TIP3    H128226   5.275   4.533   7.838
 2197TIP3    H228227   5.223   4.398   7.856
 2198TIP3   OH228228   4.076   5.063   7.728
 2198TIP3    H128229   4.080   5.017   7.814
 2198TIP3    H228230   3.994   5.027   7.688
 2199TIP3   OH228231   4.325   3.920   7.303
 2199TIP3    H128232   4.233   3.930   7.271
 2199TIP3    H228233   4.320   3.975   7.385
 2200TIP3   OH228234   4.831   3.873   7.619
 2200TIP3    H128235   4.871   3.834   7.700
 2200TIP3    H228236   4.736   3.874   7.642
 2201TIP3   OH228237   5.101   4.281   7.774
 2201TIP3    H128238   5.029   4.238   7.829
 2201TIP3    H228239   5.049   4.352   7.732
 2202TIP3   OH228240   4.760   4.177   6.404
 2202TIP3    H128241   4.723   4.131   6.482
 2202TIP3    H228242   4.733   4.117   6.332
 2203TIP3   OH228243   4.360   4.395   7.420
 2203TIP3    H128244   4.280   4.399   7.476
 2203TIP3    H228245   4.359   4.485   7.380
 2204TIP3   OH228246   4.324   4.391   6.935
 2204TIP3    H128247   4.228   4.398   6.918
 2204TIP3    H228248   4.360   4.374   6.847
 2205TIP3   OH228249   4.879   4.490   6.827
 2205TIP3    H128250   4.849   4.567   6.779
 2205TIP3    H228251   4.951   4.457   6.771
 2206TIP3   OH228252   4.772   4.510   7.954
 2206TIP3    H128253   4.733   4.423   7.975
 2206TIP3    H228254   4.855   4.504   8.007
 2207TIP3   OH228255   5.024   4.430   7.082
 2207TIP3    H128256   4.993   4.520   7.063
 2207TIP3    H228257   4.974   4.384   7.014
 2208TIP3   OH228258   4.098   4.414   7.540
 2208TIP3    H128259   4.138   4.456   7.618
 2208TIP3    H228260   4.060   4.332   7.579
 2209TIP3   OH228261   4.356   4.251   6.291
 2209TIP3    H128262   4.359   4.177   6.354
 2209TIP3    H228263   4.398   4.212   6.212
 2210TIP3   OH228264   3.785   4.139   7.025
 2210TIP3    H128265   3.861   4.125   7.084
 2210TIP3    H228266   3.821   4.124   6.935
 2211TIP3   OH228267   3.822   4.229   6.538
 2211TIP3    H128268   3.897   4.213   6.479
 2211TIP3    H228269   3.803   4.323   6.527
 2212TIP3   OH228270   4.908   4.577   7.516
 2212TIP3    H128271   4.964   4.509   7.472
 2212TIP3    H228272   4.851   4.524   7.577
 2213TIP3   OH228273   4.602   4.187   7.022
 2213TIP3    H128274   4.511   4.170   7.053
 2213TIP3    H228275   4.656   4.128   7.078
 2214TIP3   OH228276   4.063   4.309   6.919
 2214TIP3    H128277   3.997   4.341   6.853
 2214TIP3    H228278   4.088   4.220   6.885
 2215TIP3   OH228279   4.419   4.331   6.653
 2215TIP3    H128280   4.510   4.327   6.689
 2215TIP3    H228281   4.418   4.418   6.609
 2216TIP3   OH228282   5.029   4.099   7.352
 2216TIP3    H128283   4.948   4.064   7.394
 2216TIP3    H228284   5.022   4.059   7.264
 2217TIP3   OH228285   5.311   5.650   8.012
 2217TIP3    H128286   5.330   5.684   7.922
 2217TIP3    H228287   5.395   5.663   8.058
 2218TIP3   OH228288   4.120   4.884   7.936
 2218TIP3    H128289   4.176   4.908   8.013
 2218TIP3    H228290   4.031   4.886   7.978
 2219TIP3   OH228291   4.695   4.445   7.167
 2219TIP3    H128292   4.782   4.403   7.176
 2219TIP3    H228293   4.654   4.426   7.252
 2220TIP3   OH228294   4.165   4.055   6.846
 2220TIP3    H128295   4.101   3.995   6.890
 2220TIP3    H228296   4.178   4.008   6.762
 2221TIP3   OH228297   4.596   4.264   7.450
 2221TIP3    H128298   4.516   4.320   7.443
 2221TIP3    H228299   4.654   4.321   7.501
 2222TIP3   OH228300   5.386   4.875   7.505
 2222TIP3    H128301   5.423   4.923   7.427
 2222TIP3    H228302   5.298   4.853   7.471
 2223TIP3   OH228303   4.755   4.940   7.748
 2223TIP3    H128304   4.719   4.917   7.834
 2223TIP3    H228305   4.737   5.037   7.748
 2224TIP3   OH228306   5.047   4.360   6.619
 2224TIP3    H128307   5.133   4.351   6.664
 2224TIP3    H228308   5.056   4.445   6.576
 2225TIP3   OH228309   4.139   4.842   7.196
 2225TIP3    H128310   4.057   4.802   7.161
 2225TIP3    H228311   4.165   4.768   7.255
 2226TIP3   OH228312   4.830   5.034   6.551
 2226TIP3    H128313   4.775   5.105   6.515
 2226TIP3    H228314   4.767   4.959   6.551
 2227TIP3   OH228315   3.850   4.664   7.731
 2227TIP3    H128316   3.833   4.601   7.805
 2227TIP3    H228317   3.790   4.628   7.662
 2228TIP3   OH228318   4.521   4.650   7.899
 2228TIP3    H128319   4.496   4.564   7.864
 2228TIP3    H228320   4.619   4.643   7.897
 2229TIP3   OH228321   5.042   5.178   7.759
 2229TIP3    H128322   4.966   5.205   7.706
 2229TIP3    H228323   5.019   5.231   7.839
 2230TIP3   OH228324   5.525   4.414   6.613
 2230TIP3    H128325   5.549   4.340   6.555
 2230TIP3    H228326   5.574   4.488   6.576
 2231TIP3   OH228327   5.591   4.994   7.838
 2231TIP3    H128328   5.509   5.018   7.790
 2231TIP3    H228329   5.649   4.970   7.762
 2232TIP3   OH228330   5.387   5.219   6.631
 2232TIP3    H128331   5.322   5.205   6.703
 2232TIP3    H228332   5.339   5.184   6.554
 2233TIP3   OH228333   5.137   4.755   7.324
 2233TIP3    H128334   5.045   4.727   7.305
 2233TIP3    H228335   5.187   4.697   7.262
 2234TIP3   OH228336   4.385   5.237   6.877
 2234TIP3    H128337   4.447   5.304   6.844
 2234TIP3    H228338   4.303   5.276   6.843
 2235TIP3   OH228339   4.564   4.998   6.973
 2235TIP3    H128340   4.560   5.052   6.893
 2235TIP3    H228341   4.559   4.907   6.937
 2236TIP3   OH228342   4.569   5.399   7.586
 2236TIP3    H128343   4.641   5.455   7.551
 2236TIP3    H228344   4.616   5.353   7.657
 2237TIP3   OH228345   4.379   5.514   6.808
 2237TIP3    H128346   4.289   5.511   6.849
 2237TIP3    H228347   4.414   5.596   6.848
 2238TIP3   OH228348   4.890   4.971   7.496
 2238TIP3    H128349   4.851   4.948   7.584
 2238TIP3    H228350   4.963   4.907   7.489
 2239TIP3   OH228351   5.144   5.114   6.455
 2239TIP3    H128352   5.175   5.048   6.520
 2239TIP3    H228353   5.055   5.081   6.437
 2240TIP3   OH228354   5.228   5.485   7.749
 2240TIP3    H128355   5.155   5.455   7.691
 2240TIP3    H228356   5.285   5.535   7.686
 2241TIP3   OH228357   4.055   4.177   7.692
 2241TIP3    H128358   3.984   4.212   7.751
 2241TIP3    H228359   4.048   4.083   7.714
 2242TIP3   OH228360   5.229   4.935   6.645
 2242TIP3    H128361   5.214   4.839   6.655
 2242TIP3    H228362   5.328   4.938   6.643
 2243TIP3   OH228363   3.974   5.340   7.496
 2243TIP3    H128364   4.048   5.286   7.530
 2243TIP3    H228365   3.943   5.387   7.574
 2244TIP3   OH228366   4.474   5.145   6.504
 2244TIP3    H128367   4.397   5.127   6.558
 2244TIP3    H228368   4.496   5.238   6.527
 2245TIP3   OH228369   4.157   4.903   6.559
 2245TIP3    H128370   4.066   4.914   6.592
 2245TIP3    H228371   4.154   4.960   6.480
 2246TIP3   OH228372   4.891   4.154   7.615
 2246TIP3    H128373   4.987   4.151   7.619
 2246TIP3    H228374   4.867   4.062   7.637
 2247TIP3   OH228375   4.966   4.082   6.699
 2247TIP3    H128376   4.974   4.176   6.677
 2247TIP3    H228377   5.013   4.082   6.785
 2248TIP3   OH228378   4.677   4.287   6.785
 2248TIP3    H128379   4.741   4.352   6.821
 2248TIP3    H228380   4.638   4.252   6.869
 2249TIP3   OH228381   4.785   4.398   7.681
 2249TIP3    H128382   4.785   4.418   7.777
 2249TIP3    H228383   4.813   4.304   7.675
 2250TIP3   OH228384   4.755   3.944   6.842
 2250TIP3    H128385   4.729   3.996   6.920
 2250TIP3    H228386   4.822   4.004   6.803
 2251TIP3   OH228387   4.483   5.409   6.583
 2251TIP3    H128388   4.497   5.491   6.532
 2251TIP3    H228389   4.438   5.446   6.661
 2252TIP3   OH228390   4.332   4.086   6.520
 2252TIP3    H128391   4.311   4.165   6.573
 2252TIP3    H228392   4.418   4.061   6.560
 2253TIP3   OH228393   5.351   4.136   7.765
 2253TIP3    H128394   5.256   4.158   7.763
 2253TIP3    H228395   5.375   4.140   7.670
 2254TIP3   OH228396   5.270   4.565   7.137
 2254TIP3    H128397   5.189   4.511   7.144
 2254TIP3    H228398   5.326   4.519   7.205
 2255TIP3   OH228399   5.323   5.424   7.308
 2255TIP3    H128400   5.336   5.489   7.237
 2255TIP3    H228401   5.369   5.471   7.380
 2256TIP3   OH228402   4.062   3.872   7.254
 2256TIP3    H128403   4.063   3.860   7.157
 2256TIP3    H228404   4.041   3.781   7.284
 2257TIP3   OH228405   3.950   5.233   6.784
 2257TIP3    H128406   3.877   5.286   6.820
 2257TIP3    H228407   3.999   5.299   6.733
 2258TIP3   OH228408   3.868   5.565   7.974
 2258TIP3    H128409   3.938   5.555   8.043
 2258TIP3    H228410   3.833   5.475   7.974
 2259TIP3   OH228411   4.371   5.384   8.152
 2259TIP3    H128412   4.465   5.361   8.154
 2259TIP3    H228413   4.339   5.332   8.076
 2260TIP3   OH228414   4.975   5.293   7.996
 2260TIP3    H128415   4.954   5.202   8.025
 2260TIP3    H228416   5.064   5.302   8.035
 2261TIP3   OH228417   3.868   4.904   8.048
 2261TIP3    H128418   3.820   4.819   8.052
 2261TIP3    H228419   3.822   4.948   7.972
 2262TIP3   OH228420   4.343   4.936   6.246
 2262TIP3    H128421   4.337   4.944   6.342
 2262TIP3    H228422   4.425   4.984   6.230
 2263TIP3   OH228423   4.529   4.911   7.955
 2263TIP3    H128424   4.502   4.971   7.882
 2263TIP3    H228425   4.517   4.821   7.917
 2264TIP3   OH228426   4.818   4.997   6.250
 2264TIP3    H128427   4.805   5.088   6.281
 2264TIP3    H228428   4.780   4.943   6.322
 2265TIP3   OH228429   5.107   4.897   7.749
 2265TIP3    H128430   5.184   4.957   7.736
 2265TIP3    H228431   5.042   4.967   7.768
 2266TIP3   OH228432   4.015   4.605   7.999
 2266TIP3    H128433   4.094   4.558   8.028
 2266TIP3    H228434   4.017   4.681   8.060
 2267TIP3   OH228435   4.332   4.530   7.681
 2267TIP3    H128436   4.280   4.613   7.682
 2267TIP3    H228437   4.410   4.560   7.631
 2268TIP3   OH228438   4.894   4.808   8.073
 2268TIP3    H128439   4.934   4.755   8.002
 2268TIP3    H228440   4.862   4.740   8.135
 2269TIP3   OH228441   4.471   4.305   7.801
 2269TIP3    H128442   4.464   4.234   7.733
 2269TIP3    H228443   4.451   4.385   7.748
 2270TIP3   OH228444   4.464   4.101   7.602
 2270TIP3    H128445   4.523   4.142   7.536
 2270TIP3    H228446   4.377   4.114   7.559
 2271TIP3   OH228447   4.578   4.666   7.587
 2271TIP3    H128448   4.659   4.717   7.572
 2271TIP3    H228449   4.511   4.733   7.560
 2272TIP3   OH228450   4.980   4.456   8.126
 2272TIP3    H128451   4.994   4.373   8.178
 2272TIP3    H228452   5.060   4.459   8.071
 2273TIP3   OH228453   5.180   4.747   7.969
 2273TIP3    H128454   5.137   4.801   7.900
 2273TIP3    H228455   5.269   4.740   7.932
 2274TIP3   OH228456   4.285   4.365   8.015
 2274TIP3    H128457   4.202   4.314   7.995
 2274TIP3    H228458   4.338   4.350   7.934
 2275TIP3   OH228459   4.549   3.849   7.606
 2275TIP3    H128460   4.525   3.944   7.613
 2275TIP3    H228461   4.465   3.811   7.578
 2276TIP3   OH228462   4.655   4.261   8.030
 2276TIP3    H128463   4.584   4.248   8.097
 2276TIP3    H228464   4.602   4.255   7.948
 2277TIP3   OH228465   4.901   4.217   7.931
 2277TIP3    H128466   4.808   4.219   7.962
 2277TIP3    H228467   4.937   4.155   7.998
 2278TIP3   OH228468   5.006   4.025   8.091
 2278TIP3    H128469   5.024   3.931   8.113
 2278TIP3    H228470   5.034   4.077   8.170
 2279TIP3   OH228471   4.070   4.195   8.022
 2279TIP3    H128472   4.067   4.115   7.967
 2279TIP3    H228473   4.054   4.157   8.113
 2280TIP3   OH228474   4.501   3.813   7.865
 2280TIP3    H128475   4.584   3.767   7.886
 2280TIP3    H228476   4.509   3.812   7.767
 2281TIP3   OH228477   4.522   3.907   8.159
 2281TIP3    H128478   4.504   3.871   8.071
 2281TIP3    H228479   4.519   4.003   8.139
 2282TIP3   OH228480   4.520   5.670   6.485
 2282TIP3    H128481   4.561   5.671   6.398
 2282TIP3    H228482   4.435   5.712   6.467
 2283TIP3   OH228483   3.725   5.620   6.860
 2283TIP3    H128484   3.673   5.543   6.828
 2283TIP3    H228485   3.786   5.579   6.924
 2284TIP3   OH228486   3.853   5.442   7.063
 2284TIP3    H128487   3.805   5.368   7.105
 2284TIP3    H228488   3.903   5.480   7.139
 2285TIP3   OH228489   5.633   5.514   7.316
 2285TIP3    H128490   5.568   5.521   7.389
 2285TIP3    H228491   5.692   5.588   7.338
 2286TIP3   OH228492   5.666   5.397   7.653
 2286TIP3    H128493   5.575   5.388   7.618
 2286TIP3    H228494   5.656   5.366   7.745
 2287TIP3   OH228495   5.416   5.049   8.137
 2287TIP3    H128496   5.336   5.054   8.194
 2287TIP3    H228497   5.450   5.141   8.146
 2288TIP3   OH228498   5.486   4.865   6.660
 2288TIP3    H128499   5.570   4.884   6.615
 2288TIP3    H228500   5.513   4.810   6.737
 2289TIP3   OH228501   5.579   4.704   6.865
 2289TIP3    H128502   5.498   4.656   6.890
 2289TIP3    H228503   5.629   4.707   6.948
 2290TIP3   OH228504   5.515   4.963   7.296
 2290TIP3    H128505   5.583   4.893   7.291
 2290TIP3    H228506   5.567   5.043   7.276
 2291TIP3   OH228507   5.400   5.253   7.574
 2291TIP3    H128508   5.366   5.343   7.586
 2291TIP3    H228509   5.354   5.224   7.493
 2292TIP3   OH228510   5.369   4.526   6.890
 2292TIP3    H128511   5.336   4.435   6.878
 2292TIP3    H228512   5.340   4.543   6.984
 2293TIP3   OH228513   3.859   4.772   7.324
 2293TIP3    H128514   3.866   4.743   7.230
 2293TIP3    H228515   3.947   4.741   7.355
 2294TIP3   OH228516   5.459   4.750   7.879
 2294TIP3    H128517   5.554   4.735   7.860
 2294TIP3    H228518   5.458   4.847   7.864
 2295TIP3   OH228519   5.570   4.520   8.000
 2295TIP3    H128520   5.509   4.562   7.937
 2295TIP3    H228521   5.654   4.508   7.954
 2296TIP3   OH228522   5.290   4.307   6.759
 2296TIP3    H128523   5.325   4.217   6.776
 2296TIP3    H228524   5.372   4.346   6.722
 2297TIP3   OH228525   5.399   4.380   7.289
 2297TIP3    H128526   5.494   4.404   7.309
 2297TIP3    H228527   5.376   4.331   7.368
 2298TIP3   OH228528   5.421   4.459   7.624
 2298TIP3    H128529   5.324   4.471   7.627
 2298TIP3    H228530   5.450   4.550   7.600
 2299TIP3   OH228531   3.847   4.275   7.915
 2299TIP3    H128532   3.924   4.251   7.972
 2299TIP3    H228533   3.785   4.202   7.935
 2300TIP3   OH228534   5.632   3.846   8.095
 2300TIP3    H128535   5.675   3.769   8.052
 2300TIP3    H228536   5.633   3.909   8.019
 2301TIP3   OH228537   5.409   4.075   6.758
 2301TIP3    H128538   5.427   4.038   6.847
 2301TIP3    H228539   5.339   4.017   6.727
 2302TIP3   OH228540   3.928   4.103   7.283
 2302TIP3    H128541   3.977   4.018   7.282
 2302TIP3    H228542   4.001   4.168   7.277
 2303TIP3   OH228543   3.776   4.411   7.335
 2303TIP3    H128544   3.819   4.377   7.254
 2303TIP3    H228545   3.826   4.492   7.350
 2304TIP3   OH228546   5.538   4.022   7.921
 2304TIP3    H128547   5.453   4.001   7.964
 2304TIP3    H228548   5.509   4.011   7.828
 2305TIP3   OH228549   5.533   4.070   6.392
 2305TIP3    H128550   5.568   3.988   6.358
 2305TIP3    H228551   5.595   4.132   6.352
 2306TIP3   OH228552   3.809   4.074   6.766
 2306TIP3    H128553   3.712   4.071   6.767
 2306TIP3    H228554   3.822   4.111   6.676
 2307TIP3   OH228555   5.310   5.532   6.947
 2307TIP3    H128556   5.362   5.513   6.866
 2307TIP3    H228557   5.372   5.576   7.008
 2308TIP3   OH228558   3.803   3.893   7.566
 2308TIP3    H128559   3.734   3.863   7.629
 2308TIP3    H228560   3.764   3.969   7.522
 2309TIP3   OH228561   4.011   5.214   7.962
 2309TIP3    H128562   3.930   5.254   7.925
 2309TIP3    H228563   3.980   5.176   8.045
 2310TIP3   OH228564   4.306   5.364   7.629
 2310TIP3    H128565   4.293   5.452   7.590
 2310TIP3    H228566   4.405   5.358   7.625
 2311TIP3   OH228567   4.706   5.480   7.874
 2311TIP3    H128568   4.716   5.476   7.971
 2311TIP3    H228569   4.793   5.519   7.849
 2312TIP3   OH228570   4.925   5.644   7.840
 2312TIP3    H128571   5.012   5.604   7.820
 2312TIP3    H228572   4.945   5.691   7.923
 2313TIP3   OH228573   5.449   3.828   7.738
 2313TIP3    H128574   5.362   3.829   7.697
 2313TIP3    H228575   5.477   3.736   7.721
 2314TIP3   OH228576   4.031   5.683   7.588
 2314TIP3    H128577   3.951   5.730   7.554
 2314TIP3    H228578   4.029   5.712   7.680
 2315TIP3   OH228579   4.260   5.601   7.485
 2315TIP3    H128580   4.167   5.625   7.508
 2315TIP3    H228581   4.283   5.675   7.425
 2316TIP3   OH228582   4.752   5.576   7.421
 2316TIP3    H128583   4.693   5.619   7.358
 2316TIP3    H228584   4.767   5.648   7.486
 2317TIP3   OH228585   4.959   5.449   7.569
 2317TIP3    H128586   4.897   5.480   7.500
 2317TIP3    H228587   5.027   5.517   7.553
 2318TIP3   OH228588   5.130   5.693   7.497
 2318TIP3    H128589   5.138   5.790   7.486
 2318TIP3    H228590   5.221   5.667   7.473
 2319TIP3   OH228591   3.991   5.515   7.288
 2319TIP3    H128592   3.978   5.455   7.364
 2319TIP3    H228593   4.084   5.499   7.263
 2320TIP3   OH228594   4.228   5.461   7.153
 2320TIP3    H128595   4.213   5.365   7.161
 2320TIP3    H228596   4.306   5.471   7.212
 2321TIP3   OH228597   4.434   5.428   7.322
 2321TIP3    H128598   4.482   5.344   7.328
 2321TIP3    H228599   4.450   5.463   7.412
 2322TIP3   OH228600   4.744   3.977   7.114
 2322TIP3    H128601   4.672   3.963   7.179
 2322TIP3    H228602   4.773   3.886   7.100
 2323TIP3   OH228603   5.326   3.801   7.149
 2323TIP3    H128604   5.393   3.862   7.111
 2323TIP3    H228605   5.243   3.839   7.112
 2324TIP3   OH228606   5.483   3.945   6.986
 2324TIP3    H128607   5.548   3.886   6.939
 2324TIP3    H228608   5.547   4.015   7.015
 2325TIP3   OH228609   4.050   3.847   6.973
 2325TIP3    H128610   3.965   3.845   6.927
 2325TIP3    H228611   4.088   3.760   6.947
 2326TIP3   OH228612   4.488   3.812   6.941
 2326TIP3    H128613   4.566   3.814   6.885
 2326TIP3    H228614   4.527   3.826   7.028
 2327TIP3   OH228615   5.069   3.843   7.066
 2327TIP3    H128616   5.010   3.871   6.994
 2327TIP3    H228617   5.022   3.764   7.100
 2328TIP3   OH228618   4.059   4.060   6.395
 2328TIP3    H128619   4.094   3.985   6.346
 2328TIP3    H228620   4.141   4.091   6.436
 2329TIP3   OH228621   4.608   4.062   6.618
 2329TIP3    H128622   4.626   4.016   6.702
 2329TIP3    H228623   4.625   4.154   6.645
 2330TIP3   OH228624   5.442   5.470   6.723
 2330TIP3    H128625   5.422   5.387   6.673
 2330TIP3    H228626   5.430   5.539   6.655
 2331TIP3   OH228627   4.019   3.916   7.878
 2331TIP3    H128628   3.964   3.837   7.890
 2331TIP3    H228629   4.089   3.901   7.944
 2332TIP3   OH228630   4.210   3.860   8.071
 2332TIP3    H128631   4.287   3.809   8.040
 2332TIP3    H228632   4.160   3.791   8.119
 2333TIP3   OH228633   5.054   3.768   8.109
 2333TIP3    H128634   5.079   3.730   8.196
 2333TIP3    H228635   5.143   3.770   8.066
 2334TIP3   OH228636   5.386   5.385   7.943
 2334TIP3    H128637   5.326   5.392   7.866
 2334TIP3    H228638   5.376   5.475   7.977
 2335TIP3   OH228639   6.872   4.769   6.934
 2335TIP3    H128640   6.892   4.864   6.935
 2335TIP3    H228641   6.786   4.772   6.892
 2336TIP3   OH228642   6.738   4.697   7.225
 2336TIP3    H128643   6.738   4.679   7.321
 2336TIP3    H228644   6.670   4.636   7.191
 2337TIP3   OH228645   5.936   4.663   7.389
 2337TIP3    H128646   5.957   4.588   7.445
 2337TIP3    H228647   5.989   4.733   7.431
 2338TIP3   OH228648   7.109   4.988   7.146
 2338TIP3    H128649   7.092   4.900   7.183
 2338TIP3    H228650   7.095   5.044   7.225
 2339TIP3   OH228651   6.068   5.121   7.237
 2339TIP3    H128652   6.038   5.029   7.222
 2339TIP3    H228653   6.163   5.111   7.222
 2340TIP3   OH228654   5.729   4.445   6.792
 2340TIP3    H128655   5.707   4.536   6.817
 2340TIP3    H228656   5.640   4.415   6.766
 2341TIP3   OH228657   5.785   4.698   7.068
 2341TIP3    H128658   5.820   4.608   7.088
 2341TIP3    H228659   5.846   4.732   7.002
 2342TIP3   OH228660   6.791   5.505   7.119
 2342TIP3    H128661   6.863   5.447   7.084
 2342TIP3    H228662   6.768   5.452   7.198
 2343TIP3   OH228663   6.540   4.999   7.359
 2343TIP3    H128664   6.573   4.944   7.287
 2343TIP3    H228665   6.619   5.005   7.416
 2344TIP3   OH228666   6.894   4.394   7.402
 2344TIP3    H128667   6.907   4.298   7.417
 2344TIP3    H228668   6.902   4.393   7.305
 2345TIP3   OH228669   6.188   4.158   7.048
 2345TIP3    H128670   6.219   4.243   7.011
 2345TIP3    H228671   6.147   4.119   6.968
 2346TIP3   OH228672   5.862   4.447   7.126
 2346TIP3    H128673   5.914   4.402   7.194
 2346TIP3    H228674   5.891   4.401   7.045
 2347TIP3   OH228675   6.341   4.595   7.095
 2347TIP3    H128676   6.431   4.558   7.105
 2347TIP3    H228677   6.295   4.514   7.060
 2348TIP3   OH228678   6.102   4.105   7.489
 2348TIP3    H128679   6.063   4.144   7.408
 2348TIP3    H228680   6.028   4.116   7.553
 2349TIP3   OH228681   6.793   5.034   6.816
 2349TIP3    H128682   6.729   5.025   6.743
 2349TIP3    H228683   6.762   5.119   6.853
 2350TIP3   OH228684   6.302   4.874   7.452
 2350TIP3    H128685   6.235   4.941   7.479
 2350TIP3    H228686   6.372   4.934   7.418
 2351TIP3   OH228687   7.123   4.169   7.129
 2351TIP3    H128688   7.079   4.095   7.171
 2351TIP3    H228689   7.179   4.203   7.201
 2352TIP3   OH228690   6.052   4.278   7.257
 2352TIP3    H128691   6.116   4.349   7.273
 2352TIP3    H228692   6.093   4.236   7.177
 2353TIP3   OH228693   6.165   5.076   7.565
 2353TIP3    H128694   6.144   5.152   7.508
 2353TIP3    H228695   6.080   5.069   7.615
 2354TIP3   OH228696   7.135   5.178   7.362
 2354TIP3    H128697   7.042   5.172   7.396
 2354TIP3    H228698   7.137   5.270   7.331
 2355TIP3   OH228699   7.178   4.048   7.453
 2355TIP3    H128700   7.089   4.078   7.425
 2355TIP3    H228701   7.232   4.124   7.424
 2356TIP3   OH228702   6.447   3.830   7.209
 2356TIP3    H128703   6.426   3.736   7.223
 2356TIP3    H228704   6.363   3.871   7.245
 2357TIP3   OH228705   6.969   5.346   7.020
 2357TIP3    H128706   7.004   5.259   6.991
 2357TIP3    H228707   7.024   5.404   6.964
 2358TIP3   OH228708   7.104   5.138   6.922
 2358TIP3    H128709   7.073   5.085   6.848
 2358TIP3    H228710   7.115   5.070   6.994
 2359TIP3   OH228711   7.231   4.998   7.737
 2359TIP3    H128712   7.232   4.934   7.663
 2359TIP3    H228713   7.238   5.083   7.688
 2360TIP3   OH228714   6.716   4.727   6.644
 2360TIP3    H128715   6.654   4.803   6.639
 2360TIP3    H228716   6.782   4.754   6.576
 2361TIP3   OH228717   7.100   4.693   6.742
 2361TIP3    H128718   7.022   4.734   6.782
 2361TIP3    H228719   7.143   4.657   6.823
 2362TIP3   OH228720   7.019   4.542   7.695
 2362TIP3    H128721   7.048   4.633   7.713
 2362TIP3    H228722   6.949   4.560   7.631
 2363TIP3   OH228723   6.200   4.777   6.959
 2363TIP3    H128724   6.185   4.748   6.867
 2363TIP3    H228725   6.268   4.712   6.987
 2364TIP3   OH228726   6.341   5.116   7.203
 2364TIP3    H128727   6.356   5.088   7.111
 2364TIP3    H228728   6.418   5.081   7.250
 2365TIP3   OH228729   6.221   4.655   7.324
 2365TIP3    H128730   6.257   4.653   7.232
 2365TIP3    H228731   6.263   4.737   7.360
 2366TIP3   OH228732   6.875   5.222   7.412
 2366TIP3    H128733   6.865   5.296   7.475
 2366TIP3    H228734   6.826   5.151   7.458
 2367TIP3   OH228735   6.351   5.121   7.766
 2367TIP3    H128736   6.281   5.165   7.820
 2367TIP3    H228737   6.299   5.101   7.685
 2368TIP3   OH228738   6.039   4.713   7.675
 2368TIP3    H128739   6.059   4.806   7.692
 2368TIP3    H228740   5.964   4.703   7.737
 2369TIP3   OH228741   6.669   5.285   6.860
 2369TIP3    H128742   6.712   5.340   6.928
 2369TIP3    H228743   6.651   5.349   6.791
 2370TIP3   OH228744   6.161   5.266   7.887
 2370TIP3    H128745   6.145   5.313   7.803
 2370TIP3    H228746   6.068   5.248   7.913
 2371TIP3   OH228747   6.114   4.657   6.715
 2371TIP3    H128748   6.055   4.732   6.702
 2371TIP3    H228749   6.058   4.583   6.688
 2372TIP3   OH228750   5.732   4.941   7.622
 2372TIP3    H128751   5.707   4.955   7.530
 2372TIP3    H228752   5.770   4.851   7.619
 2373TIP3   OH228753   5.715   5.202   7.287
 2373TIP3    H128754   5.810   5.183   7.285
 2373TIP3    H228755   5.710   5.283   7.341
 2374TIP3   OH228756   6.605   5.213   7.770
 2374TIP3    H128757   6.619   5.286   7.832
 2374TIP3    H228758   6.511   5.188   7.782
 2375TIP3   OH228759   6.646   5.598   6.683
 2375TIP3    H128760   6.550   5.604   6.672
 2375TIP3    H228761   6.663   5.678   6.737
 2376TIP3   OH228762   6.005   5.476   6.926
 2376TIP3    H128763   6.052   5.454   7.011
 2376TIP3    H228764   5.914   5.462   6.956
 2377TIP3   OH228765   6.899   5.511   6.706
 2377TIP3    H128766   6.811   5.554   6.696
 2377TIP3    H228767   6.876   5.421   6.676
 2378TIP3   OH228768   7.173   4.423   7.933
 2378TIP3    H128769   7.145   4.406   7.842
 2378TIP3    H228770   7.268   4.399   7.927
 2379TIP3   OH228771   5.946   5.077   7.711
 2379TIP3    H128772   5.949   5.056   7.806
 2379TIP3    H228773   5.860   5.039   7.685
 2380TIP3   OH228774   6.222   3.923   7.313
 2380TIP3    H128775   6.147   3.929   7.251
 2380TIP3    H228776   6.187   3.971   7.390
 2381TIP3   OH228777   6.710   3.862   7.642
 2381TIP3    H128778   6.753   3.825   7.723
 2381TIP3    H228779   6.615   3.847   7.660
 2382TIP3   OH228780   7.001   4.248   7.712
 2382TIP3    H128781   6.949   4.233   7.794
 2382TIP3    H228782   6.974   4.339   7.690
 2383TIP3   OH228783   6.242   4.413   7.424
 2383TIP3    H128784   6.145   4.404   7.424
 2383TIP3    H228785   6.249   4.504   7.386
 2384TIP3   OH228786   6.239   4.396   6.944
 2384TIP3    H128787   6.145   4.402   6.918
 2384TIP3    H228788   6.283   4.387   6.858
 2385TIP3   OH228789   6.787   4.492   6.823
 2385TIP3    H128790   6.748   4.576   6.791
 2385TIP3    H228791   6.856   4.482   6.758
 2386TIP3   OH228792   6.621   4.495   7.943
 2386TIP3    H128793   6.592   4.405   7.965
 2386TIP3    H228794   6.703   4.504   7.994
 2387TIP3   OH228795   6.878   4.435   7.114
 2387TIP3    H128796   6.856   4.509   7.053
 2387TIP3    H228797   6.886   4.362   7.052
 2388TIP3   OH228798   5.989   4.408   7.555
 2388TIP3    H128799   5.977   4.476   7.624
 2388TIP3    H228800   5.936   4.334   7.591
 2389TIP3   OH228801   5.670   4.134   7.017
 2389TIP3    H128802   5.742   4.132   7.082
 2389TIP3    H228803   5.706   4.188   6.945
 2390TIP3   OH228804   5.756   4.217   6.518
 2390TIP3    H128805   5.827   4.194   6.454
 2390TIP3    H228806   5.786   4.302   6.551
 2391TIP3   OH228807   6.789   4.641   7.516
 2391TIP3    H128808   6.833   4.566   7.471
 2391TIP3    H228809   6.741   4.596   7.587
 2392TIP3   OH228810   6.477   4.179   7.028
 2392TIP3    H128811   6.383   4.167   7.050
 2392TIP3    H228812   6.522   4.146   7.107
 2393TIP3   OH228813   5.949   4.316   6.909
 2393TIP3    H128814   5.886   4.349   6.842
 2393TIP3    H228815   5.983   4.234   6.867
 2394TIP3   OH228816   6.297   4.344   6.662
 2394TIP3    H128817   6.388   4.377   6.652
 2394TIP3    H228818   6.249   4.403   6.602
 2395TIP3   OH228819   6.904   4.123   7.359
 2395TIP3    H128820   6.845   4.104   7.433
 2395TIP3    H228821   6.858   4.075   7.289
 2396TIP3   OH228822   6.207   4.489   6.435
 2396TIP3    H128823   6.125   4.440   6.415
 2396TIP3    H228824   6.260   4.479   6.354
 2397TIP3   OH228825   7.223   5.652   7.976
 2397TIP3    H128826   7.272   5.653   7.892
 2397TIP3    H228827   7.230   5.747   8.001
 2398TIP3   OH228828   6.002   4.899   7.928
 2398TIP3    H128829   6.072   4.932   7.987
 2398TIP3    H228830   5.925   4.894   7.989
 2399TIP3   OH228831   6.584   4.476   7.166
 2399TIP3    H128832   6.669   4.430   7.156
 2399TIP3    H228833   6.554   4.448   7.253
 2400TIP3   OH228834   6.045   4.075   6.836
 2400TIP3    H128835   6.005   4.002   6.889
 2400TIP3    H228836   6.068   4.031   6.752
 2401TIP3   OH228837   6.490   4.283   7.482
 2401TIP3    H128838   6.428   4.346   7.443
 2401TIP3    H228839   6.553   4.341   7.532
 2402TIP3   OH228840   6.549   4.955   6.648
 2402TIP3    H128841   6.488   4.895   6.601
 2402TIP3    H228842   6.496   4.969   6.730
 2403TIP3   OH228843   7.235   4.851   7.516
 2403TIP3    H128844   7.286   4.839   7.432
 2403TIP3    H228845   7.144   4.844   7.481
 2404TIP3   OH228846   6.713   4.970   7.786
 2404TIP3    H128847   6.656   4.922   7.845
 2404TIP3    H228848   6.670   5.058   7.787
 2405TIP3   OH228849   6.051   4.856   7.201
 2405TIP3    H128850   6.112   4.829   7.130
 2405TIP3    H228851   6.043   4.773   7.252
 2406TIP3   OH228852   5.733   4.690   7.749
 2406TIP3    H128853   5.734   4.614   7.808
 2406TIP3    H228854   5.676   4.662   7.675
 2407TIP3   OH228855   6.411   4.655   7.934
 2407TIP3    H128856   6.348   4.616   7.870
 2407TIP3    H228857   6.493   4.605   7.915
 2408TIP3   OH228858   6.950   5.161   7.769
 2408TIP3    H128859   6.870   5.152   7.715
 2408TIP3    H228860   6.913   5.204   7.848
 2409TIP3   OH228861   7.286   5.318   6.660
 2409TIP3    H128862   7.264   5.228   6.689
 2409TIP3    H228863   7.210   5.340   6.603
 2410TIP3   OH228864   7.004   4.760   7.322
 2410TIP3    H128865   6.920   4.749   7.273
 2410TIP3    H228866   7.054   4.683   7.287
 2411TIP3   OH228867   6.262   5.191   6.946
 2411TIP3    H128868   6.330   5.253   6.915
 2411TIP3    H228869   6.186   5.249   6.958
 2412TIP3   OH228870   5.854   4.686   6.438
 2412TIP3    H128871   5.878   4.778   6.464
 2412TIP3    H228872   5.796   4.704   6.363
 2413TIP3   OH228873   6.389   4.963   6.866
 2413TIP3    H128874   6.343   5.045   6.891
 2413TIP3    H228875   6.341   4.899   6.922
 2414TIP3   OH228876   6.460   5.378   7.579
 2414TIP3    H128877   6.526   5.441   7.546
 2414TIP3    H228878   6.513   5.332   7.646
 2415TIP3   OH228879   6.275   5.462   6.815
 2415TIP3    H128880   6.183   5.472   6.844
 2415TIP3    H228881   6.310   5.544   6.856
 2416TIP3   OH228882   6.780   4.968   7.510
 2416TIP3    H128883   6.783   4.942   7.605
 2416TIP3    H228884   6.833   4.895   7.471
 2417TIP3   OH228885   7.149   5.400   7.728
 2417TIP3    H128886   7.062   5.356   7.732
 2417TIP3    H228887   7.134   5.472   7.663
 2418TIP3   OH228888   5.947   4.165   7.709
 2418TIP3    H128889   5.868   4.180   7.763
 2418TIP3    H228890   5.974   4.078   7.744
 2419TIP3   OH228891   7.160   4.982   6.645
 2419TIP3    H128892   7.070   4.951   6.627
 2419TIP3    H228893   7.213   4.903   6.660
 2420TIP3   OH228894   5.874   5.353   7.491
 2420TIP3    H128895   5.942   5.335   7.557
 2420TIP3    H228896   5.796   5.371   7.547
 2421TIP3   OH228897   6.314   5.138   6.494
 2421TIP3    H128898   6.388   5.080   6.518
 2421TIP3    H228899   6.336   5.225   6.534
 2422TIP3   OH228900   5.963   4.922   6.517
 2422TIP3    H128901   5.977   4.957   6.605
 2422TIP3    H228902   6.044   4.948   6.471
 2423TIP3   OH228903   6.718   4.139   7.664
 2423TIP3    H128904   6.811   4.162   7.675
 2423TIP3    H228905   6.722   4.041   7.655
 2424TIP3   OH228906   6.655   5.320   6.509
 2424TIP3    H128907   6.573   5.326   6.558
 2424TIP3    H228908   6.627   5.266   6.434
 2425TIP3   OH228909   6.588   4.289   6.769
 2425TIP3    H128910   6.640   4.362   6.808
 2425TIP3    H228911   6.532   4.257   6.842
 2426TIP3   OH228912   6.626   4.401   7.686
 2426TIP3    H128913   6.626   4.435   7.778
 2426TIP3    H228914   6.654   4.307   7.695
 2427TIP3   OH228915   6.632   3.965   6.849
 2427TIP3    H128916   6.591   3.981   6.936
 2427TIP3    H228917   6.694   4.040   6.851
 2428TIP3   OH228918   6.357   5.394   6.572
 2428TIP3    H128919   6.339   5.462   6.505
 2428TIP3    H228920   6.320   5.432   6.655
 2429TIP3   OH228921   6.182   4.086   6.563
 2429TIP3    H128922   6.201   4.176   6.595
 2429TIP3    H228923   6.274   4.054   6.557
 2430TIP3   OH228924   7.241   4.116   7.805
 2430TIP3    H128925   7.147   4.142   7.798
 2430TIP3    H228926   7.279   4.182   7.746
 2431TIP3   OH228927   7.103   4.539   7.212
 2431TIP3    H128928   7.026   4.502   7.163
 2431TIP3    H228929   7.132   4.461   7.261
 2432TIP3   OH228930   5.938   4.400   6.331
 2432TIP3    H128931   5.909   4.485   6.367
 2432TIP3    H228932   5.879   4.391   6.253
 2433TIP3   OH228933   7.271   5.467   7.365
 2433TIP3    H128934   7.236   5.521   7.293
 2433TIP3    H228935   7.355   5.440   7.324
 2434TIP3   OH228936   5.962   3.885   7.242
 2434TIP3    H128937   5.954   3.873   7.145
 2434TIP3    H228938   5.926   3.799   7.275
 2435TIP3   OH228939   5.824   5.222   6.784
 2435TIP3    H128940   5.785   5.207   6.872
 2435TIP3    H228941   5.889   5.291   6.798
 2436TIP3   OH228942   5.745   5.551   7.972
 2436TIP3    H128943   5.816   5.536   8.039
 2436TIP3    H228944   5.708   5.462   7.964
 2437TIP3   OH228945   6.256   5.397   8.143
 2437TIP3    H128946   6.352   5.385   8.131
 2437TIP3    H228947   6.223   5.348   8.066
 2438TIP3   OH228948   6.873   5.296   8.004
 2438TIP3    H128949   6.852   5.207   8.040
 2438TIP3    H228950   6.961   5.307   8.047
 2439TIP3   OH228951   5.750   4.919   8.044
 2439TIP3    H128952   5.691   4.844   8.058
 2439TIP3    H228953   5.711   4.959   7.963
 2440TIP3   OH228954   6.426   4.928   7.938
 2440TIP3    H128955   6.394   4.987   7.866
 2440TIP3    H228956   6.437   4.840   7.897
 2441TIP3   OH228957   6.985   4.881   7.742
 2441TIP3    H128958   7.060   4.943   7.753
 2441TIP3    H228959   6.913   4.939   7.775
 2442TIP3   OH228960   5.883   4.548   7.985
 2442TIP3    H128961   5.951   4.491   8.026
 2442TIP3    H228962   5.897   4.630   8.036
 2443TIP3   OH228963   6.344   4.761   6.528
 2443TIP3    H128964   6.266   4.715   6.561
 2443TIP3    H228965   6.378   4.696   6.464
 2444TIP3   OH228966   6.244   4.557   7.752
 2444TIP3    H128967   6.169   4.621   7.754
 2444TIP3    H228968   6.298   4.598   7.681
 2445TIP3   OH228969   6.749   4.803   8.090
 2445TIP3    H128970   6.817   4.777   8.026
 2445TIP3    H228971   6.743   4.722   8.146
 2446TIP3   OH228972   6.309   4.142   7.866
 2446TIP3    H128973   6.341   4.075   7.803
 2446TIP3    H228974   6.393   4.177   7.902
 2447TIP3   OH228975   6.354   4.084   7.597
 2447TIP3    H128976   6.414   4.138   7.539
 2447TIP3    H228977   6.271   4.082   7.545
 2448TIP3   OH228978   6.434   4.690   7.601
 2448TIP3    H128979   6.520   4.729   7.579
 2448TIP3    H228980   6.375   4.756   7.557
 2449TIP3   OH228981   6.946   4.447   8.126
 2449TIP3    H128982   6.929   4.372   8.066
 2449TIP3    H228983   7.037   4.465   8.099
 2450TIP3   OH228984   7.008   4.757   7.977
 2450TIP3    H128985   7.022   4.797   7.888
 2450TIP3    H228986   7.081   4.693   7.978
 2451TIP3   OH228987   6.152   4.411   8.050
 2451TIP3    H128988   6.089   4.356   8.000
 2451TIP3    H228989   6.207   4.452   7.982
 2452TIP3   OH228990   6.440   3.834   7.599
 2452TIP3    H128991   6.412   3.928   7.601
 2452TIP3    H228992   6.357   3.789   7.578
 2453TIP3   OH228993   6.538   4.246   8.019
 2453TIP3    H128994   6.535   4.288   8.107
 2453TIP3    H228995   6.531   4.154   8.049
 2454TIP3   OH228996   6.832   4.226   7.945
 2454TIP3    H128997   6.744   4.193   7.969
 2454TIP3    H228998   6.891   4.165   7.995
 2455TIP3   OH228999   6.984   4.054   8.076
 2455TIP3    H129000   6.969   3.958   8.091
 2455TIP3    H229001   6.952   4.094   8.161
 2456TIP3   OH229002   5.944   4.203   8.032
 2456TIP3    H129003   5.967   4.120   7.987
 2456TIP3    H229004   5.943   4.175   8.126
 2457TIP3   OH229005   6.400   3.813   7.864
 2457TIP3    H129006   6.466   3.744   7.882
 2457TIP3    H229007   6.397   3.805   7.766
 2458TIP3   OH229008   6.449   3.899   8.144
 2458TIP3    H129009   6.429   3.865   8.055
 2458TIP3    H229010   6.419   3.991   8.137
 2459TIP3   OH229011   5.639   5.631   6.887
 2459TIP3    H129012   5.578   5.579   6.832
 2459TIP3    H229013   5.673   5.562   6.948
 2460TIP3   OH229014   5.733   5.454   7.064
 2460TIP3    H129015   5.656   5.399   7.088
 2460TIP3    H229016   5.748   5.490   7.155
 2461TIP3   OH229017   7.226   4.996   8.097
 2461TIP3    H129018   7.187   5.033   8.179
 2461TIP3    H229019   7.264   5.074   8.055
 2462TIP3   OH229020   7.286   5.207   7.574
 2462TIP3    H129021   7.236   5.279   7.615
 2462TIP3    H229022   7.242   5.200   7.485
 2463TIP3   OH229023   7.216   4.591   6.954
 2463TIP3    H129024   7.193   4.513   7.005
 2463TIP3    H229025   7.272   4.640   7.018
 2464TIP3   OH229026   5.714   4.770   7.314
 2464TIP3    H129027   5.715   4.744   7.219
 2464TIP3    H229028   5.807   4.742   7.333
 2465TIP3   OH229029  -0.033   4.704   7.900
 2465TIP3    H129030   0.060   4.691   7.932
 2465TIP3    H229031  -0.031   4.795   7.867
 2466TIP3   OH229032   7.188   4.274   6.773
 2466TIP3    H129033   7.224   4.227   6.850
 2466TIP3    H229034   7.265   4.277   6.716
 2467TIP3   OH229035   7.253   4.301   7.351
 2467TIP3    H129036   7.334   4.315   7.300
 2467TIP3    H229037   7.271   4.357   7.429
 2468TIP3   OH229038   7.279   4.410   7.626
 2468TIP3    H129039   7.191   4.447   7.646
 2468TIP3    H229040   7.310   4.476   7.561
 2469TIP3   OH229041   5.712   4.232   7.900
 2469TIP3    H129042   5.791   4.233   7.958
 2469TIP3    H229043   5.685   4.139   7.913
 2470TIP3   OH229044   7.204   3.932   6.867
 2470TIP3    H129045   7.264   3.983   6.809
 2470TIP3    H229046   7.128   3.914   6.807
 2471TIP3   OH229047   5.824   4.111   7.256
 2471TIP3    H129048   5.869   4.024   7.262
 2471TIP3    H229049   5.898   4.173   7.242
 2472TIP3   OH229050   5.656   4.423   7.331
 2472TIP3    H129051   5.695   4.354   7.274
 2472TIP3    H229052   5.725   4.490   7.334
 2473TIP3   OH229053   5.679   4.039   6.727
 2473TIP3    H129054   5.586   4.063   6.742
 2473TIP3    H229055   5.697   4.087   6.644
 2474TIP3   OH229056   7.181   5.491   6.936
 2474TIP3    H129057   7.189   5.412   6.879
 2474TIP3    H229058   7.263   5.484   6.991
 2475TIP3   OH229059   5.672   3.900   7.554
 2475TIP3    H129060   5.606   3.859   7.611
 2475TIP3    H229061   5.627   3.978   7.518
 2476TIP3   OH229062   5.902   5.219   7.960
 2476TIP3    H129063   5.824   5.252   7.915
 2476TIP3    H229064   5.869   5.210   8.049
 2477TIP3   OH229065   6.187   5.392   7.639
 2477TIP3    H129066   6.192   5.478   7.594
 2477TIP3    H229067   6.281   5.365   7.630
 2478TIP3   OH229068   6.613   5.495   7.873
 2478TIP3    H129069   6.619   5.466   7.966
 2478TIP3    H229070   6.707   5.510   7.853
 2479TIP3   OH229071   6.849   5.648   7.820
 2479TIP3    H129072   6.926   5.643   7.761
 2479TIP3    H229073   6.886   5.669   7.907
 2480TIP3   OH229074   5.948   5.670   7.581
 2480TIP3    H129075   5.869   5.717   7.545
 2480TIP3    H229076   5.907   5.639   7.662
 2481TIP3   OH229077   6.194   5.626   7.483
 2481TIP3    H129078   6.102   5.642   7.516
 2481TIP3    H229079   6.197   5.691   7.410
 2482TIP3   OH229080   6.679   5.561   7.421
 2482TIP3    H129081   6.627   5.583   7.343
 2482TIP3    H229082   6.675   5.643   7.475
 2483TIP3   OH229083   6.865   5.445   7.574
 2483TIP3    H129084   6.790   5.471   7.516
 2483TIP3    H229085   6.932   5.509   7.543
 2484TIP3   OH229086   7.117   5.593   7.544
 2484TIP3    H129087   7.189   5.656   7.566
 2484TIP3    H229088   7.168   5.530   7.487
 2485TIP3   OH229089   5.915   5.529   7.289
 2485TIP3    H129090   5.884   5.473   7.364
 2485TIP3    H229091   5.988   5.473   7.254
 2486TIP3   OH229092   6.119   5.391   7.157
 2486TIP3    H129093   6.106   5.300   7.191
 2486TIP3    H229094   6.207   5.413   7.197
 2487TIP3   OH229095   6.357   5.398   7.277
 2487TIP3    H129096   6.374   5.305   7.256
 2487TIP3    H229097   6.362   5.399   7.374
 2488TIP3   OH229098   6.674   3.988   7.128
 2488TIP3    H129099   6.591   3.956   7.168
 2488TIP3    H229100   6.736   3.916   7.148
 2489TIP3   OH229101   7.230   3.801   7.178
 2489TIP3    H129102   7.244   3.884   7.128
 2489TIP3    H229103   7.132   3.801   7.175
 2490TIP3   OH229104   5.934   3.863   6.970
 2490TIP3    H129105   5.846   3.869   6.927
 2490TIP3    H229106   5.963   3.773   6.944
 2491TIP3   OH229107   5.826   3.839   6.541
 2491TIP3    H129108   5.869   3.894   6.472
 2491TIP3    H229109   5.777   3.906   6.590
 2492TIP3   OH229110   6.357   3.809   6.935
 2492TIP3    H129111   6.430   3.844   6.882
 2492TIP3    H229112   6.390   3.821   7.025
 2493TIP3   OH229113   6.964   3.841   7.118
 2493TIP3    H129114   6.979   3.855   7.023
 2493TIP3    H229115   6.909   3.760   7.121
 2494TIP3   OH229116   7.010   3.876   6.658
 2494TIP3    H129117   6.950   3.895   6.586
 2494TIP3    H229118   6.973   3.792   6.693
 2495TIP3   OH229119   5.971   4.009   6.394
 2495TIP3    H129120   6.019   3.945   6.342
 2495TIP3    H229121   6.036   4.026   6.465
 2496TIP3   OH229122   6.512   4.085   6.598
 2496TIP3    H129123   6.532   4.030   6.676
 2496TIP3    H229124   6.538   4.173   6.631
 2497TIP3   OH229125   5.914   3.918   7.888
 2497TIP3    H129126   5.858   3.838   7.888
 2497TIP3    H229127   5.982   3.893   7.955
 2498TIP3   OH229128   6.092   3.849   8.076
 2498TIP3    H129129   6.178   3.812   8.048
 2498TIP3    H229130   6.048   3.768   8.112
 2499TIP3   OH229131   6.949   3.796   8.108
 2499TIP3    H129132   6.956   3.767   8.201
 2499TIP3    H229133   7.035   3.765   8.072
 2500TIP3   OH229134   7.287   5.372   7.959
 2500TIP3    H129135   7.262   5.342   7.869
 2500TIP3    H229136   7.251   5.464   7.955
 2501TIP3   OH229137   1.169   6.650   6.951
 2501TIP3    H129138   1.170   6.747   6.964
 2501TIP3    H229139   1.102   6.641   6.882
 2502TIP3   OH229140   1.079   6.558   7.288
 2502TIP3    H129141   1.098   6.501   7.367
 2502TIP3    H229142   1.030   6.494   7.233
 2503TIP3   OH229143   0.293   6.557   7.404
 2503TIP3    H129144   0.286   6.483   7.467
 2503TIP3    H229145   0.342   6.622   7.458
 2504TIP3   OH229146   1.421   6.861   7.137
 2504TIP3    H129147   1.424   6.801   7.213
 2504TIP3    H229148   1.419   6.948   7.180
 2505TIP3   OH229149   0.383   7.013   7.266
 2505TIP3    H129150   0.332   6.931   7.260
 2505TIP3    H229151   0.473   6.976   7.265
 2506TIP3   OH229152   0.135   6.377   6.784
 2506TIP3    H129153   0.053   6.407   6.829
 2506TIP3    H229154   0.105   6.352   6.693
 2507TIP3   OH229155   0.103   6.575   7.078
 2507TIP3    H129156   0.109   6.480   7.057
 2507TIP3    H229157   0.120   6.619   6.993
 2508TIP3   OH229158   0.879   6.813   7.378
 2508TIP3    H129159   0.901   6.774   7.292
 2508TIP3    H229160   0.970   6.834   7.408
 2509TIP3   OH229161   1.743   5.979   7.344
 2509TIP3    H129162   1.757   6.030   7.428
 2509TIP3    H229163   1.835   5.969   7.312
 2510TIP3   OH229164   1.275   6.271   7.373
 2510TIP3    H129165   1.278   6.173   7.383
 2510TIP3    H229166   1.257   6.274   7.277
 2511TIP3   OH229167   0.519   6.085   7.085
 2511TIP3    H129168   0.567   6.143   7.022
 2511TIP3    H229169   0.488   6.017   7.023
 2512TIP3   OH229170   1.302   6.109   6.934
 2512TIP3    H129171   1.354   6.068   7.007
 2512TIP3    H229172   1.373   6.152   6.882
 2513TIP3   OH229173   0.184   6.315   7.129
 2513TIP3    H129174   0.211   6.244   7.189
 2513TIP3    H229175   0.216   6.280   7.042
 2514TIP3   OH229176   0.712   6.460   7.089
 2514TIP3    H129177   0.798   6.423   7.121
 2514TIP3    H229178   0.693   6.396   7.019
 2515TIP3   OH229179   1.771   6.098   7.594
 2515TIP3    H129180   1.740   6.183   7.555
 2515TIP3    H229181   1.812   6.133   7.675
 2516TIP3   OH229182   0.438   5.973   7.469
 2516TIP3    H129183   0.408   6.027   7.393
 2516TIP3    H229184   0.364   5.983   7.531
 2517TIP3   OH229185   1.117   6.913   6.848
 2517TIP3    H129186   1.179   6.953   6.785
 2517TIP3    H229187   1.058   6.988   6.867
 2518TIP3   OH229188   0.635   6.738   7.444
 2518TIP3    H129189   0.591   6.819   7.478
 2518TIP3    H229190   0.723   6.776   7.421
 2519TIP3   OH229191   1.477   6.037   7.131
 2519TIP3    H129192   1.500   5.969   7.196
 2519TIP3    H229193   1.564   6.077   7.116
 2520TIP3   OH229194   0.370   6.171   7.294
 2520TIP3    H129195   0.433   6.226   7.347
 2520TIP3    H229196   0.428   6.141   7.219
 2521TIP3   OH229197   0.538   6.955   7.561
 2521TIP3    H129198   0.501   7.039   7.529
 2521TIP3    H229199   0.473   6.928   7.630
 2522TIP3   OH229200   0.180   6.964   6.629
 2522TIP3    H129201   0.093   6.968   6.588
 2522TIP3    H229202   0.164   6.990   6.722
 2523TIP3   OH229203   1.503   7.083   7.369
 2523TIP3    H129204   1.409   7.107   7.382
 2523TIP3    H229205   1.531   7.154   7.309
 2524TIP3   OH229206   1.467   5.934   7.468
 2524TIP3    H129207   1.402   5.990   7.421
 2524TIP3    H229208   1.551   5.952   7.422
 2525TIP3   OH229209   0.772   5.719   7.204
 2525TIP3    H129210   0.741   5.630   7.227
 2525TIP3    H229211   0.689   5.769   7.232
 2526TIP3   OH229212   1.311   7.237   6.936
 2526TIP3    H129213   1.345   7.151   6.904
 2526TIP3    H229214   1.395   7.269   6.972
 2527TIP3   OH229215   1.429   7.002   6.871
 2527TIP3    H129216   1.451   6.945   6.794
 2527TIP3    H229217   1.421   6.936   6.941
 2528TIP3   OH229218   1.570   6.886   7.719
 2528TIP3    H129219   1.598   6.819   7.653
 2528TIP3    H229220   1.602   6.968   7.674
 2529TIP3   OH229221   1.074   6.578   6.682
 2529TIP3    H129222   0.998   6.605   6.630
 2529TIP3    H229223   1.128   6.659   6.679
 2530TIP3   OH229224   1.800   6.547   7.503
 2530TIP3    H129225   1.734   6.620   7.508
 2530TIP3    H229226   1.854   6.577   7.427
 2531TIP3   OH229227   1.396   6.553   6.833
 2531TIP3    H129228   1.336   6.588   6.903
 2531TIP3    H229229   1.477   6.539   6.884
 2532TIP3   OH229230   1.402   6.442   7.677
 2532TIP3    H129231   1.386   6.524   7.724
 2532TIP3    H229232   1.329   6.444   7.612
 2533TIP3   OH229233   0.555   6.645   6.977
 2533TIP3    H129234   0.542   6.616   6.884
 2533TIP3    H229235   0.630   6.591   7.005
 2534TIP3   OH229236   0.670   6.993   7.240
 2534TIP3    H129237   0.685   6.992   7.143
 2534TIP3    H229238   0.749   6.946   7.273
 2535TIP3   OH229239   0.578   6.517   7.318
 2535TIP3    H129240   0.649   6.533   7.252
 2535TIP3    H229241   0.591   6.595   7.378
 2536TIP3   OH229242   1.235   7.136   7.412
 2536TIP3    H129243   1.162   7.197   7.420
 2536TIP3    H229244   1.205   7.061   7.466
 2537TIP3   OH229245   0.700   6.996   7.775
 2537TIP3    H129246   0.692   7.091   7.755
 2537TIP3    H229247   0.670   6.959   7.689
 2538TIP3   OH229248   0.387   6.619   7.716
 2538TIP3    H129249   0.376   6.658   7.805
 2538TIP3    H229250   0.308   6.561   7.715
 2539TIP3   OH229251   1.032   7.219   6.854
 2539TIP3    H129252   1.129   7.225   6.863
 2539TIP3    H229253   1.010   7.314   6.850
 2540TIP3   OH229254   0.476   7.226   7.873
 2540TIP3    H129255   0.497   7.247   7.779
 2540TIP3    H229256   0.379   7.239   7.869
 2541TIP3   OH229257   1.633   5.634   6.591
 2541TIP3    H129258   1.544   5.674   6.595
 2541TIP3    H229259   1.673   5.682   6.517
 2542TIP3   OH229260   0.472   6.565   6.728
 2542TIP3    H129261   0.391   6.619   6.730
 2542TIP3    H229262   0.439   6.481   6.694
 2543TIP3   OH229263   0.128   6.825   7.601
 2543TIP3    H129264   0.075   6.813   7.523
 2543TIP3    H229265   0.133   6.732   7.630
 2544TIP3   OH229266   0.088   7.156   7.219
 2544TIP3    H129267   0.149   7.080   7.218
 2544TIP3    H229268   0.096   7.185   7.311
 2545TIP3   OH229269   1.831   7.189   7.880
 2545TIP3    H129270   1.846   7.094   7.864
 2545TIP3    H229271   1.741   7.187   7.919
 2546TIP3   OH229272   0.965   7.103   7.750
 2546TIP3    H129273   0.964   7.121   7.845
 2546TIP3    H229274   0.901   7.028   7.744
 2547TIP3   OH229275   1.544   6.279   7.904
 2547TIP3    H129276   1.489   6.322   7.835
 2547TIP3    H229277   1.537   6.186   7.875
 2548TIP3   OH229278   0.327   6.944   7.733
 2548TIP3    H129279   0.290   6.895   7.808
 2548TIP3    H229280   0.246   6.942   7.678
 2549TIP3   OH229281   0.547   5.823   7.282
 2549TIP3    H129282   0.457   5.795   7.255
 2549TIP3    H229283   0.525   5.877   7.362
 2550TIP3   OH229284   1.013   5.770   7.618
 2550TIP3    H129285   1.025   5.767   7.714
 2550TIP3    H229286   0.914   5.763   7.613
 2551TIP3   OH229287   1.291   6.164   7.733
 2551TIP3    H129288   1.236   6.134   7.810
 2551TIP3    H229289   1.250   6.249   7.716
 2552TIP3   OH229290   1.008   5.992   6.396
 2552TIP3    H129291   0.938   5.978   6.463
 2552TIP3    H229292   1.055   5.907   6.390
 2553TIP3   OH229293   0.568   6.275   7.444
 2553TIP3    H129294   0.502   6.293   7.513
 2553TIP3    H229295   0.593   6.367   7.420
 2554TIP3   OH229296   0.577   6.298   6.915
 2554TIP3    H129297   0.492   6.261   6.882
 2554TIP3    H229298   0.630   6.283   6.833
 2555TIP3   OH229299   1.126   6.301   6.726
 2555TIP3    H129300   1.125   6.399   6.721
 2555TIP3    H229301   1.220   6.282   6.727
 2556TIP3   OH229302   1.013   6.386   7.943
 2556TIP3    H129303   0.967   6.305   7.975
 2556TIP3    H229304   1.092   6.386   8.001
 2557TIP3   OH229305   1.222   6.341   7.098
 2557TIP3    H129306   1.203   6.418   7.041
 2557TIP3    H229307   1.225   6.267   7.035
 2558TIP3   OH229308   0.303   6.293   7.568
 2558TIP3    H129309   0.325   6.312   7.660
 2558TIP3    H229310   0.271   6.200   7.573
 2559TIP3   OH229311   0.064   5.990   6.966
 2559TIP3    H129312   0.081   6.008   7.061
 2559TIP3    H229313   0.129   5.921   6.950
 2560TIP3   OH229314   0.041   6.192   6.593
 2560TIP3    H129315   0.116   6.143   6.557
 2560TIP3    H229316   0.032   6.252   6.515
 2561TIP3   OH229317   1.137   6.445   7.525
 2561TIP3    H129318   1.190   6.373   7.484
 2561TIP3    H229319   1.072   6.395   7.581
 2562TIP3   OH229320   0.869   6.090   7.032
 2562TIP3    H129321   0.782   6.065   7.064
 2562TIP3    H229322   0.922   6.014   7.063
 2563TIP3   OH229323   0.313   6.218   6.906
 2563TIP3    H129324   0.257   6.256   6.835
 2563TIP3    H229325   0.335   6.129   6.870
 2564TIP3   OH229326   0.643   6.244   6.665
 2564TIP3    H129327   0.732   6.208   6.649
 2564TIP3    H229328   0.625   6.285   6.576
 2565TIP3   OH229329   1.239   5.999   7.336
 2565TIP3    H129330   1.157   5.992   7.389
 2565TIP3    H229331   1.234   5.924   7.275
 2566TIP3   OH229332   0.363   6.745   7.958
 2566TIP3    H129333   0.407   6.736   8.044
 2566TIP3    H229334   0.270   6.751   7.991
 2567TIP3   OH229335   0.934   6.335   7.181
 2567TIP3    H129336   1.006   6.303   7.125
 2567TIP3    H229337   0.897   6.251   7.213
 2568TIP3   OH229338   0.365   5.963   6.858
 2568TIP3    H129339   0.338   5.892   6.920
 2568TIP3    H229340   0.410   5.909   6.791
 2569TIP3   OH229341   0.810   6.157   7.419
 2569TIP3    H129342   0.725   6.203   7.419
 2569TIP3    H229343   0.860   6.207   7.485
 2570TIP3   OH229344   1.618   6.743   7.504
 2570TIP3    H129345   1.663   6.793   7.431
 2570TIP3    H229346   1.527   6.743   7.471
 2571TIP3   OH229347   0.954   6.829   7.755
 2571TIP3    H129348   0.990   6.749   7.797
 2571TIP3    H229349   1.032   6.885   7.749
 2572TIP3   OH229350   0.377   6.751   7.172
 2572TIP3    H129351   0.435   6.745   7.094
 2572TIP3    H229352   0.412   6.684   7.233
 2573TIP3   OH229353   0.120   6.542   7.680
 2573TIP3    H129354   0.070   6.502   7.753
 2573TIP3    H229355   0.084   6.494   7.602
 2574TIP3   OH229356   0.765   6.509   7.897
 2574TIP3    H129357   0.716   6.427   7.877
 2574TIP3    H229358   0.857   6.475   7.898
 2575TIP3   OH229359   1.235   7.101   7.750
 2575TIP3    H129360   1.141   7.121   7.729
 2575TIP3    H229361   1.229   7.110   7.848
 2576TIP3   OH229362   1.817   6.893   7.856
 2576TIP3    H129363   1.720   6.890   7.843
 2576TIP3    H229364   1.851   6.878   7.764
 2577TIP3   OH229365   1.625   7.099   6.605
 2577TIP3    H129366   1.622   7.003   6.605
 2577TIP3    H229367   1.678   7.118   6.525
 2578TIP3   OH229368   1.358   6.655   7.347
 2578TIP3    H129369   1.270   6.640   7.307
 2578TIP3    H229370   1.410   6.594   7.292
 2579TIP3   OH229371   0.623   7.088   6.968
 2579TIP3    H129372   0.639   7.159   6.902
 2579TIP3    H229373   0.538   7.055   6.936
 2580TIP3   OH229374   0.822   7.214   7.535
 2580TIP3    H129375   0.818   7.304   7.572
 2580TIP3    H229376   0.899   7.178   7.584
 2581TIP3   OH229377   0.603  -0.029   6.805
 2581TIP3    H129378   0.518   0.006   6.833
 2581TIP3    H229379   0.664   0.036   6.848
 2582TIP3   OH229380   1.122   6.837   7.497
 2582TIP3    H129381   1.077   6.807   7.578
 2582TIP3    H229382   1.159   6.756   7.460
 2583TIP3   OH229383   1.405   7.304   7.748
 2583TIP3    H129384   1.336   7.238   7.723
 2583TIP3    H229385   1.399   7.371   7.678
 2584TIP3   OH229386   0.246   6.038   7.666
 2584TIP3    H129387   0.222   6.093   7.743
 2584TIP3    H229388   0.251   5.949   7.705
 2585TIP3   OH229389   1.423   6.801   6.669
 2585TIP3    H129390   1.431   6.717   6.717
 2585TIP3    H229391   1.494   6.795   6.603
 2586TIP3   OH229392   0.224   7.182   7.555
 2586TIP3    H129393   0.218   7.086   7.551
 2586TIP3    H229394   0.131   7.208   7.577
 2587TIP3   OH229395   1.090   6.043   7.589
 2587TIP3    H129396   1.183   6.057   7.618
 2587TIP3    H229397   1.070   5.951   7.612
 2588TIP3   OH229398   1.175   5.988   6.740
 2588TIP3    H129399   1.167   6.077   6.702
 2588TIP3    H229400   1.234   6.007   6.817
 2589TIP3   OH229401   0.902   6.152   6.756
 2589TIP3    H129402   0.978   6.214   6.748
 2589TIP3    H229403   0.897   6.134   6.853
 2590TIP3   OH229404   0.996   6.278   7.675
 2590TIP3    H129405   1.004   6.287   7.772
 2590TIP3    H229406   1.021   6.185   7.657
 2591TIP3   OH229407   0.963   5.846   6.836
 2591TIP3    H129408   0.958   5.866   6.932
 2591TIP3    H229409   1.037   5.907   6.811
 2592TIP3   OH229410   0.690  -0.040   6.537
 2592TIP3    H129411   0.726   0.050   6.538
 2592TIP3    H229412   0.649  -0.047   6.625
 2593TIP3   OH229413   1.559   6.045   7.764
 2593TIP3    H129414   1.467   6.070   7.740
 2593TIP3    H229415   1.607   6.060   7.680
 2594TIP3   OH229416   1.468   6.452   7.156
 2594TIP3    H129417   1.390   6.394   7.166
 2594TIP3    H229418   1.534   6.404   7.211
 2595TIP3   OH229419   0.396   7.038   6.418
 2595TIP3    H129420   0.417   7.082   6.501
 2595TIP3    H229421   0.447   6.958   6.429
 2596TIP3   OH229422   0.124   6.294   6.368
 2596TIP3    H129423   0.200   6.246   6.333
 2596TIP3    H229424   0.058   6.274   6.297
 2597TIP3   OH229425   0.300   5.751   7.216
 2597TIP3    H129426   0.288   5.732   7.121
 2597TIP3    H229427   0.268   5.666   7.254
 2598TIP3   OH229428   0.220   7.121   6.858
 2598TIP3    H129429   0.178   7.121   6.945
 2598TIP3    H229430   0.214   7.214   6.831
 2599TIP3   OH229431   0.615   7.228   8.161
 2599TIP3    H129432   0.703   7.268   8.157
 2599TIP3    H229433   0.588   7.236   8.068
 2600TIP3   OH229434   1.193   7.146   8.015
 2600TIP3    H129435   1.167   7.068   8.070
 2600TIP3    H229436   1.286   7.152   8.047
 2601TIP3   OH229437   0.123   6.785   8.047
 2601TIP3    H129438   0.063   6.712   8.023
 2601TIP3    H229439   0.057   6.857   8.059
 2602TIP3   OH229440   0.775   6.767   7.968
 2602TIP3    H129441   0.802   6.826   7.893
 2602TIP3    H229442   0.777   6.679   7.923
 2603TIP3   OH229443   1.328   6.767   7.763
 2603TIP3    H129444   1.417   6.810   7.763
 2603TIP3    H229445   1.274   6.847   7.756
 2604TIP3   OH229446   0.203   6.506   8.006
 2604TIP3    H129447   0.256   6.426   8.016
 2604TIP3    H229448   0.191   6.526   8.102
 2605TIP3   OH229449   0.558   6.415   7.692
 2605TIP3    H129450   0.504   6.496   7.705
 2605TIP3    H229451   0.638   6.459   7.654
 2606TIP3   OH229452   1.130   6.678   8.074
 2606TIP3    H129453   1.212   6.628   8.055
 2606TIP3    H229454   1.082   6.614   8.131
 2607TIP3   OH229455   0.669   6.189   7.800
 2607TIP3    H129456   0.671   6.122   7.728
 2607TIP3    H229457   0.631   6.268   7.754
 2608TIP3   OH229458   0.685   5.984   7.598
 2608TIP3    H129459   0.727   6.028   7.521
 2608TIP3    H229460   0.592   5.981   7.567
 2609TIP3   OH229461   0.792   6.559   7.592
 2609TIP3    H129462   0.886   6.577   7.581
 2609TIP3    H229463   0.750   6.642   7.562
 2610TIP3   OH229464   1.231   6.315   8.132
 2610TIP3    H129465   1.237   6.227   8.175
 2610TIP3    H229466   1.325   6.338   8.122
 2611TIP3   OH229467   1.419   6.595   7.960
 2611TIP3    H129468   1.380   6.650   7.888
 2611TIP3    H229469   1.514   6.594   7.935
 2612TIP3   OH229470   0.508   6.242   8.032
 2612TIP3    H129471   0.415   6.212   8.026
 2612TIP3    H229472   0.534   6.242   7.939
 2613TIP3   OH229473   0.755   5.727   7.622
 2613TIP3    H129474   0.733   5.821   7.611
 2613TIP3    H229475   0.680   5.686   7.573
 2614TIP3   OH229476   0.852   6.175   8.013
 2614TIP3    H129477   0.784   6.159   8.084
 2614TIP3    H229478   0.797   6.155   7.935
 2615TIP3   OH229479   1.123   6.090   7.926
 2615TIP3    H129480   1.032   6.088   7.960
 2615TIP3    H229481   1.168   6.033   7.993
 2616TIP3   OH229482   1.260   5.937   8.100
 2616TIP3    H129483   1.308   5.853   8.114
 2616TIP3    H229484   1.274   5.985   8.185
 2617TIP3   OH229485   0.305   6.066   7.993
 2617TIP3    H129486   0.283   5.977   7.961
 2617TIP3    H229487   0.309   6.051   8.091
 2618TIP3   OH229488   0.761   5.658   7.932
 2618TIP3    H129489   0.823   5.584   7.935
 2618TIP3    H229490   0.764   5.677   7.837
 2619TIP3   OH229491   0.763   5.798   8.165
 2619TIP3    H129492   0.756   5.744   8.083
 2619TIP3    H229493   0.742   5.887   8.131
 2620TIP3   OH229494   0.091   7.383   7.060
 2620TIP3    H129495   0.066   7.298   7.100
 2620TIP3    H229496   0.147   7.423   7.130
 2621TIP3   OH229497   1.652   6.926   8.144
 2621TIP3    H129498   1.564   6.937   8.189
 2621TIP3    H229499   1.687   7.017   8.155
 2622TIP3   OH229500   1.795   6.724   6.688
 2622TIP3    H129501   1.854   6.801   6.692
 2622TIP3    H229502   1.791   6.699   6.783
 2623TIP3   OH229503   1.790   6.629   6.933
 2623TIP3    H129504   1.730   6.552   6.939
 2623TIP3    H229505   1.860   6.604   6.997
 2624TIP3   OH229506   1.768   6.858   7.321
 2624TIP3    H129507   1.837   6.789   7.319
 2624TIP3    H229508   1.822   6.938   7.305
 2625TIP3   OH229509   1.633   7.131   7.604
 2625TIP3    H129510   1.556   7.180   7.637
 2625TIP3    H229511   1.606   7.108   7.512
 2626TIP3   OH229512   1.884   6.570   6.488
 2626TIP3    H129513   1.793   6.540   6.480
 2626TIP3    H229514   1.871   6.642   6.554
 2627TIP3   OH229515   1.621   6.419   6.934
 2627TIP3    H129516   1.575   6.347   6.887
 2627TIP3    H229517   1.576   6.421   7.021
 2628TIP3   OH229518   0.053   6.662   7.320
 2628TIP3    H129519   0.070   6.639   7.225
 2628TIP3    H229520   0.145   6.654   7.353
 2629TIP3   OH229521   1.697   6.607   7.892
 2629TIP3    H129522   1.727   6.513   7.891
 2629TIP3    H229523   1.770   6.648   7.839
 2630TIP3   OH229524   1.795   6.350   7.922
 2630TIP3    H129525   1.704   6.311   7.920
 2630TIP3    H229526   1.853   6.271   7.914
 2631TIP3   OH229527   1.522   6.190   6.779
 2631TIP3    H129528   1.572   6.109   6.803
 2631TIP3    H229529   1.545   6.193   6.684
 2632TIP3   OH229530   1.615   6.278   7.302
 2632TIP3    H129531   1.714   6.283   7.302
 2632TIP3    H229532   1.599   6.258   7.396
 2633TIP3   OH229533   1.629   6.324   7.571
 2633TIP3    H129534   1.544   6.354   7.609
 2633TIP3    H229535   1.671   6.410   7.548
 2634TIP3   OH229536   0.071   6.180   7.951
 2634TIP3    H129537   0.159   6.143   7.972
 2634TIP3    H229538   0.014   6.101   7.961
 2635TIP3   OH229539   1.837   5.748   8.092
 2635TIP3    H129540   1.890   5.683   8.041
 2635TIP3    H229541   1.826   5.818   8.024
 2636TIP3   OH229542   1.625   5.922   6.764
 2636TIP3    H129543   1.656   5.897   6.854
 2636TIP3    H229544   1.566   5.848   6.744
 2637TIP3   OH229545   0.162   5.999   7.223
 2637TIP3    H129546   0.215   5.915   7.227
 2637TIP3    H229547   0.218   6.057   7.279
 2638TIP3   OH229548   0.030   6.406   7.397
 2638TIP3    H129549   0.103   6.391   7.334
 2638TIP3    H229550  -0.000   6.495   7.369
 2639TIP3   OH229551   1.770   5.959   7.942
 2639TIP3    H129552   1.697   5.980   8.003
 2639TIP3    H229553   1.722   5.938   7.860
 2640TIP3   OH229554   0.107   5.942   6.675
 2640TIP3    H129555   0.069   6.031   6.672
 2640TIP3    H229556   0.151   5.944   6.762
 2641TIP3   OH229557   0.049   5.735   7.569
 2641TIP3    H129558   0.007   5.769   7.649
 2641TIP3    H229559   0.041   5.812   7.511
 2642TIP3   OH229560   0.245   7.094   7.985
 2642TIP3    H129561   0.155   7.124   8.001
 2642TIP3    H229562   0.292   7.126   8.064
 2643TIP3   OH229563   0.542   7.249   7.617
 2643TIP3    H129564   0.466   7.259   7.558
 2643TIP3    H229565   0.617   7.230   7.557
 2644TIP3   OH229566   1.704   5.726   7.750
 2644TIP3    H129567   1.635   5.766   7.696
 2644TIP3    H229568   1.699   5.632   7.724
 2645TIP3   OH229569   0.410   7.224   7.102
 2645TIP3    H129570   0.406   7.131   7.133
 2645TIP3    H229571   0.488   7.253   7.153
 2646TIP3   OH229572   0.625   7.255   7.293
 2646TIP3    H129573   0.629   7.170   7.244
 2646TIP3    H229574   0.682   7.228   7.367
 2647TIP3   OH229575   0.981   5.851   7.097
 2647TIP3    H129576   0.906   5.795   7.127
 2647TIP3    H229577   1.058   5.793   7.105
 2648TIP3   OH229578   1.554   5.697   7.170
 2648TIP3    H129579   1.626   5.747   7.124
 2648TIP3    H229580   1.475   5.732   7.124
 2649TIP3   OH229581   1.712   5.827   7.006
 2649TIP3    H129582   1.764   5.759   6.957
 2649TIP3    H229583   1.781   5.894   7.029
 2650TIP3   OH229584   0.265   5.736   6.946
 2650TIP3    H129585   0.202   5.724   6.872
 2650TIP3    H229586   0.325   5.660   6.926
 2651TIP3   OH229587   0.084   5.719   6.513
 2651TIP3    H129588   0.171   5.715   6.470
 2651TIP3    H229589   0.109   5.759   6.599
 2652TIP3   OH229590   0.703   5.712   6.914
 2652TIP3    H129591   0.776   5.710   6.851
 2652TIP3    H229592   0.749   5.714   7.000
 2653TIP3   OH229593   1.276   5.755   7.062
 2653TIP3    H129594   1.295   5.732   6.970
 2653TIP3    H229595   1.233   5.672   7.091
 2654TIP3   OH229596   1.380   5.761   6.661
 2654TIP3    H129597   1.309   5.828   6.675
 2654TIP3    H229598   1.336   5.678   6.691
 2655TIP3   OH229599   0.141   0.027   6.748
 2655TIP3    H129600   0.047   0.013   6.758
 2655TIP3    H229601   0.142   0.125   6.742
 2656TIP3   OH229602   0.831   5.949   6.599
 2656TIP3    H129603   0.844   5.877   6.662
 2656TIP3    H229604   0.862   6.023   6.656
 2657TIP3   OH229605   0.226   5.796   7.895
 2657TIP3    H129606   0.188   5.707   7.900
 2657TIP3    H229607   0.314   5.779   7.934
 2658TIP3   OH229608   0.439   5.744   8.068
 2658TIP3    H129609   0.518   5.693   8.043
 2658TIP3    H229610   0.392   5.682   8.126
 2659TIP3   OH229611   1.328   5.683   8.142
 2659TIP3    H129612   1.329   5.646   8.232
 2659TIP3    H229613   1.423   5.677   8.116
 2660TIP3   OH229614   1.579   7.230   7.938
 2660TIP3    H129615   1.498   7.233   7.883
 2660TIP3    H229616   1.624   7.310   7.905
 2661TIP3   OH229617   3.099   6.679   6.922
 2661TIP3    H129618   3.086   6.777   6.931
 2661TIP3    H229619   3.025   6.656   6.864
 2662TIP3   OH229620   2.952   6.534   7.254
 2662TIP3    H129621   2.945   6.496   7.344
 2662TIP3    H229622   2.870   6.507   7.209
 2663TIP3   OH229623   2.154   6.518   7.403
 2663TIP3    H129624   2.179   6.461   7.477
 2663TIP3    H229625   2.225   6.589   7.405
 2664TIP3   OH229626   3.272   6.912   7.140
 2664TIP3    H129627   3.262   6.830   7.191
 2664TIP3    H229628   3.282   6.978   7.210
 2665TIP3   OH229629   2.325   7.027   7.251
 2665TIP3    H129630   2.316   6.939   7.295
 2665TIP3    H229631   2.413   7.009   7.212
 2666TIP3   OH229632   1.964   6.361   6.838
 2666TIP3    H129633   1.940   6.454   6.831
 2666TIP3    H229634   1.878   6.321   6.849
 2667TIP3   OH229635   1.987   6.549   7.082
 2667TIP3    H129636   2.030   6.461   7.087
 2667TIP3    H229637   2.066   6.609   7.075
 2668TIP3   OH229638   2.770   6.808   7.355
 2668TIP3    H129639   2.800   6.759   7.278
 2668TIP3    H229640   2.853   6.847   7.386
 2669TIP3   OH229641   3.628   5.987   7.365
 2669TIP3    H129642   3.639   6.025   7.455
 2669TIP3    H229643   3.716   6.004   7.329
 2670TIP3   OH229644   3.148   6.282   7.378
 2670TIP3    H129645   3.152   6.189   7.406
 2670TIP3    H229646   3.147   6.268   7.281
 2671TIP3   OH229647   2.441   6.054   7.040
 2671TIP3    H129648   2.447   6.139   6.993
 2671TIP3    H229649   2.396   6.000   6.971
 2672TIP3   OH229650   3.180   6.083   6.937
 2672TIP3    H129651   3.228   6.062   7.019
 2672TIP3    H229652   3.221   6.165   6.910
 2673TIP3   OH229653   2.063   6.294   7.133
 2673TIP3    H129654   2.137   6.279   7.194
 2673TIP3    H229655   2.098   6.249   7.053
 2674TIP3   OH229656   2.557   6.488   7.057
 2674TIP3    H129657   2.630   6.430   7.089
 2674TIP3    H229658   2.499   6.424   7.010
 2675TIP3   OH229659   3.660   6.112   7.607
 2675TIP3    H129660   3.627   6.192   7.560
 2675TIP3    H229661   3.672   6.148   7.697
 2676TIP3   OH229662   2.331   5.982   7.479
 2676TIP3    H129663   2.289   6.019   7.398
 2676TIP3    H229664   2.268   6.011   7.548
 2677TIP3   OH229665   3.041   6.932   6.834
 2677TIP3    H129666   3.007   6.924   6.743
 2677TIP3    H229667   3.006   7.017   6.865
 2678TIP3   OH229668   2.594   6.752   7.549
 2678TIP3    H129669   2.506   6.752   7.506
 2678TIP3    H229670   2.645   6.785   7.471
 2679TIP3   OH229671   3.394   6.091   7.160
 2679TIP3    H129672   3.453   6.014   7.164
 2679TIP3    H229673   3.445   6.156   7.214
 2680TIP3   OH229674   2.270   6.152   7.265
 2680TIP3    H129675   2.332   6.212   7.313
 2680TIP3    H229676   2.326   6.121   7.191
 2681TIP3   OH229677   2.408   6.966   7.583
 2681TIP3    H129678   2.394   6.921   7.498
 2681TIP3    H229679   2.329   6.929   7.632
 2682TIP3   OH229680   2.000   6.938   6.670
 2682TIP3    H129681   1.965   6.976   6.587
 2682TIP3    H229682   2.052   7.011   6.706
 2683TIP3   OH229683   3.375   7.100   7.391
 2683TIP3    H129684   3.277   7.105   7.397
 2683TIP3    H229685   3.391   7.161   7.317
 2684TIP3   OH229686   3.359   5.905   7.455
 2684TIP3    H129687   3.283   5.940   7.402
 2684TIP3    H229688   3.435   5.938   7.402
 2685TIP3   OH229689   2.638   5.691   7.175
 2685TIP3    H129690   2.628   5.603   7.215
 2685TIP3    H229691   2.565   5.739   7.222
 2686TIP3   OH229692   3.223   7.254   6.936
 2686TIP3    H129693   3.252   7.169   6.895
 2686TIP3    H229694   3.309   7.289   6.966
 2687TIP3   OH229695   3.321   7.011   6.850
 2687TIP3    H129696   3.327   6.951   6.772
 2687TIP3    H229697   3.279   6.952   6.916
 2688TIP3   OH229698   3.457   6.894   7.724
 2688TIP3    H129699   3.469   6.823   7.656
 2688TIP3    H229700   3.474   6.973   7.669
 2689TIP3   OH229701   2.952   6.582   6.650
 2689TIP3    H129702   2.884   6.651   6.649
 2689TIP3    H229703   2.956   6.565   6.554
 2690TIP3   OH229704   3.673   6.551   7.483
 2690TIP3    H129705   3.614   6.626   7.503
 2690TIP3    H229706   3.733   6.593   7.418
 2691TIP3   OH229707   3.315   6.597   6.780
 2691TIP3    H129708   3.242   6.623   6.840
 2691TIP3    H229709   3.379   6.557   6.842
 2692TIP3   OH229710   3.325   6.462   7.678
 2692TIP3    H129711   3.302   6.549   7.713
 2692TIP3    H229712   3.249   6.450   7.618
 2693TIP3   OH229713   2.460   6.709   6.958
 2693TIP3    H129714   2.419   6.675   6.875
 2693TIP3    H229715   2.494   6.624   6.996
 2694TIP3   OH229716   2.582   7.004   7.211
 2694TIP3    H129717   2.636   6.973   7.137
 2694TIP3    H229718   2.633   6.973   7.288
 2695TIP3   OH229719   2.534   6.504   7.317
 2695TIP3    H129720   2.522   6.518   7.220
 2695TIP3    H229721   2.488   6.586   7.347
 2696TIP3   OH229722   3.107   7.122   7.400
 2696TIP3    H129723   3.053   7.193   7.436
 2696TIP3    H229724   3.070   7.042   7.442
 2697TIP3   OH229725   2.576   6.995   7.810
 2697TIP3    H129726   2.505   7.044   7.856
 2697TIP3    H229727   2.531   6.973   7.724
 2698TIP3   OH229728   3.229   6.513   6.526
 2698TIP3    H129729   3.249   6.551   6.614
 2698TIP3    H229730   3.175   6.584   6.488
 2699TIP3   OH229731   2.280   6.577   7.687
 2699TIP3    H129732   2.306   6.656   7.736
 2699TIP3    H229733   2.203   6.555   7.741
 2700TIP3   OH229734   2.941   7.206   7.010
 2700TIP3    H129735   3.021   7.244   6.971
 2700TIP3    H229736   2.887   7.189   6.933
 2701TIP3   OH229737   2.387   7.174   7.886
 2701TIP3    H129738   2.388   7.215   7.797
 2701TIP3    H229739   2.302   7.123   7.886
 2702TIP3   OH229740   2.361   6.553   6.734
 2702TIP3    H129741   2.405   6.555   6.646
 2702TIP3    H229742   2.294   6.485   6.719
 2703TIP3   OH229743   1.948   6.818   7.634
 2703TIP3    H129744   1.956   6.796   7.539
 2703TIP3    H229745   1.943   6.728   7.675
 2704TIP3   OH229746   1.961   7.070   7.302
 2704TIP3    H129747   2.040   7.013   7.305
 2704TIP3    H229748   1.979   7.133   7.372
 2705TIP3   OH229749   3.716   7.198   7.872
 2705TIP3    H129750   3.716   7.127   7.806
 2705TIP3    H229751   3.630   7.184   7.915
 2706TIP3   OH229752   2.818   7.103   7.741
 2706TIP3    H129753   2.845   7.133   7.829
 2706TIP3    H229754   2.736   7.053   7.761
 2707TIP3   OH229755   3.435   6.297   7.901
 2707TIP3    H129756   3.377   6.338   7.832
 2707TIP3    H229757   3.439   6.205   7.867
 2708TIP3   OH229758   2.182   6.931   7.715
 2708TIP3    H129759   2.182   6.873   7.793
 2708TIP3    H229760   2.094   6.914   7.677
 2709TIP3   OH229761   2.450   5.820   7.310
 2709TIP3    H129762   2.358   5.807   7.276
 2709TIP3    H229763   2.427   5.874   7.388
 2710TIP3   OH229764   2.937   5.747   7.629
 2710TIP3    H129765   2.980   5.706   7.708
 2710TIP3    H229766   2.843   5.750   7.655
 2711TIP3   OH229767   3.185   6.178   7.753
 2711TIP3    H129768   3.124   6.152   7.827
 2711TIP3    H229769   3.126   6.237   7.703
 2712TIP3   OH229770   2.873   5.958   6.439
 2712TIP3    H129771   2.806   5.963   6.510
 2712TIP3    H229772   2.832   6.010   6.369
 2713TIP3   OH229773   2.466   6.269   7.432
 2713TIP3    H129774   2.382   6.298   7.474
 2713TIP3    H229775   2.504   6.356   7.404
 2714TIP3   OH229776   2.401   6.308   6.943
 2714TIP3    H129777   2.311   6.278   6.919
 2714TIP3    H229778   2.451   6.292   6.861
 2715TIP3   OH229779   2.990   6.393   6.837
 2715TIP3    H129780   2.966   6.464   6.774
 2715TIP3    H229781   3.058   6.349   6.785
 2716TIP3   OH229782   2.903   6.386   7.943
 2716TIP3    H129783   2.858   6.310   7.983
 2716TIP3    H229784   2.987   6.384   7.993
 2717TIP3   OH229785   3.134   6.332   7.103
 2717TIP3    H129786   3.097   6.417   7.071
 2717TIP3    H229787   3.097   6.272   7.038
 2718TIP3   OH229788   2.217   6.291   7.542
 2718TIP3    H129789   2.245   6.328   7.627
 2718TIP3    H229790   2.171   6.211   7.571
 2719TIP3   OH229791   2.503   5.971   6.299
 2719TIP3    H129792   2.484   5.927   6.385
 2719TIP3    H229793   2.513   6.063   6.331
 2720TIP3   OH229794   1.887   6.037   7.045
 2720TIP3    H129795   1.951   6.024   7.118
 2720TIP3    H229796   1.944   6.065   6.972
 2721TIP3   OH229797   1.988   6.118   6.560
 2721TIP3    H129798   2.063   6.128   6.501
 2721TIP3    H229799   1.914   6.119   6.498
 2722TIP3   OH229800   3.009   6.474   7.517
 2722TIP3    H129801   3.071   6.415   7.468
 2722TIP3    H229802   2.965   6.408   7.576
 2723TIP3   OH229803   2.738   6.024   7.021
 2723TIP3    H129804   2.642   6.001   7.028
 2723TIP3    H229805   2.771   6.003   7.108
 2724TIP3   OH229806   2.166   6.170   6.914
 2724TIP3    H129807   2.100   6.200   6.848
 2724TIP3    H229808   2.202   6.089   6.873
 2725TIP3   OH229809   2.530   6.230   6.719
 2725TIP3    H129810   2.621   6.230   6.686
 2725TIP3    H229811   2.487   6.275   6.642
 2726TIP3   OH229812   3.129   5.992   7.341
 2726TIP3    H129813   3.057   5.975   7.404
 2726TIP3    H229814   3.124   5.917   7.279
 2727TIP3   OH229815   2.225   6.768   7.936
 2727TIP3    H129816   2.290   6.809   7.996
 2727TIP3    H229817   2.141   6.774   7.987
 2728TIP3   OH229818   2.765   6.332   7.157
 2728TIP3    H129819   2.857   6.303   7.171
 2728TIP3    H229820   2.714   6.272   7.213
 2729TIP3   OH229821   2.289   5.924   6.865
 2729TIP3    H129822   2.233   5.868   6.922
 2729TIP3    H229823   2.318   5.859   6.799
 2730TIP3   OH229824   2.697   6.138   7.437
 2730TIP3    H129825   2.612   6.187   7.427
 2730TIP3    H229826   2.751   6.202   7.488
 2731TIP3   OH229827   2.748   6.789   6.624
 2731TIP3    H129828   2.679   6.736   6.581
 2731TIP3    H229829   2.707   6.825   6.707
 2732TIP3   OH229830   3.496   6.752   7.511
 2732TIP3    H129831   3.539   6.809   7.441
 2732TIP3    H229832   3.410   6.737   7.469
 2733TIP3   OH229833   2.950   6.847   7.772
 2733TIP3    H129834   2.889   6.774   7.790
 2733TIP3    H229835   2.894   6.925   7.783
 2734TIP3   OH229836   3.244   6.257   6.616
 2734TIP3    H129837   3.313   6.282   6.679
 2734TIP3    H229838   3.236   6.338   6.561
 2735TIP3   OH229839   2.214   6.684   7.091
 2735TIP3    H129840   2.293   6.711   7.041
 2735TIP3    H229841   2.245   6.699   7.182
 2736TIP3   OH229842   2.954   6.948   6.556
 2736TIP3    H129843   2.907   7.028   6.587
 2736TIP3    H229844   2.884   6.879   6.562
 2737TIP3   OH229845   1.928   6.565   7.745
 2737TIP3    H129846   1.936   6.490   7.807
 2737TIP3    H229847   1.904   6.523   7.660
 2738TIP3   OH229848   2.671   6.524   7.895
 2738TIP3    H129849   2.616   6.462   7.845
 2738TIP3    H229850   2.757   6.477   7.902
 2739TIP3   OH229851   3.138   7.098   7.738
 2739TIP3    H129852   3.053   7.066   7.706
 2739TIP3    H229853   3.115   7.114   7.832
 2740TIP3   OH229854   3.703   6.890   7.846
 2740TIP3    H129855   3.605   6.895   7.841
 2740TIP3    H229856   3.725   6.887   7.751
 2741TIP3   OH229857   3.573   7.116   6.592
 2741TIP3    H129858   3.495   7.130   6.648
 2741TIP3    H229859   3.560   7.179   6.518
 2742TIP3   OH229860   3.260   6.650   7.319
 2742TIP3    H129861   3.174   6.610   7.300
 2742TIP3    H229862   3.319   6.601   7.258
 2743TIP3   OH229863   2.500   7.102   6.916
 2743TIP3    H129864   2.488   7.182   6.860
 2743TIP3    H229865   2.413   7.090   6.954
 2744TIP3   OH229866   2.657   6.874   6.867
 2744TIP3    H129867   2.607   6.956   6.886
 2744TIP3    H229868   2.606   6.806   6.916
 2745TIP3   OH229869   2.700   7.195   7.505
 2745TIP3    H129870   2.719   7.290   7.509
 2745TIP3    H229871   2.748   7.163   7.585
 2746TIP3   OH229872   2.465  -0.004   6.803
 2746TIP3    H129873   2.405   0.011   6.877
 2746TIP3    H229874   2.543   0.042   6.841
 2747TIP3   OH229875   3.003   6.853   7.490
 2747TIP3    H129876   3.006   6.836   7.587
 2747TIP3    H229877   3.029   6.767   7.453
 2748TIP3   OH229878   3.286   6.958   6.419
 2748TIP3    H129879   3.309   6.896   6.491
 2748TIP3    H229880   3.206   6.997   6.456
 2749TIP3   OH229881   3.321   7.297   7.730
 2749TIP3    H129882   3.244   7.236   7.718
 2749TIP3    H229883   3.290   7.382   7.694
 2750TIP3   OH229884   2.155   6.060   7.691
 2750TIP3    H129885   2.084   6.099   7.748
 2750TIP3    H229886   2.144   5.965   7.713
 2751TIP3   OH229887   3.353   6.833   6.646
 2751TIP3    H129888   3.354   6.744   6.688
 2751TIP3    H229889   3.449   6.850   6.636
 2752TIP3   OH229890   2.091   7.210   7.548
 2752TIP3    H129891   2.152   7.193   7.621
 2752TIP3    H229892   2.061   7.303   7.560
 2753TIP3   OH229893   3.005   6.006   7.594
 2753TIP3    H129894   3.082   6.018   7.651
 2753TIP3    H229895   2.978   5.914   7.614
 2754TIP3   OH229896   3.065   5.959   6.695
 2754TIP3    H129897   3.049   6.012   6.615
 2754TIP3    H229898   3.137   6.007   6.737
 2755TIP3   OH229899   2.827   7.167   6.698
 2755TIP3    H129900   2.757   7.220   6.740
 2755TIP3    H229901   2.820   7.196   6.604
 2756TIP3   OH229902   2.842   6.149   6.804
 2756TIP3    H129903   2.878   6.237   6.827
 2756TIP3    H229904   2.815   6.115   6.892
 2757TIP3   OH229905   2.918   6.262   7.672
 2757TIP3    H129906   2.906   6.276   7.768
 2757TIP3    H229907   2.931   6.165   7.663
 2758TIP3   OH229908   2.891   5.831   6.852
 2758TIP3    H129909   2.842   5.908   6.884
 2758TIP3    H229910   2.967   5.875   6.805
 2759TIP3   OH229911   2.442   5.979   6.565
 2759TIP3    H129912   2.439   6.065   6.609
 2759TIP3    H229913   2.528   5.945   6.598
 2760TIP3   OH229914   3.454   6.058   7.773
 2760TIP3    H129915   3.358   6.074   7.771
 2760TIP3    H229916   3.479   6.065   7.679
 2761TIP3   OH229917   3.367   6.455   7.164
 2761TIP3    H129918   3.289   6.394   7.164
 2761TIP3    H229919   3.435   6.402   7.211
 2762TIP3   OH229920   2.192   5.759   7.261
 2762TIP3    H129921   2.186   5.743   7.164
 2762TIP3    H229922   2.166   5.671   7.295
 2763TIP3   OH229923   2.070   7.144   6.889
 2763TIP3    H129924   1.976   7.132   6.909
 2763TIP3    H229925   2.061   7.175   6.796
 2764TIP3   OH229926   2.496   7.237   8.200
 2764TIP3    H129927   2.567   7.301   8.181
 2764TIP3    H229928   2.472   7.204   8.111
 2765TIP3   OH229929   2.812   7.227   6.420
 2765TIP3    H129930   2.737   7.266   6.372
 2765TIP3    H229931   2.889   7.241   6.364
 2766TIP3   OH229932   3.082   7.166   8.007
 2766TIP3    H129933   3.058   7.077   8.042
 2766TIP3    H229934   3.171   7.173   8.049
 2767TIP3   OH229935   3.454   7.129   6.280
 2767TIP3    H129936   3.398   7.073   6.335
 2767TIP3    H229937   3.448   7.216   6.327
 2768TIP3   OH229938   1.971   6.783   8.048
 2768TIP3    H129939   1.925   6.698   8.049
 2768TIP3    H229940   1.925   6.832   7.975
 2769TIP3   OH229941   2.666   6.779   7.958
 2769TIP3    H129942   2.632   6.842   7.892
 2769TIP3    H229943   2.663   6.691   7.912
 2770TIP3   OH229944   3.217   6.771   7.737
 2770TIP3    H129945   3.297   6.828   7.742
 2770TIP3    H229946   3.148   6.827   7.777
 2771TIP3   OH229947   2.086   6.489   8.011
 2771TIP3    H129948   2.167   6.438   8.021
 2771TIP3    H229949   2.106   6.566   8.068
 2772TIP3   OH229950   2.498   6.418   7.713
 2772TIP3    H129951   2.428   6.485   7.698
 2772TIP3    H229952   2.562   6.447   7.644
 2773TIP3   OH229953   3.012   6.681   8.080
 2773TIP3    H129954   3.075   6.627   8.028
 2773TIP3    H229955   2.965   6.615   8.133
 2774TIP3   OH229956   2.573   6.184   7.811
 2774TIP3    H129957   2.578   6.121   7.736
 2774TIP3    H229958   2.549   6.267   7.764
 2775TIP3   OH229959   2.574   5.968   7.598
 2775TIP3    H129960   2.624   6.014   7.526
 2775TIP3    H229961   2.482   5.980   7.565
 2776TIP3   OH229962   2.723   6.526   7.593
 2776TIP3    H129963   2.813   6.549   7.567
 2776TIP3    H229964   2.676   6.611   7.576
 2777TIP3   OH229965   3.115   6.327   8.129
 2777TIP3    H129966   3.122   6.239   8.170
 2777TIP3    H229967   3.208   6.352   8.121
 2778TIP3   OH229968   3.294   6.625   7.962
 2778TIP3    H129969   3.260   6.677   7.886
 2778TIP3    H229970   3.387   6.617   7.934
 2779TIP3   OH229971   2.392   6.265   8.027
 2779TIP3    H129972   2.313   6.218   7.995
 2779TIP3    H229973   2.457   6.253   7.955
 2780TIP3   OH229974   2.662   5.720   7.632
 2780TIP3    H129975   2.634   5.815   7.630
 2780TIP3    H229976   2.588   5.680   7.585
 2781TIP3   OH229977   2.758   6.151   8.029
 2781TIP3    H129978   2.693   6.139   8.101
 2781TIP3    H229979   2.700   6.142   7.951
 2782TIP3   OH229980   3.007   6.095   7.935
 2782TIP3    H129981   2.913   6.096   7.966
 2782TIP3    H229982   3.046   6.034   8.002
 2783TIP3   OH229983   3.132   5.918   8.101
 2783TIP3    H129984   3.182   5.834   8.109
 2783TIP3    H229985   3.161   5.968   8.180
 2784TIP3   OH229986   2.171   6.093   8.025
 2784TIP3    H129987   2.179   6.012   7.970
 2784TIP3    H229988   2.157   6.053   8.114
 2785TIP3   OH229989   2.617   5.666   7.898
 2785TIP3    H129990   2.701   5.617   7.904
 2785TIP3    H229991   2.613   5.675   7.801
 2786TIP3   OH229992   2.641   5.788   8.166
 2786TIP3    H129993   2.628   5.750   8.077
 2786TIP3    H229994   2.627   5.882   8.148
 2787TIP3   OH229995   1.927   7.383   7.067
 2787TIP3    H129996   1.902   7.299   7.109
 2787TIP3    H229997   2.004   7.410   7.119
 2788TIP3   OH229998   3.540   6.926   8.146
 2788TIP3    H129999   3.450   6.940   8.184
 2788TIP3    H230000   3.581   7.014   8.163
 2789TIP3   OH230001   3.636   6.730   6.644
 2789TIP3    H130002   3.706   6.798   6.639
 2789TIP3    H230003   3.641   6.703   6.739
 2790TIP3   OH230004   3.692   6.601   6.876
 2790TIP3    H130005   3.614   6.551   6.906
 2790TIP3    H230006   3.748   6.603   6.957
 2791TIP3   OH230007   3.648   6.868   7.330
 2791TIP3    H130008   3.711   6.798   7.302
 2791TIP3    H230009   3.694   6.949   7.303
 2792TIP3   OH230010   3.533   7.160   7.611
 2792TIP3    H130011   3.450   7.201   7.641
 2792TIP3    H230012   3.507   7.138   7.518
 2793TIP3   OH230013   3.725   6.560   6.422
 2793TIP3    H130014   3.703   6.637   6.366
 2793TIP3    H230015   3.708   6.595   6.512
 2794TIP3   OH230016   3.488   6.432   6.927
 2794TIP3    H130017   3.464   6.339   6.902
 2794TIP3    H230018   3.445   6.439   7.016
 2795TIP3   OH230019   1.958   6.672   7.318
 2795TIP3    H130020   1.938   6.635   7.229
 2795TIP3    H230021   2.050   6.637   7.326
 2796TIP3   OH230022   3.580   6.632   7.894
 2796TIP3    H130023   3.628   6.547   7.880
 2796TIP3    H230024   3.641   6.695   7.851
 2797TIP3   OH230025   3.691   6.372   7.920
 2797TIP3    H130026   3.597   6.343   7.917
 2797TIP3    H230027   3.741   6.286   7.920
 2798TIP3   OH230028   3.442   6.196   6.817
 2798TIP3    H130029   3.450   6.099   6.818
 2798TIP3    H230030   3.510   6.218   6.753
 2799TIP3   OH230031   3.533   6.281   7.291
 2799TIP3    H130032   3.632   6.276   7.303
 2799TIP3    H230033   3.506   6.279   7.385
 2800TIP3   OH230034   3.524   6.326   7.554
 2800TIP3    H130035   3.447   6.360   7.604
 2800TIP3    H230036   3.563   6.411   7.524
 2801TIP3   OH230037   1.953   6.145   7.893
 2801TIP3    H130038   2.028   6.146   7.956
 2801TIP3    H230039   1.905   6.064   7.923
 2802TIP3   OH230040   3.722   5.756   8.086
 2802TIP3    H130041   3.773   5.687   8.038
 2802TIP3    H230042   3.716   5.824   8.014
 2803TIP3   OH230043   3.533   5.942   6.739
 2803TIP3    H130044   3.546   5.912   6.832
 2803TIP3    H230045   3.475   5.872   6.704
 2804TIP3   OH230046   2.037   5.981   7.287
 2804TIP3    H130047   2.091   5.898   7.277
 2804TIP3    H230048   2.106   6.050   7.281
 2805TIP3   OH230049   1.885   6.302   7.330
 2805TIP3    H130050   1.937   6.274   7.251
 2805TIP3    H230051   1.943   6.369   7.367
 2806TIP3   OH230052   3.665   5.965   7.937
 2806TIP3    H130053   3.591   5.994   7.995
 2806TIP3    H230054   3.617   5.936   7.857
 2807TIP3   OH230055   1.936   5.961   6.777
 2807TIP3    H130056   1.841   5.945   6.764
 2807TIP3    H230057   1.954   6.027   6.707
 2808TIP3   OH230058   1.911   5.778   7.569
 2808TIP3    H130059   1.845   5.740   7.631
 2808TIP3    H230060   1.866   5.856   7.533
 2809TIP3   OH230061   2.136   7.089   7.954
 2809TIP3    H130062   2.056   7.142   7.939
 2809TIP3    H230063   2.130   7.066   8.048
 2810TIP3   OH230064   2.437   7.245   7.621
 2810TIP3    H130065   2.378   7.230   7.546
 2810TIP3    H230066   2.507   7.181   7.598
 2811TIP3   OH230067   3.571   5.719   7.744
 2811TIP3    H130068   3.491   5.762   7.709
 2811TIP3    H230069   3.570   5.633   7.699
 2812TIP3   OH230070   2.315   7.275   7.088
 2812TIP3    H130071   2.283   7.185   7.103
 2812TIP3    H230072   2.379   7.284   7.162
 2813TIP3   OH230073   2.496   7.264   7.296
 2813TIP3    H130074   2.487   7.174   7.259
 2813TIP3    H230075   2.568   7.244   7.360
 2814TIP3   OH230076   2.877   5.802   7.200
 2814TIP3    H130077   2.788   5.760   7.192
 2814TIP3    H230078   2.905   5.811   7.108
 2815TIP3   OH230079   3.442   5.684   7.167
 2815TIP3    H130080   3.498   5.746   7.115
 2815TIP3    H230081   3.352   5.705   7.133
 2816TIP3   OH230082   3.587   5.822   6.988
 2816TIP3    H130083   3.637   5.749   6.943
 2816TIP3    H230084   3.659   5.886   7.008
 2817TIP3   OH230085   2.150   5.718   6.973
 2817TIP3    H130086   2.071   5.719   6.916
 2817TIP3    H230087   2.191   5.632   6.948
 2818TIP3   OH230088   2.026   5.712   6.561
 2818TIP3    H130089   2.075   5.767   6.497
 2818TIP3    H230090   1.974   5.775   6.612
 2819TIP3   OH230091   2.589   5.742   6.914
 2819TIP3    H130092   2.669   5.723   6.863
 2819TIP3    H230093   2.622   5.734   7.006
 2820TIP3   OH230094   3.188   5.747   7.085
 2820TIP3    H130095   3.184   5.747   6.988
 2820TIP3    H230096   3.124   5.674   7.107
 2821TIP3   OH230097   3.387   5.694   6.628
 2821TIP3    H130098   3.350   5.717   6.540
 2821TIP3    H230099   3.308   5.658   6.672
 2822TIP3   OH230100   1.981   7.225   6.644
 2822TIP3    H130101   1.951   7.199   6.556
 2822TIP3    H230102   1.961   7.321   6.644
 2823TIP3   OH230103   2.161   5.874   6.394
 2823TIP3    H130104   2.217   5.821   6.336
 2823TIP3    H230105   2.228   5.920   6.446
 2824TIP3   OH230106   2.706   5.966   6.650
 2824TIP3    H130107   2.739   5.892   6.702
 2824TIP3    H230108   2.757   6.040   6.691
 2825TIP3   OH230109   2.119   5.810   7.877
 2825TIP3    H130110   2.071   5.725   7.886
 2825TIP3    H230111   2.194   5.795   7.939
 2826TIP3   OH230112   2.318   5.742   8.064
 2826TIP3    H130113   2.397   5.696   8.032
 2826TIP3    H230114   2.279   5.672   8.121
 2827TIP3   OH230115   3.177   5.659   8.112
 2827TIP3    H130116   3.188   5.619   8.201
 2827TIP3    H230117   3.264   5.635   8.072
 2828TIP3   OH230118   3.460   7.273   7.959
 2828TIP3    H130119   3.409   7.259   7.876
 2828TIP3    H230120   3.524   7.339   7.929
 2829TIP3   OH230121   4.981   6.666   6.928
 2829TIP3    H130122   4.969   6.763   6.925
 2829TIP3    H230123   4.903   6.643   6.874
 2830TIP3   OH230124   4.861   6.552   7.294
 2830TIP3    H130125   4.882   6.511   7.381
 2830TIP3    H230126   4.807   6.481   7.254
 2831TIP3   OH230127   4.057   6.557   7.408
 2831TIP3    H130128   4.060   6.480   7.468
 2831TIP3    H230129   4.109   6.622   7.459
 2832TIP3   OH230130   5.179   6.885   7.161
 2832TIP3    H130131   5.184   6.808   7.221
 2832TIP3    H230132   5.176   6.959   7.223
 2833TIP3   OH230133   4.204   6.991   7.319
 2833TIP3    H130134   4.171   6.925   7.254
 2833TIP3    H230135   4.300   6.980   7.305
 2834TIP3   OH230136   3.827   6.343   6.814
 2834TIP3    H130137   3.812   6.439   6.814
 2834TIP3    H230138   3.755   6.315   6.870
 2835TIP3   OH230139   3.860   6.567   7.071
 2835TIP3    H130140   3.897   6.478   7.087
 2835TIP3    H230141   3.939   6.622   7.079
 2836TIP3   OH230142   4.670   6.777   7.350
 2836TIP3    H130143   4.717   6.729   7.280
 2836TIP3    H230144   4.745   6.820   7.395
 2837TIP3   OH230145   5.540   5.957   7.405
 2837TIP3    H130146   5.541   6.024   7.475
 2837TIP3    H230147   5.623   5.981   7.360
 2838TIP3   OH230148   5.046   6.272   7.376
 2838TIP3    H130149   5.034   6.176   7.388
 2838TIP3    H230150   5.043   6.274   7.278
 2839TIP3   OH230151   4.303   6.055   7.039
 2839TIP3    H130152   4.328   6.137   6.993
 2839TIP3    H230153   4.257   6.007   6.968
 2840TIP3   OH230154   5.098   6.096   6.934
 2840TIP3    H130155   5.146   6.054   7.009
 2840TIP3    H230156   5.169   6.149   6.893
 2841TIP3   OH230157   3.981   6.345   7.155
 2841TIP3    H130158   4.048   6.316   7.220
 2841TIP3    H230159   4.009   6.291   7.079
 2842TIP3   OH230160   4.448   6.474   7.095
 2842TIP3    H130161   4.532   6.443   7.131
 2842TIP3    H230162   4.429   6.407   7.025
 2843TIP3   OH230163   5.583   6.153   7.614
 2843TIP3    H130164   5.537   6.228   7.570
 2843TIP3    H230165   5.546   6.157   7.704
 2844TIP3   OH230166   4.226   5.981   7.479
 2844TIP3    H130167   4.181   6.024   7.403
 2844TIP3    H230168   4.170   6.011   7.553
 2845TIP3   OH230169   4.878   6.897   6.833
 2845TIP3    H130170   4.870   6.918   6.739
 2845TIP3    H230171   4.857   6.982   6.875
 2846TIP3   OH230172   4.421   6.723   7.441
 2846TIP3    H130173   4.370   6.799   7.476
 2846TIP3    H230174   4.502   6.765   7.405
 2847TIP3   OH230175   5.250   6.006   7.132
 2847TIP3    H130176   5.234   5.936   7.195
 2847TIP3    H230177   5.340   6.033   7.153
 2848TIP3   OH230178   4.162   6.167   7.278
 2848TIP3    H130179   4.229   6.225   7.323
 2848TIP3    H230180   4.213   6.136   7.200
 2849TIP3   OH230181   4.282   6.913   7.562
 2849TIP3    H130182   4.238   6.946   7.480
 2849TIP3    H230183   4.204   6.900   7.621
 2850TIP3   OH230184   3.880   6.932   6.645
 2850TIP3    H130185   3.877   6.982   6.563
 2850TIP3    H230186   3.924   6.991   6.707
 2851TIP3   OH230187   5.284   7.081   7.379
 2851TIP3    H130188   5.191   7.110   7.397
 2851TIP3    H230189   5.315   7.153   7.322
 2852TIP3   OH230190   5.262   5.951   7.492
 2852TIP3    H130191   5.219   6.020   7.439
 2852TIP3    H230192   5.347   5.939   7.445
 2853TIP3   OH230193   4.545   5.701   7.224
 2853TIP3    H130194   4.500   5.616   7.240
 2853TIP3    H230195   4.469   5.760   7.250
 2854TIP3   OH230196   5.051   7.181   6.935
 2854TIP3    H130197   5.109   7.103   6.916
 2854TIP3    H230198   5.121   7.246   6.952
 2855TIP3   OH230199   5.230   6.993   6.888
 2855TIP3    H130200   5.246   6.938   6.809
 2855TIP3    H230201   5.216   6.925   6.958
 2856TIP3   OH230202   5.364   6.924   7.720
 2856TIP3    H130203   5.363   6.852   7.653
 2856TIP3    H230204   5.401   6.997   7.667
 2857TIP3   OH230205   4.830   6.584   6.700
 2857TIP3    H130206   4.751   6.634   6.672
 2857TIP3    H230207   4.899   6.638   6.657
 2858TIP3   OH230208   5.552   6.559   7.502
 2858TIP3    H130209   5.476   6.621   7.507
 2858TIP3    H230210   5.599   6.596   7.424
 2859TIP3   OH230211   5.211   6.619   6.798
 2859TIP3    H130212   5.135   6.643   6.857
 2859TIP3    H230213   5.260   6.556   6.856
 2860TIP3   OH230214   5.138   6.420   7.719
 2860TIP3    H130215   5.149   6.516   7.722
 2860TIP3    H230216   5.060   6.416   7.660
 2861TIP3   OH230217   4.308   6.664   6.975
 2861TIP3    H130218   4.291   6.627   6.886
 2861TIP3    H230219   4.380   6.606   7.007
 2862TIP3   OH230220   4.465   6.983   7.251
 2862TIP3    H130221   4.459   6.965   7.155
 2862TIP3    H230222   4.546   6.936   7.275
 2863TIP3   OH230223   4.348   6.502   7.334
 2863TIP3    H130224   4.370   6.518   7.239
 2863TIP3    H230225   4.374   6.587   7.376
 2864TIP3   OH230226   5.020   7.134   7.425
 2864TIP3    H130227   4.942   7.190   7.430
 2864TIP3    H230228   4.988   7.048   7.455
 2865TIP3   OH230229   4.439   6.960   7.799
 2865TIP3    H130230   4.380   7.025   7.844
 2865TIP3    H230231   4.386   6.941   7.718
 2866TIP3   OH230232   4.147   6.609   7.697
 2866TIP3    H130233   4.139   6.697   7.738
 2866TIP3    H230234   4.093   6.559   7.761
 2867TIP3   OH230235   4.791   7.227   6.906
 2867TIP3    H130236   4.884   7.196   6.902
 2867TIP3    H230237   4.789   7.285   6.829
 2868TIP3   OH230238   4.281   7.170   7.864
 2868TIP3    H130239   4.282   7.169   7.765
 2868TIP3    H230240   4.193   7.129   7.881
 2869TIP3   OH230241   5.434   5.704   6.572
 2869TIP3    H130242   5.336   5.712   6.565
 2869TIP3    H230243   5.464   5.769   6.507
 2870TIP3   OH230244   4.206   6.573   6.750
 2870TIP3    H130245   4.142   6.644   6.733
 2870TIP3    H230246   4.173   6.500   6.696
 2871TIP3   OH230247   3.853   6.822   7.626
 2871TIP3    H130248   3.819   6.809   7.536
 2871TIP3    H230249   3.859   6.730   7.658
 2872TIP3   OH230250   3.822   7.082   7.285
 2872TIP3    H130251   3.905   7.033   7.281
 2872TIP3    H230252   3.844   7.146   7.356
 2873TIP3   OH230253   5.584   7.197   7.872
 2873TIP3    H130254   5.592   7.125   7.807
 2873TIP3    H230255   5.488   7.190   7.897
 2874TIP3   OH230256   4.659   7.135   7.798
 2874TIP3    H130257   4.699   7.122   7.886
 2874TIP3    H230258   4.593   7.062   7.792
 2875TIP3   OH230259   5.335   6.299   7.901
 2875TIP3    H130260   5.273   6.338   7.836
 2875TIP3    H230261   5.333   6.206   7.870
 2876TIP3   OH230262   4.078   6.922   7.726
 2876TIP3    H130263   4.079   6.875   7.813
 2876TIP3    H230264   3.989   6.899   7.690
 2877TIP3   OH230265   4.335   5.818   7.315
 2877TIP3    H130266   4.245   5.812   7.278
 2877TIP3    H230267   4.317   5.872   7.395
 2878TIP3   OH230268   4.825   5.764   7.623
 2878TIP3    H130269   4.863   5.710   7.696
 2878TIP3    H230270   4.732   5.770   7.649
 2879TIP3   OH230271   5.080   6.136   7.748
 2879TIP3    H130272   5.013   6.104   7.815
 2879TIP3    H230273   5.098   6.227   7.778
 2880TIP3   OH230274   4.748   6.073   6.330
 2880TIP3    H130275   4.713   6.036   6.414
 2880TIP3    H230276   4.787   5.994   6.292
 2881TIP3   OH230277   4.353   6.268   7.442
 2881TIP3    H130278   4.271   6.284   7.494
 2881TIP3    H230279   4.366   6.359   7.406
 2882TIP3   OH230280   4.345   6.294   6.901
 2882TIP3    H130281   4.258   6.335   6.894
 2882TIP3    H230282   4.365   6.267   6.809
 2883TIP3   OH230283   4.897   6.327   6.791
 2883TIP3    H130284   4.858   6.416   6.789
 2883TIP3    H230285   4.990   6.347   6.783
 2884TIP3   OH230286   4.785   6.381   7.946
 2884TIP3    H130287   4.744   6.300   7.982
 2884TIP3    H230288   4.872   6.378   7.991
 2885TIP3   OH230289   5.018   6.339   7.099
 2885TIP3    H130290   4.982   6.421   7.060
 2885TIP3    H230291   4.996   6.270   7.034
 2886TIP3   OH230292   4.092   6.298   7.546
 2886TIP3    H130293   4.128   6.317   7.633
 2886TIP3    H230294   4.047   6.212   7.563
 2887TIP3   OH230295   3.769   6.028   7.032
 2887TIP3    H130296   3.828   6.028   7.110
 2887TIP3    H230297   3.822   6.068   6.962
 2888TIP3   OH230298   4.920   6.444   7.530
 2888TIP3    H130299   4.970   6.374   7.482
 2888TIP3    H230300   4.851   6.393   7.580
 2889TIP3   OH230301   4.637   6.047   7.050
 2889TIP3    H130302   4.544   6.021   7.052
 2889TIP3    H230303   4.680   5.984   7.112
 2890TIP3   OH230304   4.044   6.191   6.934
 2890TIP3    H130305   3.988   6.215   6.858
 2890TIP3    H230306   4.099   6.120   6.893
 2891TIP3   OH230307   5.011   5.985   7.349
 2891TIP3    H130308   4.945   5.953   7.413
 2891TIP3    H230309   4.986   5.940   7.267
 2892TIP3   OH230310   4.119   6.782   7.954
 2892TIP3    H130311   4.183   6.791   8.029
 2892TIP3    H230312   4.034   6.773   8.001
 2893TIP3   OH230313   4.723   6.312   7.233
 2893TIP3    H130314   4.775   6.270   7.162
 2893TIP3    H230315   4.666   6.238   7.261
 2894TIP3   OH230316   4.159   5.983   6.798
 2894TIP3    H130317   4.204   5.898   6.787
 2894TIP3    H230318   4.188   6.023   6.712
 2895TIP3   OH230319   4.584   6.129   7.428
 2895TIP3    H130320   4.505   6.185   7.419
 2895TIP3    H230321   4.644   6.187   7.479
 2896TIP3   OH230322   5.380   6.762   7.513
 2896TIP3    H130323   5.435   6.821   7.457
 2896TIP3    H230324   5.296   6.760   7.463
 2897TIP3   OH230325   4.804   6.849   7.767
 2897TIP3    H130326   4.755   6.773   7.802
 2897TIP3    H230327   4.751   6.924   7.796
 2898TIP3   OH230328   4.136   6.750   7.154
 2898TIP3    H130329   4.189   6.749   7.070
 2898TIP3    H230330   4.171   6.670   7.196
 2899TIP3   OH230331   3.827   6.563   7.735
 2899TIP3    H130332   3.829   6.503   7.813
 2899TIP3    H230333   3.792   6.506   7.665
 2900TIP3   OH230334   4.544   6.509   7.900
 2900TIP3    H130335   4.502   6.445   7.842
 2900TIP3    H230336   4.636   6.473   7.902
 2901TIP3   OH230337   5.015   7.090   7.746
 2901TIP3    H130338   4.927   7.066   7.717
 2901TIP3    H230339   4.995   7.116   7.838
 2902TIP3   OH230340   5.613   6.278   6.564
 2902TIP3    H130341   5.554   6.238   6.499
 2902TIP3    H230342   5.597   6.372   6.543
 2903TIP3   OH230343   5.594   6.894   7.856
 2903TIP3    H130344   5.500   6.921   7.843
 2903TIP3    H230345   5.626   6.886   7.764
 2904TIP3   OH230346   5.378   7.185   6.681
 2904TIP3    H130347   5.416   7.109   6.727
 2904TIP3    H230348   5.396   7.168   6.588
 2905TIP3   OH230349   5.162   6.671   7.322
 2905TIP3    H130350   5.071   6.640   7.315
 2905TIP3    H230351   5.210   6.599   7.277
 2906TIP3   OH230352   3.976   6.635   6.349
 2906TIP3    H130353   3.999   6.649   6.441
 2906TIP3    H230354   3.898   6.578   6.361
 2907TIP3   OH230355   4.566   7.183   7.506
 2907TIP3    H130356   4.603   7.268   7.536
 2907TIP3    H230357   4.595   7.124   7.577
 2908TIP3   OH230358   4.893   6.840   7.494
 2908TIP3    H130359   4.887   6.830   7.591
 2908TIP3    H230360   4.926   6.754   7.464
 2909TIP3   OH230361   5.172   6.802   6.421
 2909TIP3    H130362   5.192   6.844   6.506
 2909TIP3    H230363   5.135   6.878   6.370
 2910TIP3   OH230364   5.191   7.306   7.727
 2910TIP3    H130365   5.128   7.231   7.718
 2910TIP3    H230366   5.147   7.378   7.681
 2911TIP3   OH230367   4.050   6.054   7.691
 2911TIP3    H130368   3.984   6.094   7.750
 2911TIP3    H230369   4.039   5.961   7.715
 2912TIP3   OH230370   5.281   6.843   6.665
 2912TIP3    H130371   5.238   6.759   6.690
 2912TIP3    H230372   5.372   6.812   6.649
 2913TIP3   OH230373   3.964   7.159   7.525
 2913TIP3    H130374   4.037   7.108   7.561
 2913TIP3    H230375   3.989   7.251   7.542
 2914TIP3   OH230376   4.877   6.041   7.601
 2914TIP3    H130377   4.964   6.067   7.634
 2914TIP3    H230378   4.866   5.951   7.635
 2915TIP3   OH230379   4.979   5.979   6.722
 2915TIP3    H130380   5.008   6.052   6.667
 2915TIP3    H230381   5.017   6.006   6.809
 2916TIP3   OH230382   4.795   7.248   6.563
 2916TIP3    H130383   4.716   7.225   6.510
 2916TIP3    H230384   4.862   7.212   6.498
 2917TIP3   OH230385   4.645   6.194   6.768
 2917TIP3    H130386   4.735   6.227   6.784
 2917TIP3    H230387   4.628   6.139   6.846
 2918TIP3   OH230388   4.776   6.281   7.682
 2918TIP3    H130389   4.787   6.292   7.779
 2918TIP3    H230390   4.813   6.192   7.664
 2919TIP3   OH230391   4.740   5.845   6.857
 2919TIP3    H130392   4.728   5.893   6.941
 2919TIP3    H230393   4.822   5.883   6.822
 2920TIP3   OH230394   5.346   6.069   7.780
 2920TIP3    H130395   5.250   6.047   7.781
 2920TIP3    H230396   5.374   6.026   7.698
 2921TIP3   OH230397   5.265   6.433   7.165
 2921TIP3    H130398   5.176   6.393   7.157
 2921TIP3    H230399   5.316   6.356   7.195
 2922TIP3   OH230400   4.016   6.322   6.346
 2922TIP3    H130401   3.974   6.385   6.284
 2922TIP3    H230402   4.005   6.241   6.295
 2923TIP3   OH230403   4.075   5.767   7.252
 2923TIP3    H130404   4.064   5.754   7.154
 2923TIP3    H230405   4.035   5.683   7.283
 2924TIP3   OH230406   4.369   7.281   8.207
 2924TIP3    H130407   4.465   7.271   8.200
 2924TIP3    H230408   4.335   7.221   8.139
 2925TIP3   OH230409   4.727   7.209   6.196
 2925TIP3    H130410   4.663   7.220   6.270
 2925TIP3    H230411   4.810   7.213   6.247
 2926TIP3   OH230412   4.963   7.159   8.016
 2926TIP3    H130413   4.935   7.078   8.064
 2926TIP3    H230414   5.054   7.164   8.051
 2927TIP3   OH230415   3.860   6.802   8.049
 2927TIP3    H130416   3.804   6.724   8.064
 2927TIP3    H230417   3.817   6.845   7.972
 2928TIP3   OH230418   4.544   6.765   7.975
 2928TIP3    H130419   4.517   6.825   7.903
 2928TIP3    H230420   4.524   6.676   7.938
 2929TIP3   OH230421   5.121   6.766   7.747
 2929TIP3    H130422   5.202   6.819   7.761
 2929TIP3    H230423   5.051   6.832   7.762
 2930TIP3   OH230424   3.997   6.521   7.986
 2930TIP3    H130425   4.061   6.461   8.026
 2930TIP3    H230426   3.995   6.589   8.055
 2931TIP3   OH230427   4.341   6.413   7.688
 2931TIP3    H130428   4.277   6.482   7.709
 2931TIP3    H230429   4.408   6.465   7.641
 2932TIP3   OH230430   4.894   6.680   8.074
 2932TIP3    H130431   4.951   6.624   8.018
 2932TIP3    H230432   4.843   6.613   8.124
 2933TIP3   OH230433   4.460   6.195   7.805
 2933TIP3    H130434   4.473   6.127   7.736
 2933TIP3    H230435   4.431   6.271   7.751
 2934TIP3   OH230436   4.459   5.987   7.618
 2934TIP3    H130437   4.506   6.024   7.540
 2934TIP3    H230438   4.367   5.998   7.588
 2935TIP3   OH230439   4.569   6.577   7.607
 2935TIP3    H130440   4.652   6.575   7.556
 2935TIP3    H230441   4.515   6.641   7.557
 2936TIP3   OH230442   4.996   6.328   8.131
 2936TIP3    H130443   5.003   6.243   8.183
 2936TIP3    H230444   5.090   6.350   8.118
 2937TIP3   OH230445   5.180   6.623   7.966
 2937TIP3    H130446   5.136   6.664   7.889
 2937TIP3    H230447   5.272   6.626   7.935
 2938TIP3   OH230448   4.279   6.236   8.027
 2938TIP3    H130449   4.193   6.194   8.001
 2938TIP3    H230450   4.331   6.228   7.944
 2939TIP3   OH230451   4.543   5.729   7.613
 2939TIP3    H130452   4.521   5.824   7.626
 2939TIP3    H230453   4.457   5.694   7.588
 2940TIP3   OH230454   4.651   6.149   8.027
 2940TIP3    H130455   4.583   6.133   8.096
 2940TIP3    H230456   4.595   6.146   7.948
 2941TIP3   OH230457   4.899   6.088   7.931
 2941TIP3    H130458   4.807   6.084   7.961
 2941TIP3    H230459   4.941   6.032   8.001
 2942TIP3   OH230460   5.014   5.924   8.096
 2942TIP3    H130461   5.063   5.841   8.110
 2942TIP3    H230462   5.040   5.979   8.173
 2943TIP3   OH230463   4.063   6.079   8.003
 2943TIP3    H130464   4.053   5.994   7.955
 2943TIP3    H230465   4.053   6.048   8.096
 2944TIP3   OH230466   4.502   5.686   7.876
 2944TIP3    H130467   4.582   5.634   7.888
 2944TIP3    H230468   4.505   5.697   7.778
 2945TIP3   OH230469   4.530   5.792   8.165
 2945TIP3    H130470   4.506   5.753   8.078
 2945TIP3    H230471   4.526   5.886   8.140
 2946TIP3   OH230472   3.797   7.322   7.097
 2946TIP3    H130473   3.727   7.262   7.065
 2946TIP3    H230474   3.820   7.277   7.180
 2947TIP3   OH230475   5.414   6.932   8.141
 2947TIP3    H130476   5.336   6.939   8.200
 2947TIP3    H230477   5.458   7.017   8.162
 2948TIP3   OH230478   5.548   6.754   6.652
 2948TIP3    H130479   5.631   6.805   6.657
 2948TIP3    H230480   5.555   6.695   6.731
 2949TIP3   OH230481   5.566   6.578   6.856
 2949TIP3    H130482   5.486   6.532   6.886
 2949TIP3    H230483   5.620   6.582   6.938
 2950TIP3   OH230484   5.570   6.886   7.371
 2950TIP3    H130485   5.618   6.807   7.341
 2950TIP3    H230486   5.598   6.953   7.305
 2951TIP3   OH230487   5.423   7.171   7.595
 2951TIP3    H130488   5.338   7.207   7.625
 2951TIP3    H230489   5.397   7.138   7.506
 2952TIP3   OH230490   5.443   6.305   6.327
 2952TIP3    H130491   5.518   6.365   6.309
 2952TIP3    H230492   5.369   6.363   6.301
 2953TIP3   OH230493   5.362   6.413   6.914
 2953TIP3    H130494   5.345   6.320   6.890
 2953TIP3    H230495   5.338   6.417   7.008
 2954TIP3   OH230496   3.837   6.670   7.316
 2954TIP3    H130497   3.824   6.626   7.230
 2954TIP3    H230498   3.932   6.648   7.334
 2955TIP3   OH230499   5.458   6.649   7.887
 2955TIP3    H130500   5.521   6.574   7.883
 2955TIP3    H230501   5.516   6.727   7.886
 2956TIP3   OH230502   5.567   6.415   7.966
 2956TIP3    H130503   5.491   6.366   7.930
 2956TIP3    H230504   5.640   6.349   7.968
 2957TIP3   OH230505   5.307   6.188   6.776
 2957TIP3    H130506   5.326   6.092   6.785
 2957TIP3    H230507   5.382   6.216   6.721
 2958TIP3   OH230508   5.402   6.209   7.298
 2958TIP3    H130509   5.496   6.239   7.305
 2958TIP3    H230510   5.365   6.252   7.377
 2959TIP3   OH230511   5.377   6.347   7.539
 2959TIP3    H130512   5.287   6.378   7.558
 2959TIP3    H230513   5.433   6.428   7.540
 2960TIP3   OH230514   3.840   6.159   7.899
 2960TIP3    H130515   3.918   6.152   7.958
 2960TIP3    H230516   3.796   6.072   7.913
 2961TIP3   OH230517   5.616   5.750   8.085
 2961TIP3    H130518   5.659   5.676   8.036
 2961TIP3    H230519   5.606   5.814   8.012
 2962TIP3   OH230520   5.349   5.927   6.784
 2962TIP3    H130521   5.395   5.900   6.867
 2962TIP3    H230522   5.306   5.846   6.756
 2963TIP3   OH230523   3.940   6.001   7.264
 2963TIP3    H130524   3.985   5.914   7.264
 2963TIP3    H230525   4.016   6.062   7.264
 2964TIP3   OH230526   3.787   6.298   7.332
 2964TIP3    H130527   3.852   6.280   7.261
 2964TIP3    H230528   3.813   6.387   7.359
 2965TIP3   OH230529   5.558   5.958   7.927
 2965TIP3    H130530   5.481   5.988   7.978
 2965TIP3    H230531   5.510   5.911   7.854
 2966TIP3   OH230532   5.624   5.893   6.427
 2966TIP3    H130533   5.652   5.833   6.354
 2966TIP3    H230534   5.591   5.968   6.376
 2967TIP3   OH230535   3.800   5.941   6.748
 2967TIP3    H130536   3.704   5.933   6.735
 2967TIP3    H230537   3.837   5.868   6.695
 2968TIP3   OH230538   3.786   5.782   7.552
 2968TIP3    H130539   3.722   5.741   7.613
 2968TIP3    H230540   3.737   5.854   7.512
 2969TIP3   OH230541   4.037   7.139   7.958
 2969TIP3    H130542   3.949   7.156   7.922
 2969TIP3    H230543   4.023   7.060   8.013
 2970TIP3   OH230544   4.317   7.206   7.600
 2970TIP3    H130545   4.269   7.254   7.532
 2970TIP3    H230546   4.400   7.186   7.551
 2971TIP3   OH230547   5.398   5.787   7.780
 2971TIP3    H130548   5.325   5.817   7.725
 2971TIP3    H230549   5.439   5.724   7.716
 2972TIP3   OH230550   4.386   7.279   7.285
 2972TIP3    H130551   4.348   7.208   7.229
 2972TIP3    H230552   4.448   7.225   7.338
 2973TIP3   OH230553   4.765   5.829   7.156
 2973TIP3    H130554   4.688   5.777   7.188
 2973TIP3    H230555   4.838   5.766   7.164
 2974TIP3   OH230556   5.347   5.673   7.170
 2974TIP3    H130557   5.402   5.745   7.134
 2974TIP3    H230558   5.257   5.703   7.146
 2975TIP3   OH230559   5.485   5.834   7.004
 2975TIP3    H130560   5.538   5.759   6.969
 2975TIP3    H230561   5.552   5.907   7.003
 2976TIP3   OH230562   4.016   5.703   6.990
 2976TIP3    H130563   3.975   5.749   6.916
 2976TIP3    H230564   4.072   5.639   6.943
 2977TIP3   OH230565   3.912   5.763   6.523
 2977TIP3    H130566   3.971   5.761   6.446
 2977TIP3    H230567   3.871   5.675   6.519
 2978TIP3   OH230568   4.495   5.715   6.949
 2978TIP3    H130569   4.572   5.742   6.896
 2978TIP3    H230570   4.529   5.724   7.040
 2979TIP3   OH230571   5.080   5.738   7.079
 2979TIP3    H130572   5.073   5.757   6.985
 2979TIP3    H230573   5.024   5.659   7.087
 2980TIP3   OH230574   5.170   5.725   6.588
 2980TIP3    H130575   5.099   5.785   6.611
 2980TIP3    H230576   5.144   5.646   6.641
 2981TIP3   OH230577   3.883  -0.022   6.677
 2981TIP3    H130578   3.874  -0.074   6.597
 2981TIP3    H230579   3.901   0.066   6.638
 2982TIP3   OH230580   4.638   5.995   6.568
 2982TIP3    H130581   4.580   5.930   6.609
 2982TIP3    H230582   4.636   6.066   6.636
 2983TIP3   OH230583   4.007   5.807   7.875
 2983TIP3    H130584   3.956   5.724   7.885
 2983TIP3    H230585   4.082   5.790   7.936
 2984TIP3   OH230586   4.208   5.745   8.065
 2984TIP3    H130587   4.284   5.689   8.039
 2984TIP3    H230588   4.157   5.680   8.118
 2985TIP3   OH230589   5.056   5.660   8.112
 2985TIP3    H130590   5.078   5.615   8.197
 2985TIP3    H230591   5.142   5.652   8.065
 2986TIP3   OH230592   5.344   7.273   7.946
 2986TIP3    H130593   5.277   7.264   7.875
 2986TIP3    H230594   5.398   7.345   7.910
 2987TIP3   OH230595   6.826   6.656   6.930
 2987TIP3    H130596   6.812   6.751   6.915
 2987TIP3    H230597   6.781   6.619   6.852
 2988TIP3   OH230598   6.699   6.569   7.285
 2988TIP3    H130599   6.724   6.513   7.362
 2988TIP3    H230600   6.662   6.506   7.221
 2989TIP3   OH230601   5.940   6.568   7.384
 2989TIP3    H130602   5.968   6.481   7.417
 2989TIP3    H230603   5.970   6.626   7.457
 2990TIP3   OH230604   7.100   6.866   7.119
 2990TIP3    H130605   7.085   6.791   7.178
 2990TIP3    H230606   7.112   6.938   7.183
 2991TIP3   OH230607   6.085   7.007   7.248
 2991TIP3    H130608   6.057   6.913   7.237
 2991TIP3    H230609   6.182   6.991   7.246
 2992TIP3   OH230610   5.739   6.334   6.809
 2992TIP3    H130611   5.696   6.420   6.826
 2992TIP3    H230612   5.688   6.304   6.731
 2993TIP3   OH230613   5.744   6.586   7.062
 2993TIP3    H130614   5.768   6.491   7.075
 2993TIP3    H230615   5.833   6.625   7.054
 2994TIP3   OH230616   6.548   6.815   7.340
 2994TIP3    H130617   6.573   6.743   7.281
 2994TIP3    H230618   6.630   6.825   7.392
 2995TIP3   OH230619   6.919   6.278   7.383
 2995TIP3    H130620   6.934   6.186   7.413
 2995TIP3    H230621   6.916   6.266   7.287
 2996TIP3   OH230622   6.206   6.049   7.047
 2996TIP3    H130623   6.215   6.137   7.005
 2996TIP3    H230624   6.151   6.006   6.978
 2997TIP3   OH230625   6.971   6.071   6.911
 2997TIP3    H130626   7.036   6.078   6.983
 2997TIP3    H230627   6.987   6.152   6.858
 2998TIP3   OH230628   5.855   6.363   7.140
 2998TIP3    H130629   5.916   6.327   7.206
 2998TIP3    H230630   5.872   6.306   7.063
 2999TIP3   OH230631   6.349   6.485   7.106
 2999TIP3    H130632   6.437   6.452   7.129
 2999TIP3    H230633   6.325   6.417   7.040
 3000TIP3   OH230634   6.097   5.966   7.466
 3000TIP3    H130635   6.060   6.023   7.395
 3000TIP3    H230636   6.015   5.941   7.514
 3001TIP3   OH230637   6.790   6.907   6.837
 3001TIP3    H130638   6.781   6.890   6.740
 3001TIP3    H230639   6.762   6.999   6.840
 3002TIP3   OH230640   6.292   6.731   7.433
 3002TIP3    H130641   6.243   6.804   7.478
 3002TIP3    H230642   6.373   6.776   7.401
 3003TIP3   OH230643   7.120   6.038   7.135
 3003TIP3    H130644   7.038   6.014   7.182
 3003TIP3    H230645   7.171   6.078   7.210
 3004TIP3   OH230646   6.056   6.167   7.262
 3004TIP3    H130647   6.119   6.232   7.298
 3004TIP3    H230648   6.108   6.128   7.189
 3005TIP3   OH230649   6.171   6.933   7.565
 3005TIP3    H130650   6.166   7.028   7.544
 3005TIP3    H230651   6.086   6.921   7.614
 3006TIP3   OH230652   5.774   6.924   6.645
 3006TIP3    H130653   5.784   6.949   6.551
 3006TIP3    H230654   5.826   6.991   6.695
 3007TIP3   OH230655   7.145   7.074   7.342
 3007TIP3    H130656   7.056   7.106   7.365
 3007TIP3    H230657   7.179   7.146   7.286
 3008TIP3   OH230658   7.188   5.927   7.445
 3008TIP3    H130659   7.094   5.933   7.421
 3008TIP3    H230660   7.217   6.016   7.416
 3009TIP3   OH230661   6.453   5.705   7.201
 3009TIP3    H130662   6.419   5.616   7.222
 3009TIP3    H230663   6.377   5.759   7.234
 3010TIP3   OH230664   6.997   7.188   7.050
 3010TIP3    H130665   7.020   7.114   6.991
 3010TIP3    H230666   7.031   7.259   6.993
 3011TIP3   OH230667   7.098   7.010   6.868
 3011TIP3    H130668   7.092   6.945   6.795
 3011TIP3    H230669   7.117   6.952   6.944
 3012TIP3   OH230670   7.192   6.899   7.709
 3012TIP3    H130671   7.235   6.831   7.654
 3012TIP3    H230672   7.235   6.981   7.677
 3013TIP3   OH230673   6.718   6.590   6.687
 3013TIP3    H130674   6.647   6.633   6.635
 3013TIP3    H230675   6.793   6.594   6.624
 3014TIP3   OH230676   6.711   6.439   6.425
 3014TIP3    H130677   6.787   6.492   6.455
 3014TIP3    H230678   6.753   6.389   6.354
 3015TIP3   OH230679   7.059   6.613   6.782
 3015TIP3    H130680   6.988   6.639   6.845
 3015TIP3    H230681   7.113   6.549   6.832
 3016TIP3   OH230682   7.018   6.419   7.698
 3016TIP3    H130683   7.045   6.512   7.711
 3016TIP3    H230684   6.944   6.435   7.637
 3017TIP3   OH230685   6.201   6.676   6.980
 3017TIP3    H130686   6.182   6.653   6.887
 3017TIP3    H230687   6.259   6.603   7.008
 3018TIP3   OH230688   6.343   6.986   7.215
 3018TIP3    H130689   6.372   6.962   7.126
 3018TIP3    H230690   6.407   6.942   7.273
 3019TIP3   OH230691   6.221   6.499   7.336
 3019TIP3    H130692   6.262   6.509   7.247
 3019TIP3    H230693   6.249   6.585   7.375
 3020TIP3   OH230694   6.890   7.121   7.421
 3020TIP3    H130695   6.909   7.164   7.507
 3020TIP3    H230696   6.871   7.030   7.451
 3021TIP3   OH230697   6.328   6.988   7.797
 3021TIP3    H130698   6.260   7.033   7.850
 3021TIP3    H230699   6.280   6.975   7.712
 3022TIP3   OH230700   6.955   6.523   6.551
 3022TIP3    H130701   7.009   6.559   6.626
 3022TIP3    H230702   6.979   6.581   6.475
 3023TIP3   OH230703   6.020   6.616   7.659
 3023TIP3    H130704   6.051   6.702   7.693
 3023TIP3    H230705   5.946   6.601   7.720
 3024TIP3   OH230706   6.668   7.246   6.940
 3024TIP3    H130707   6.670   7.342   6.953
 3024TIP3    H230708   6.652   7.244   6.844
 3025TIP3   OH230709   6.148   7.183   7.878
 3025TIP3    H130710   6.148   7.182   7.780
 3025TIP3    H230711   6.059   7.147   7.900
 3026TIP3   OH230712   6.111   6.550   6.734
 3026TIP3    H130713   6.069   6.629   6.692
 3026TIP3    H230714   6.035   6.492   6.742
 3027TIP3   OH230715   5.739   6.807   7.651
 3027TIP3    H130716   5.703   6.809   7.561
 3027TIP3    H230717   5.742   6.710   7.669
 3028TIP3   OH230718   5.723   7.085   7.268
 3028TIP3    H130719   5.806   7.035   7.273
 3028TIP3    H230720   5.734   7.141   7.347
 3029TIP3   OH230721   6.596   7.106   7.721
 3029TIP3    H130722   6.635   7.159   7.792
 3029TIP3    H230723   6.515   7.067   7.760
 3030TIP3   OH230724   7.166   6.272   7.939
 3030TIP3    H130725   7.158   6.273   7.842
 3030TIP3    H230726   7.264   6.259   7.949
 3031TIP3   OH230727   5.964   6.937   7.731
 3031TIP3    H130728   5.976   6.900   7.821
 3031TIP3    H230729   5.883   6.892   7.699
 3032TIP3   OH230730   6.228   5.820   7.286
 3032TIP3    H130731   6.139   5.803   7.248
 3032TIP3    H230732   6.208   5.894   7.346
 3033TIP3   OH230733   6.688   5.749   7.633
 3033TIP3    H130734   6.745   5.700   7.697
 3033TIP3    H230735   6.600   5.739   7.673
 3034TIP3   OH230736   6.998   6.140   7.710
 3034TIP3    H130737   6.958   6.122   7.797
 3034TIP3    H230738   7.006   6.237   7.713
 3035TIP3   OH230739   6.988   6.656   6.329
 3035TIP3    H130740   6.975   6.635   6.235
 3035TIP3    H230741   7.085   6.679   6.328
 3036TIP3   OH230742   6.647   5.985   6.446
 3036TIP3    H130743   6.576   5.940   6.495
 3036TIP3    H230744   6.597   6.043   6.387
 3037TIP3   OH230745   6.217   6.272   7.461
 3037TIP3    H130746   6.135   6.311   7.495
 3037TIP3    H230747   6.251   6.351   7.412
 3038TIP3   OH230748   6.227   6.277   6.914
 3038TIP3    H130749   6.129   6.283   6.901
 3038TIP3    H230750   6.258   6.266   6.822
 3039TIP3   OH230751   6.783   6.348   6.803
 3039TIP3    H130752   6.753   6.436   6.767
 3039TIP3    H230753   6.830   6.310   6.725
 3040TIP3   OH230754   6.660   6.394   7.930
 3040TIP3    H130755   6.623   6.314   7.977
 3040TIP3    H230756   6.746   6.405   7.974
 3041TIP3   OH230757   6.906   6.300   7.081
 3041TIP3    H130758   6.860   6.375   7.038
 3041TIP3    H230759   6.891   6.234   7.011
 3042TIP3   OH230760   5.928   6.325   7.580
 3042TIP3    H130761   5.951   6.410   7.622
 3042TIP3    H230762   5.836   6.308   7.608
 3043TIP3   OH230763   5.697   6.014   7.011
 3043TIP3    H130764   5.769   6.014   7.075
 3043TIP3    H230765   5.738   5.988   6.926
 3044TIP3   OH230766   6.781   6.471   7.524
 3044TIP3    H130767   6.845   6.408   7.484
 3044TIP3    H230768   6.715   6.413   7.564
 3045TIP3   OH230769   6.488   6.059   7.027
 3045TIP3    H130770   6.394   6.031   7.025
 3045TIP3    H230771   6.487   6.104   7.113
 3046TIP3   OH230772   5.971   6.221   6.897
 3046TIP3    H130773   5.880   6.231   6.862
 3046TIP3    H230774   5.995   6.128   6.878
 3047TIP3   OH230775   6.314   6.237   6.635
 3047TIP3    H130776   6.401   6.203   6.664
 3047TIP3    H230777   6.340   6.310   6.576
 3048TIP3   OH230778   6.913   5.978   7.327
 3048TIP3    H130779   6.852   5.969   7.403
 3048TIP3    H230780   6.853   5.938   7.259
 3049TIP3   OH230781   5.991   6.794   7.955
 3049TIP3    H130782   6.058   6.793   8.027
 3049TIP3    H230783   5.909   6.777   8.007
 3050TIP3   OH230784   6.585   6.305   7.198
 3050TIP3    H130785   6.672   6.268   7.180
 3050TIP3    H230786   6.538   6.234   7.245
 3051TIP3   OH230787   6.039   5.966   6.854
 3051TIP3    H130788   5.995   5.886   6.893
 3051TIP3    H230789   6.068   5.932   6.767
 3052TIP3   OH230790   6.455   6.137   7.442
 3052TIP3    H130791   6.379   6.199   7.444
 3052TIP3    H230792   6.524   6.185   7.492
 3053TIP3   OH230793   6.506   6.810   6.626
 3053TIP3    H130794   6.439   6.743   6.595
 3053TIP3    H230795   6.486   6.813   6.722
 3054TIP3   OH230796   7.228   6.700   7.516
 3054TIP3    H130797   7.282   6.692   7.433
 3054TIP3    H230798   7.137   6.708   7.480
 3055TIP3   OH230799   6.718   6.852   7.796
 3055TIP3    H130800   6.657   6.780   7.818
 3055TIP3    H230801   6.660   6.929   7.784
 3056TIP3   OH230802   6.944   6.260   6.605
 3056TIP3    H130803   7.030   6.258   6.651
 3056TIP3    H230804   6.950   6.346   6.558
 3057TIP3   OH230805   6.035   6.739   7.191
 3057TIP3    H130806   6.107   6.716   7.127
 3057TIP3    H230807   6.033   6.662   7.251
 3058TIP3   OH230808   6.751   6.894   6.567
 3058TIP3    H130809   6.740   6.937   6.482
 3058TIP3    H230810   6.658   6.867   6.587
 3059TIP3   OH230811   5.724   6.547   7.723
 3059TIP3    H130812   5.706   6.497   7.804
 3059TIP3    H230813   5.646   6.528   7.668
 3060TIP3   OH230814   6.417   6.508   7.903
 3060TIP3    H130815   6.379   6.452   7.833
 3060TIP3    H230816   6.511   6.479   7.903
 3061TIP3   OH230817   6.895   7.117   7.729
 3061TIP3    H130818   6.818   7.060   7.717
 3061TIP3    H230819   6.892   7.126   7.827
 3062TIP3   OH230820   7.268   7.134   6.594
 3062TIP3    H130821   7.248   7.088   6.677
 3062TIP3    H230822   7.214   7.079   6.531
 3063TIP3   OH230823   7.011   6.662   7.337
 3063TIP3    H130824   6.923   6.637   7.307
 3063TIP3    H230825   7.064   6.595   7.289
 3064TIP3   OH230826   6.272   7.093   6.935
 3064TIP3    H130827   6.264   7.168   6.875
 3064TIP3    H230828   6.180   7.082   6.962
 3065TIP3   OH230829   6.441   6.843   6.884
 3065TIP3    H130830   6.398   6.926   6.857
 3065TIP3    H230831   6.369   6.797   6.930
 3066TIP3   OH230832   6.461   7.177   7.498
 3066TIP3    H130833   6.491   7.269   7.512
 3066TIP3    H230834   6.512   7.134   7.570
 3067TIP3   OH230835   6.223  -0.012   6.758
 3067TIP3    H130836   6.145  -0.001   6.814
 3067TIP3    H230837   6.290   0.037   6.812
 3068TIP3   OH230838   6.771   6.849   7.496
 3068TIP3    H130839   6.778   6.847   7.593
 3068TIP3    H230840   6.807   6.761   7.474
 3069TIP3   OH230841   7.041   7.039   6.487
 3069TIP3    H130842   7.040   6.969   6.557
 3069TIP3    H230843   6.977   6.999   6.427
 3070TIP3   OH230844   7.100   7.298   7.701
 3070TIP3    H130845   7.018   7.244   7.708
 3070TIP3    H230846   7.064   7.387   7.707
 3071TIP3   OH230847   5.869   6.024   7.624
 3071TIP3    H130848   5.786   6.076   7.613
 3071TIP3    H230849   5.836   5.949   7.677
 3072TIP3   OH230850   7.107   6.829   6.646
 3072TIP3    H130851   7.083   6.750   6.701
 3072TIP3    H230852   7.156   6.787   6.573
 3073TIP3   OH230853   5.867   7.171   7.491
 3073TIP3    H130854   5.932   7.115   7.536
 3073TIP3    H230855   5.871   7.254   7.543
 3074TIP3   OH230856   6.321   7.039   6.536
 3074TIP3    H130857   6.382   6.964   6.544
 3074TIP3    H230858   6.380   7.114   6.544
 3075TIP3   OH230859   6.012   6.753   6.591
 3075TIP3    H130860   5.931   6.807   6.595
 3075TIP3    H230861   6.048   6.779   6.505
 3076TIP3   OH230862   6.742   6.034   7.610
 3076TIP3    H130863   6.830   6.056   7.646
 3076TIP3    H230864   6.731   5.939   7.634
 3077TIP3   OH230865   6.844   5.938   6.710
 3077TIP3    H130866   6.840   6.015   6.651
 3077TIP3    H230867   6.914   5.964   6.773
 3078TIP3   OH230868   6.648   7.285   6.581
 3078TIP3    H130869   6.561   7.326   6.568
 3078TIP3    H230870   6.646   7.232   6.499
 3079TIP3   OH230871   6.550   6.148   6.768
 3079TIP3    H130872   6.625   6.209   6.781
 3079TIP3    H230873   6.525   6.125   6.860
 3080TIP3   OH230874   6.618   6.269   7.692
 3080TIP3    H130875   6.648   6.306   7.778
 3080TIP3    H230876   6.665   6.183   7.687
 3081TIP3   OH230877   6.623   5.829   6.842
 3081TIP3    H130878   6.597   5.902   6.901
 3081TIP3    H230879   6.705   5.868   6.804
 3082TIP3   OH230880   6.381  -0.009   6.543
 3082TIP3    H130881   6.386   0.088   6.532
 3082TIP3    H230882   6.324  -0.016   6.623
 3083TIP3   OH230883   6.186   5.976   6.600
 3083TIP3    H130884   6.212   6.070   6.608
 3083TIP3    H230885   6.276   5.936   6.594
 3084TIP3   OH230886   7.263   5.993   7.773
 3084TIP3    H130887   7.169   6.018   7.780
 3084TIP3    H230888   7.291   6.051   7.700
 3085TIP3   OH230889   7.123   6.460   7.174
 3085TIP3    H130890   7.045   6.412   7.140
 3085TIP3    H230891   7.166   6.388   7.223
 3086TIP3   OH230892   5.969   5.779   7.236
 3086TIP3    H130893   5.961   5.755   7.141
 3086TIP3    H230894   5.946   5.691   7.277
 3087TIP3   OH230895   5.907   7.105   6.803
 3087TIP3    H130896   5.854   7.095   6.882
 3087TIP3    H230897   5.872   7.190   6.769
 3088TIP3   OH230898   6.259   7.242   8.192
 3088TIP3    H130899   6.342   7.283   8.164
 3088TIP3    H230900   6.236   7.185   8.118
 3089TIP3   OH230901   6.600   7.107   6.361
 3089TIP3    H130902   6.508   7.086   6.336
 3089TIP3    H230903   6.633   7.135   6.274
 3090TIP3   OH230904   6.859   7.153   8.019
 3090TIP3    H130905   6.834   7.070   8.067
 3090TIP3    H230906   6.953   7.157   8.046
 3091TIP3   OH230907   7.177   7.225   6.312
 3091TIP3    H130908   7.114   7.168   6.360
 3091TIP3    H230909   7.224   7.154   6.265
 3092TIP3   OH230910   5.741   6.783   8.055
 3092TIP3    H130911   5.682   6.708   8.068
 3092TIP3    H230912   5.695   6.838   7.986
 3093TIP3   OH230913   6.413   6.771   7.957
 3093TIP3    H130914   6.374   6.827   7.886
 3093TIP3    H230915   6.410   6.679   7.922
 3094TIP3   OH230916   6.971   6.752   7.740
 3094TIP3    H130917   7.045   6.819   7.744
 3094TIP3    H230918   6.892   6.805   7.762
 3095TIP3   OH230919   5.912   6.502   7.980
 3095TIP3    H130920   5.969   6.441   8.027
 3095TIP3    H230921   5.907   6.575   8.045
 3096TIP3   OH230922   6.318   6.640   6.557
 3096TIP3    H130923   6.246   6.601   6.609
 3096TIP3    H230924   6.338   6.574   6.487
 3097TIP3   OH230925   6.210   6.415   7.698
 3097TIP3    H130926   6.151   6.487   7.726
 3097TIP3    H230927   6.281   6.466   7.652
 3098TIP3   OH230928   6.426   6.458   6.379
 3098TIP3    H130929   6.403   6.494   6.290
 3098TIP3    H230930   6.523   6.464   6.375
 3099TIP3   OH230931   6.743   6.670   8.093
 3099TIP3    H130932   6.820   6.646   8.036
 3099TIP3    H230933   6.728   6.586   8.139
 3100TIP3   OH230934   6.340   6.153   7.815
 3100TIP3    H130935   6.366   6.074   7.763
 3100TIP3    H230936   6.401   6.222   7.783
 3101TIP3   OH230937   6.328   5.967   7.607
 3101TIP3    H130938   6.373   6.012   7.532
 3101TIP3    H230939   6.244   5.938   7.564
 3102TIP3   OH230940   6.424   6.557   7.597
 3102TIP3    H130941   6.516   6.578   7.576
 3102TIP3    H230942   6.374   6.623   7.544
 3103TIP3   OH230943   6.964   6.308   8.139
 3103TIP3    H130944   6.923   6.236   8.090
 3103TIP3    H230945   7.047   6.317   8.088
 3104TIP3   OH230946   6.994   6.633   7.988
 3104TIP3    H130947   7.003   6.690   7.908
 3104TIP3    H230948   7.069   6.572   7.976
 3105TIP3   OH230949   6.134   6.259   8.057
 3105TIP3    H130950   6.068   6.199   8.015
 3105TIP3    H230951   6.205   6.267   7.992
 3106TIP3   OH230952   6.409   5.717   7.657
 3106TIP3    H130953   6.385   5.811   7.642
 3106TIP3    H230954   6.359   5.674   7.585
 3107TIP3   OH230955   6.532   6.172   8.028
 3107TIP3    H130956   6.490   6.147   8.112
 3107TIP3    H230957   6.471   6.132   7.964
 3108TIP3   OH230958   6.820   6.091   7.916
 3108TIP3    H130959   6.733   6.059   7.944
 3108TIP3    H230960   6.879   6.031   7.968
 3109TIP3   OH230961   6.976   5.933   8.057
 3109TIP3    H130962   6.963   5.836   8.071
 3109TIP3    H230963   6.960   5.969   8.148
 3110TIP3   OH230964   5.946   6.069   8.008
 3110TIP3    H130965   5.914   5.986   7.967
 3110TIP3    H230966   5.936   6.044   8.104
 3111TIP3   OH230967   6.420   5.680   7.932
 3111TIP3    H130968   6.496   5.620   7.918
 3111TIP3    H230969   6.403   5.698   7.837
 3112TIP3   OH230970   6.395   5.802   8.186
 3112TIP3    H130971   6.395   5.751   8.102
 3112TIP3    H230972   6.366   5.889   8.153
 3113TIP3   OH230973   5.720   7.372   7.097
 3113TIP3    H130974   5.676   7.286   7.085
 3113TIP3    H230975   5.702   7.386   7.191
 3114TIP3   OH230976   7.245   6.903   8.139
 3114TIP3    H130977   7.157   6.904   8.181
 3114TIP3    H230978   7.290   6.966   8.198
 3115TIP3   OH230979   7.295   7.128   7.585
 3115TIP3    H130980   7.226   7.186   7.624
 3115TIP3    H230981   7.256   7.106   7.499
 3116TIP3   OH230982   7.256   6.455   6.918
 3116TIP3    H130983   7.209   6.371   6.918
 3116TIP3    H230984   7.240   6.488   7.009
 3117TIP3   OH230985   5.706   6.656   7.314
 3117TIP3    H130986   5.702   6.630   7.220
 3117TIP3    H230987   5.799   6.629   7.334
 3118TIP3   OH230988  -0.033   6.559   7.908
 3118TIP3    H130989   0.058   6.533   7.935
 3118TIP3    H230990  -0.018   6.637   7.853
 3119TIP3   OH230991   7.167   6.204   6.753
 3119TIP3    H130992   7.216   6.146   6.814
 3119TIP3    H230993   7.228   6.196   6.677
 3120TIP3   OH230994   7.233   6.171   7.341
 3120TIP3    H130995   7.319   6.185   7.301
 3120TIP3    H230996   7.236   6.239   7.411
 3121TIP3   OH230997   7.269   6.319   7.634
 3121TIP3    H130998   7.182   6.356   7.657
 3121TIP3    H230999   7.288   6.364   7.550
 3122TIP3   OH231000   5.722   6.181   7.934
 3122TIP3    H131001   5.808   6.149   7.971
 3122TIP3    H231002   5.668   6.099   7.938
 3123TIP3   OH231003   7.171   5.884   6.735
 3123TIP3    H131004   7.266   5.868   6.718
 3123TIP3    H231005   7.128   5.809   6.690
 3124TIP3   OH231006   5.828   6.002   7.301
 3124TIP3    H131007   5.866   5.911   7.294
 3124TIP3    H231008   5.901   6.059   7.268
 3125TIP3   OH231009   5.645   6.315   7.323
 3125TIP3    H131010   5.706   6.266   7.265
 3125TIP3    H231011   5.679   6.405   7.317
 3126TIP3   OH231012   5.697   5.953   6.732
 3126TIP3    H131013   5.604   5.957   6.758
 3126TIP3    H231014   5.685   5.925   6.639
 3127TIP3   OH231015   5.709   5.766   7.548
 3127TIP3    H131016   5.640   5.695   7.555
 3127TIP3    H231017   5.659   5.831   7.495
 3128TIP3   OH231018   5.900   7.097   7.951
 3128TIP3    H131019   5.841   7.051   7.890
 3128TIP3    H231020   5.917   7.027   8.016
 3129TIP3   OH231021   6.210   7.206   7.597
 3129TIP3    H131022   6.175   7.266   7.530
 3129TIP3    H231023   6.303   7.191   7.566
 3130TIP3   OH231024   6.054   7.250   7.070
 3130TIP3    H131025   6.045   7.163   7.113
 3130TIP3    H231026   6.128   7.287   7.121
 3131TIP3   OH231027   6.273   7.247   7.295
 3131TIP3    H131028   6.248   7.165   7.247
 3131TIP3    H231029   6.329   7.206   7.365
 3132TIP3   OH231030   6.728   5.859   7.172
 3132TIP3    H131031   6.631   5.847   7.178
 3132TIP3    H231032   6.755   5.778   7.128
 3133TIP3   OH231033   7.223   5.665   7.194
 3133TIP3    H131034   7.220   5.706   7.282
 3133TIP3    H231035   7.128   5.660   7.170
 3134TIP3   OH231036   5.916   5.736   6.943
 3134TIP3    H131037   5.825   5.726   6.909
 3134TIP3    H231038   5.954   5.647   6.925
 3135TIP3   OH231039   6.368   5.694   6.913
 3135TIP3    H131040   6.440   5.739   6.868
 3135TIP3    H231041   6.395   5.703   7.006
 3136TIP3   OH231042   6.970   5.702   7.068
 3136TIP3    H131043   6.934   5.677   6.982
 3136TIP3    H231044   6.917   5.637   7.121
 3137TIP3   OH231045   5.784   7.320   6.694
 3137TIP3    H131046   5.794   7.379   6.615
 3137TIP3    H231047   5.774   7.391   6.761
 3138TIP3   OH231048   6.457   5.931   6.642
 3138TIP3    H131049   6.522   5.884   6.697
 3138TIP3    H231050   6.485   6.022   6.666
 3139TIP3   OH231051   5.877   5.808   7.880
 3139TIP3    H131052   5.835   5.721   7.886
 3139TIP3    H231053   5.961   5.792   7.927
 3140TIP3   OH231054   6.104   5.750   8.063
 3140TIP3    H131055   6.190   5.708   8.048
 3140TIP3    H231056   6.055   5.676   8.103
 3141TIP3   OH231057   6.972   5.672   8.095
 3141TIP3    H131058   6.965   5.636   8.185
 3141TIP3    H231059   7.055   5.634   8.061
 3142TIP3   OH231060   7.232   7.310   7.934
 3142TIP3    H131061   7.203   7.269   7.850
 3142TIP3    H231062   7.286   7.383   7.902
 3143TIP3   OH231063   1.049   0.789   8.242
 3143TIP3    H131064   1.127   0.823   8.291
 3143TIP3    H231065   1.089   0.711   8.201
 3144TIP3   OH231066   1.273   0.888   8.360
 3144TIP3    H131067   1.253   0.938   8.441
 3144TIP3    H231068   1.336   0.947   8.311
 3145TIP3   OH231069   1.647   0.072   8.404
 3145TIP3    H131070   1.564   0.061   8.454
 3145TIP3    H231071   1.661   0.169   8.399
 3146TIP3   OH231072   1.750   1.503   8.254
 3146TIP3    H131073   1.773   1.598   8.252
 3146TIP3    H231074   1.834   1.466   8.284
 3147TIP3   OH231075   1.361   1.733   8.327
 3147TIP3    H131076   1.380   1.669   8.254
 3147TIP3    H231077   1.399   1.682   8.402
 3148TIP3   OH231078   1.459   1.039   8.263
 3148TIP3    H131079   1.426   1.058   8.172
 3148TIP3    H231080   1.552   1.021   8.240
 3149TIP3   OH231081   1.004   0.363   8.234
 3149TIP3    H131082   0.979   0.399   8.320
 3149TIP3    H231083   0.961   0.276   8.238
 3150TIP3   OH231084   0.629   0.415   8.177
 3150TIP3    H131085   0.562   0.390   8.244
 3150TIP3    H231086   0.592   0.497   8.140
 3151TIP3   OH231087   0.099   0.474   8.402
 3151TIP3    H131088   0.147   0.516   8.477
 3151TIP3    H231089   0.025   0.428   8.449
 3152TIP3   OH231090   0.543   0.735   8.292
 3152TIP3    H131091   0.504   0.664   8.239
 3152TIP3    H231092   0.632   0.739   8.251
 3153TIP3   OH231093   1.258   0.428   8.363
 3153TIP3    H131094   1.163   0.443   8.354
 3153TIP3    H231095   1.290   0.508   8.409
 3154TIP3   OH231096   1.328   0.653   8.473
 3154TIP3    H131097   1.415   0.656   8.516
 3154TIP3    H231098   1.335   0.726   8.408
 3155TIP3   OH231099   1.071   1.296   8.418
 3155TIP3    H131100   1.019   1.378   8.426
 3155TIP3    H231101   1.011   1.229   8.451
 3156TIP3   OH231102   1.825   0.646   8.438
 3156TIP3    H131103   1.755   0.626   8.371
 3156TIP3    H231104   1.851   0.734   8.406
 3157TIP3   OH231105   0.174   0.917   8.276
 3157TIP3    H131106   0.231   0.962   8.343
 3157TIP3    H231107   0.148   0.994   8.221
 3158TIP3   OH231108   1.426   1.313   8.303
 3158TIP3    H131109   1.397   1.349   8.388
 3158TIP3    H231110   1.343   1.278   8.267
 3159TIP3   OH231111   1.816   1.755   8.305
 3159TIP3    H131112   1.894   1.813   8.302
 3159TIP3    H231113   1.760   1.802   8.370
 3160TIP3   OH231114   0.831   1.427   8.109
 3160TIP3    H131115   0.790   1.382   8.033
 3160TIP3    H231116   0.784   1.382   8.181
 3161TIP3   OH231117   0.645   1.336   8.391
 3161TIP3    H131118   0.724   1.330   8.448
 3161TIP3    H231119   0.634   1.434   8.394
 3162TIP3   OH231120   0.323   1.073   8.431
 3162TIP3    H131121   0.397   1.066   8.493
 3162TIP3    H231122   0.353   1.149   8.378
 3163TIP3   OH231123   0.904   1.534   8.413
 3163TIP3    H131124   0.812   1.562   8.433
 3163TIP3    H231125   0.940   1.616   8.374
 3164TIP3   OH231126   0.642   1.598   8.457
 3164TIP3    H131127   0.649   1.661   8.382
 3164TIP3    H231128   0.622   1.658   8.530
 3165TIP3   OH231129   0.486   0.364   8.403
 3165TIP3    H131130   0.525   0.441   8.447
 3165TIP3    H231131   0.561   0.301   8.419
 3166TIP3   OH231132   0.385   1.313   8.298
 3166TIP3    H131133   0.451   1.356   8.355
 3166TIP3    H231134   0.444   1.276   8.230
 3167TIP3   OH231135   0.213   0.640   8.212
 3167TIP3    H131136   0.269   0.696   8.268
 3167TIP3    H231137   0.181   0.572   8.275
 3168TIP3   OH231138   1.012   1.633   8.138
 3168TIP3    H131139   0.956   1.551   8.140
 3168TIP3    H231140   1.092   1.598   8.093
 3169TIP3   OH231141   1.442   1.554   8.140
 3169TIP3    H131142   1.466   1.476   8.194
 3169TIP3    H231143   1.521   1.562   8.082
 3170TIP3   OH231144   0.567   1.130   8.138
 3170TIP3    H131145   0.607   1.119   8.225
 3170TIP3    H231146   0.644   1.111   8.080
 3171TIP3   OH231147   1.138   1.306   8.149
 3171TIP3    H131148   1.104   1.297   8.240
 3171TIP3    H231149   1.122   1.214   8.116
 3172TIP3   OH231150   0.680   0.977   8.380
 3172TIP3    H131151   0.601   0.925   8.404
 3172TIP3    H231152   0.709   0.927   8.301
 3173TIP3   OH231153   0.780   0.835   8.177
 3173TIP3    H131154   0.787   0.870   8.085
 3173TIP3    H231155   0.871   0.800   8.190
 3174TIP3   OH231156   1.721   1.023   8.160
 3174TIP3    H131157   1.708   0.991   8.067
 3174TIP3    H231158   1.713   1.121   8.147
 3175TIP3   OH231159   0.779   1.824   8.388
 3175TIP3    H131160   0.876   1.817   8.397
 3175TIP3    H231161   0.770   1.884   8.312
 3176TIP3   OH231162   0.109   1.371   8.278
 3176TIP3    H131163   0.205   1.373   8.292
 3176TIP3    H231164   0.101   1.285   8.233
 3177TIP3   OH231165   1.873   0.909   8.354
 3177TIP3    H131166   1.825   0.943   8.274
 3177TIP3    H231167   1.854   0.980   8.418
 3178TIP3   OH231168   1.665   0.642   8.216
 3178TIP3    H131169   1.690   0.695   8.139
 3178TIP3    H231170   1.641   0.555   8.174
 3179TIP3   OH231171   1.615   0.391   8.157
 3179TIP3    H131172   1.650   0.347   8.238
 3179TIP3    H231173   1.520   0.366   8.156
 3180TIP3   OH231174   1.801   0.271   8.303
 3180TIP3    H131175   1.840   0.199   8.249
 3180TIP3    H231176   1.879   0.322   8.334
 3181TIP3   OH231177   0.190   0.070   8.396
 3181TIP3    H131178   0.207   0.154   8.351
 3181TIP3    H231179   0.181   0.095   8.489
 3182TIP3   OH231180   0.282   0.288   8.252
 3182TIP3    H131181   0.338   0.219   8.212
 3182TIP3    H231182   0.347   0.334   8.308
 3183TIP3   OH231183   1.068   1.756   8.362
 3183TIP3    H131184   1.163   1.778   8.352
 3183TIP3    H231185   1.049   1.727   8.269
 3184TIP3   OH231186   0.242   1.752   8.193
 3184TIP3    H131187   0.208   1.825   8.249
 3184TIP3    H231188   0.321   1.729   8.244
 3185TIP3   OH231189   2.917   0.843   8.244
 3185TIP3    H131190   2.985   0.872   8.308
 3185TIP3    H231191   2.966   0.768   8.204
 3186TIP3   OH231192   3.152   0.891   8.364
 3186TIP3    H131193   3.158   0.933   8.451
 3186TIP3    H231194   3.207   0.949   8.305
 3187TIP3   OH231195   3.551   0.068   8.409
 3187TIP3    H131196   3.465   0.058   8.453
 3187TIP3    H231197   3.559   0.165   8.401
 3188TIP3   OH231198   3.676   1.500   8.208
 3188TIP3    H131199   3.675   1.593   8.239
 3188TIP3    H231200   3.759   1.472   8.252
 3189TIP3   OH231201   3.162   1.658   8.361
 3189TIP3    H131202   3.185   1.655   8.266
 3189TIP3    H231203   3.252   1.662   8.400
 3190TIP3   OH231204   3.344   1.030   8.245
 3190TIP3    H131205   3.314   1.047   8.153
 3190TIP3    H231206   3.441   1.024   8.229
 3191TIP3   OH231207   2.908   0.358   8.228
 3191TIP3    H131208   2.855   0.412   8.287
 3191TIP3    H231209   2.858   0.276   8.225
 3192TIP3   OH231210   2.519   0.400   8.184
 3192TIP3    H131211   2.464   0.372   8.260
 3192TIP3    H231212   2.467   0.475   8.150
 3193TIP3   OH231213   1.980   0.423   8.424
 3193TIP3    H131214   2.049   0.447   8.361
 3193TIP3    H231215   1.928   0.506   8.422
 3194TIP3   OH231216   2.437   0.697   8.316
 3194TIP3    H131217   2.360   0.685   8.258
 3194TIP3    H231218   2.506   0.723   8.250
 3195TIP3   OH231219   3.158   0.412   8.363
 3195TIP3    H131220   3.062   0.430   8.358
 3195TIP3    H231221   3.193   0.491   8.411
 3196TIP3   OH231222   3.225   0.647   8.462
 3196TIP3    H131223   3.296   0.659   8.528
 3196TIP3    H231224   3.232   0.725   8.404
 3197TIP3   OH231225   2.950   1.283   8.421
 3197TIP3    H131226   2.895   1.363   8.418
 3197TIP3    H231227   2.885   1.214   8.441
 3198TIP3   OH231228   3.716   0.644   8.434
 3198TIP3    H131229   3.651   0.603   8.373
 3198TIP3    H231230   3.735   0.726   8.384
 3199TIP3   OH231231   2.156   0.908   8.268
 3199TIP3    H131232   2.187   0.973   8.333
 3199TIP3    H231233   2.064   0.896   8.300
 3200TIP3   OH231234   3.313   1.334   8.310
 3200TIP3    H131235   3.291   1.362   8.400
 3200TIP3    H231236   3.226   1.301   8.280
 3201TIP3   OH231237   3.696   1.755   8.299
 3201TIP3    H131238   3.758   1.829   8.305
 3201TIP3    H231239   3.619   1.800   8.340
 3202TIP3   OH231240   2.681   1.423   8.125
 3202TIP3    H131241   2.641   1.377   8.049
 3202TIP3    H231242   2.640   1.374   8.200
 3203TIP3   OH231243   2.558   1.358   8.376
 3203TIP3    H131244   2.604   1.321   8.453
 3203TIP3    H231245   2.540   1.449   8.407
 3204TIP3   OH231246   2.205   1.109   8.431
 3204TIP3    H131247   2.190   1.044   8.502
 3204TIP3    H231248   2.299   1.132   8.445
 3205TIP3   OH231249   2.803   1.524   8.418
 3205TIP3    H131250   2.716   1.561   8.444
 3205TIP3    H231251   2.835   1.593   8.358
 3206TIP3   OH231252   2.537   1.603   8.490
 3206TIP3    H131253   2.538   1.676   8.424
 3206TIP3    H231254   2.559   1.653   8.569
 3207TIP3   OH231255   2.389   0.293   8.392
 3207TIP3    H131256   2.394   0.370   8.450
 3207TIP3    H231257   2.482   0.265   8.397
 3208TIP3   OH231258   2.256   1.369   8.297
 3208TIP3    H131259   2.319   1.400   8.364
 3208TIP3    H231260   2.313   1.306   8.252
 3209TIP3   OH231261   2.104   0.629   8.273
 3209TIP3    H131262   2.139   0.717   8.249
 3209TIP3    H231263   2.027   0.623   8.216
 3210TIP3   OH231264   2.866   1.627   8.128
 3210TIP3    H131265   2.811   1.546   8.133
 3210TIP3    H231266   2.948   1.588   8.091
 3211TIP3   OH231267   3.329   1.553   8.129
 3211TIP3    H131268   3.347   1.493   8.203
 3211TIP3    H231269   3.417   1.565   8.087
 3212TIP3   OH231270   2.439   1.150   8.133
 3212TIP3    H131271   2.473   1.105   8.211
 3212TIP3    H231272   2.517   1.143   8.072
 3213TIP3   OH231273   3.023   1.295   8.155
 3213TIP3    H131274   2.998   1.282   8.249
 3213TIP3    H231275   3.006   1.206   8.116
 3214TIP3   OH231276   2.549   0.981   8.357
 3214TIP3    H131277   2.484   0.922   8.399
 3214TIP3    H231278   2.584   0.923   8.286
 3215TIP3   OH231279   2.662   0.816   8.176
 3215TIP3    H131280   2.659   0.846   8.082
 3215TIP3    H231281   2.759   0.816   8.192
 3216TIP3   OH231282   3.603   1.019   8.139
 3216TIP3    H131283   3.584   0.989   8.047
 3216TIP3    H231284   3.589   1.117   8.128
 3217TIP3   OH231285   2.660   1.824   8.394
 3217TIP3    H131286   2.758   1.818   8.383
 3217TIP3    H231287   2.639   1.886   8.322
 3218TIP3   OH231288   1.976   1.323   8.287
 3218TIP3    H131289   2.075   1.327   8.291
 3218TIP3    H231290   1.965   1.260   8.214
 3219TIP3   OH231291   3.752   0.909   8.335
 3219TIP3    H131292   3.695   0.940   8.262
 3219TIP3    H231293   3.702   0.942   8.412
 3220TIP3   OH231294   3.573   0.631   8.184
 3220TIP3    H131295   3.575   0.693   8.110
 3220TIP3    H231296   3.531   0.554   8.139
 3221TIP3   OH231297   3.528   0.385   8.086
 3221TIP3    H131298   3.554   0.357   8.177
 3221TIP3    H231299   3.430   0.376   8.084
 3222TIP3   OH231300   3.684   0.274   8.294
 3222TIP3    H131301   3.720   0.193   8.252
 3222TIP3    H231302   3.762   0.320   8.332
 3223TIP3   OH231303   2.063   0.082   8.390
 3223TIP3    H131304   2.060   0.152   8.322
 3223TIP3    H231305   1.991   0.109   8.449
 3224TIP3   OH231306   2.180   0.279   8.229
 3224TIP3    H131307   2.229   0.210   8.180
 3224TIP3    H231308   2.239   0.291   8.306
 3225TIP3   OH231309   2.919   1.786   8.335
 3225TIP3    H131310   3.016   1.795   8.339
 3225TIP3    H231311   2.912   1.745   8.246
 3226TIP3   OH231312   2.154   1.764   8.181
 3226TIP3    H131313   2.127   1.811   8.262
 3226TIP3    H231314   2.218   1.698   8.213
 3227TIP3   OH231315   4.803   0.842   8.253
 3227TIP3    H131316   4.876   0.870   8.312
 3227TIP3    H231317   4.848   0.764   8.215
 3228TIP3   OH231318   5.044   0.888   8.371
 3228TIP3    H131319   5.032   0.935   8.454
 3228TIP3    H231320   5.093   0.952   8.313
 3229TIP3   OH231321   5.414   0.076   8.395
 3229TIP3    H131322   5.342   0.038   8.447
 3229TIP3    H231323   5.405   0.172   8.403
 3230TIP3   OH231324   5.545   1.489   8.233
 3230TIP3    H131325   5.563   1.584   8.244
 3230TIP3    H231326   5.628   1.451   8.271
 3231TIP3   OH231327   5.120   1.727   8.323
 3231TIP3    H131328   5.149   1.666   8.251
 3231TIP3    H231329   5.168   1.685   8.397
 3232TIP3   OH231330   5.215   1.046   8.245
 3232TIP3    H131331   5.193   1.050   8.149
 3232TIP3    H231332   5.312   1.037   8.238
 3233TIP3   OH231333   4.811   0.350   8.248
 3233TIP3    H131334   4.775   0.401   8.321
 3233TIP3    H231335   4.748   0.278   8.238
 3234TIP3   OH231336   4.417   0.445   8.176
 3234TIP3    H131337   4.394   0.483   8.262
 3234TIP3    H231338   4.362   0.503   8.120
 3235TIP3   OH231339   3.885   0.415   8.392
 3235TIP3    H131340   3.950   0.457   8.332
 3235TIP3    H231341   3.837   0.495   8.422
 3236TIP3   OH231342   4.303   0.673   8.309
 3236TIP3    H131343   4.222   0.677   8.256
 3236TIP3    H231344   4.361   0.730   8.255
 3237TIP3   OH231345   5.052   0.404   8.370
 3237TIP3    H131346   4.959   0.416   8.345
 3237TIP3    H231347   5.076   0.492   8.409
 3238TIP3   OH231348   5.099   0.647   8.462
 3238TIP3    H131349   5.188   0.672   8.489
 3238TIP3    H231350   5.071   0.724   8.406
 3239TIP3   OH231351   4.860   1.274   8.421
 3239TIP3    H131352   4.812   1.358   8.411
 3239TIP3    H231353   4.789   1.218   8.454
 3240TIP3   OH231354   5.595   0.647   8.425
 3240TIP3    H131355   5.536   0.613   8.353
 3240TIP3    H231356   5.605   0.739   8.392
 3241TIP3   OH231357   4.010   0.908   8.249
 3241TIP3    H131358   4.047   0.962   8.321
 3241TIP3    H231359   3.915   0.909   8.276
 3242TIP3   OH231360   5.213   1.329   8.308
 3242TIP3    H131361   5.193   1.360   8.397
 3242TIP3    H231362   5.129   1.286   8.285
 3243TIP3   OH231363   5.587   1.743   8.306
 3243TIP3    H131364   5.660   1.804   8.325
 3243TIP3    H231365   5.513   1.791   8.348
 3244TIP3   OH231366   4.588   1.405   8.160
 3244TIP3    H131367   4.651   1.334   8.140
 3244TIP3    H231368   4.556   1.376   8.248
 3245TIP3   OH231369   4.457   1.349   8.384
 3245TIP3    H131370   4.485   1.317   8.471
 3245TIP3    H231371   4.437   1.443   8.407
 3246TIP3   OH231372   4.089   1.113   8.408
 3246TIP3    H131373   4.051   1.058   8.480
 3246TIP3    H231374   4.182   1.117   8.438
 3247TIP3   OH231375   4.683   1.531   8.416
 3247TIP3    H131376   4.598   1.579   8.412
 3247TIP3    H231377   4.735   1.579   8.349
 3248TIP3   OH231378   4.411   1.598   8.482
 3248TIP3    H131379   4.386   1.680   8.436
 3248TIP3    H231380   4.448   1.632   8.565
 3249TIP3   OH231381   4.270   0.267   8.421
 3249TIP3    H131382   4.184   0.307   8.444
 3249TIP3    H231383   4.331   0.331   8.463
 3250TIP3   OH231384   4.164   1.372   8.262
 3250TIP3    H131385   4.215   1.407   8.338
 3250TIP3    H231386   4.171   1.277   8.280
 3251TIP3   OH231387   3.980   0.626   8.251
 3251TIP3    H131388   4.005   0.719   8.252
 3251TIP3    H231389   3.892   0.626   8.211
 3252TIP3   OH231390   4.772   1.622   8.168
 3252TIP3    H131391   4.714   1.551   8.132
 3252TIP3    H231392   4.839   1.625   8.096
 3253TIP3   OH231393   5.211   1.550   8.134
 3253TIP3    H131394   5.228   1.473   8.194
 3253TIP3    H231395   5.297   1.557   8.087
 3254TIP3   OH231396   4.322   1.115   8.191
 3254TIP3    H131397   4.359   1.082   8.275
 3254TIP3    H231398   4.394   1.094   8.128
 3255TIP3   OH231399   4.900   1.294   8.148
 3255TIP3    H131400   4.906   1.271   8.243
 3255TIP3    H231401   4.898   1.205   8.105
 3256TIP3   OH231402   4.450   0.973   8.381
 3256TIP3    H131403   4.440   0.911   8.455
 3256TIP3    H231404   4.486   0.913   8.311
 3257TIP3   OH231405   4.547   0.813   8.196
 3257TIP3    H131406   4.540   0.822   8.099
 3257TIP3    H231407   4.644   0.805   8.208
 3258TIP3   OH231408   5.485   1.018   8.164
 3258TIP3    H131409   5.472   0.988   8.071
 3258TIP3    H231410   5.488   1.117   8.150
 3259TIP3   OH231411   4.552   1.833   8.387
 3259TIP3    H131412   4.649   1.846   8.390
 3259TIP3    H231413   4.529   1.891   8.312
 3260TIP3   OH231414   3.865   1.330   8.284
 3260TIP3    H131415   3.961   1.316   8.277
 3260TIP3    H231416   3.832   1.290   8.202
 3261TIP3   OH231417   5.643   0.906   8.349
 3261TIP3    H131418   5.598   0.933   8.266
 3261TIP3    H231419   5.613   0.975   8.410
 3262TIP3   OH231420   5.440   0.631   8.198
 3262TIP3    H131421   5.462   0.684   8.118
 3262TIP3    H231422   5.407   0.548   8.157
 3263TIP3   OH231423   5.394   0.371   8.120
 3263TIP3    H131424   5.448   0.347   8.199
 3263TIP3    H231425   5.302   0.365   8.153
 3264TIP3   OH231426   5.583   0.281   8.294
 3264TIP3    H131427   5.601   0.191   8.264
 3264TIP3    H231428   5.663   0.312   8.342
 3265TIP3   OH231429   3.969   0.105   8.370
 3265TIP3    H131430   3.890   0.105   8.313
 3265TIP3    H231431   3.935   0.076   8.456
 3266TIP3   OH231432   4.072   0.294   8.218
 3266TIP3    H131433   4.058   0.209   8.176
 3266TIP3    H231434   4.030   0.272   8.305
 3267TIP3   OH231435   4.847   1.796   8.364
 3267TIP3    H131436   4.944   1.793   8.364
 3267TIP3    H231437   4.828   1.753   8.277
 3268TIP3   OH231438   4.081   1.769   8.193
 3268TIP3    H131439   4.033   1.794   8.274
 3268TIP3    H231440   4.140   1.698   8.223
 3269TIP3   OH231441   6.683   0.845   8.264
 3269TIP3    H131442   6.750   0.883   8.324
 3269TIP3    H231443   6.739   0.776   8.224
 3270TIP3   OH231444   6.924   0.908   8.377
 3270TIP3    H131445   6.975   0.930   8.457
 3270TIP3    H231446   6.987   0.911   8.303
 3271TIP3   OH231447   7.252   0.120   8.353
 3271TIP3    H131448   7.233   0.074   8.436
 3271TIP3    H231449   7.316   0.189   8.379
 3272TIP3   OH231450   7.002   1.734   8.318
 3272TIP3    H131451   7.017   1.671   8.243
 3272TIP3    H231452   7.052   1.686   8.388
 3273TIP3   OH231453   7.137   0.960   8.216
 3273TIP3    H131454   7.101   0.972   8.125
 3273TIP3    H231455   7.156   1.052   8.237
 3274TIP3   OH231456   6.672   0.331   8.231
 3274TIP3    H131457   6.596   0.370   8.277
 3274TIP3    H231458   6.636   0.245   8.204
 3275TIP3   OH231459   6.289   0.400   8.179
 3275TIP3    H131460   6.233   0.374   8.256
 3275TIP3    H231461   6.238   0.473   8.138
 3276TIP3   OH231462   5.756   0.422   8.438
 3276TIP3    H131463   5.820   0.440   8.368
 3276TIP3    H231464   5.702   0.504   8.431
 3277TIP3   OH231465   6.211   0.682   8.295
 3277TIP3    H131466   6.167   0.632   8.224
 3277TIP3    H231467   6.282   0.720   8.240
 3278TIP3   OH231468   6.897   0.409   8.364
 3278TIP3    H131469   6.805   0.403   8.330
 3278TIP3    H231470   6.899   0.496   8.409
 3279TIP3   OH231471   6.985   0.650   8.446
 3279TIP3    H131472   7.073   0.636   8.405
 3279TIP3    H231473   6.941   0.701   8.377
 3280TIP3   OH231474   6.716   1.275   8.405
 3280TIP3    H131475   6.664   1.356   8.393
 3280TIP3    H231476   6.654   1.215   8.448
 3281TIP3   OH231477   5.913   0.901   8.262
 3281TIP3    H131478   5.949   0.968   8.323
 3281TIP3    H231479   5.826   0.886   8.303
 3282TIP3   OH231480   7.067   1.313   8.306
 3282TIP3    H131481   7.049   1.343   8.396
 3282TIP3    H231482   6.977   1.304   8.271
 3283TIP3   OH231483   6.471   1.446   8.123
 3283TIP3    H131484   6.446   1.389   8.049
 3283TIP3    H231485   6.418   1.407   8.196
 3284TIP3   OH231486   6.330   1.356   8.361
 3284TIP3    H131487   6.378   1.298   8.424
 3284TIP3    H231488   6.312   1.435   8.416
 3285TIP3   OH231489   5.980   1.106   8.407
 3285TIP3    H131490   5.957   1.116   8.500
 3285TIP3    H231491   6.071   1.140   8.405
 3286TIP3   OH231492   6.566   1.521   8.403
 3286TIP3    H131493   6.476   1.553   8.422
 3286TIP3    H231494   6.594   1.580   8.331
 3287TIP3   OH231495   6.293   1.598   8.486
 3287TIP3    H131496   6.290   1.673   8.424
 3287TIP3    H231497   6.332   1.641   8.564
 3288TIP3   OH231498   6.191   0.266   8.391
 3288TIP3    H131499   6.217   0.334   8.458
 3288TIP3    H231500   6.280   0.231   8.373
 3289TIP3   OH231501   6.026   1.370   8.295
 3289TIP3    H131502   6.093   1.412   8.351
 3289TIP3    H231503   6.083   1.307   8.248
 3290TIP3   OH231504   5.869   0.617   8.258
 3290TIP3    H131505   5.920   0.700   8.255
 3290TIP3    H231506   5.790   0.641   8.209
 3291TIP3   OH231507   6.675   1.640   8.143
 3291TIP3    H131508   6.609   1.569   8.127
 3291TIP3    H231509   6.753   1.598   8.100
 3292TIP3   OH231510   7.096   1.554   8.149
 3292TIP3    H131511   7.124   1.486   8.212
 3292TIP3    H231512   7.175   1.564   8.091
 3293TIP3   OH231513   6.206   1.138   8.122
 3293TIP3    H131514   6.253   1.107   8.201
 3293TIP3    H231515   6.281   1.137   8.058
 3294TIP3   OH231516   6.798   1.287   8.149
 3294TIP3    H131517   6.777   1.261   8.242
 3294TIP3    H231518   6.782   1.201   8.103
 3295TIP3   OH231519   6.327   0.973   8.349
 3295TIP3    H131520   6.274   0.909   8.397
 3295TIP3    H231521   6.377   0.915   8.287
 3296TIP3   OH231522   6.437   0.794   8.177
 3296TIP3    H131523   6.433   0.816   8.082
 3296TIP3    H231524   6.534   0.804   8.195
 3297TIP3   OH231525   6.424   1.823   8.403
 3297TIP3    H131526   6.522   1.813   8.412
 3297TIP3    H231527   6.423   1.885   8.327
 3298TIP3   OH231528   5.753   1.329   8.288
 3298TIP3    H131529   5.851   1.331   8.289
 3298TIP3    H231530   5.738   1.263   8.218
 3299TIP3   OH231531   7.215   0.570   8.296
 3299TIP3    H131532   7.170   0.522   8.224
 3299TIP3    H231533   7.297   0.514   8.306
 3300TIP3   OH231534   7.284   0.331   8.150
 3300TIP3    H131535   7.298   0.262   8.218
 3300TIP3    H231536   7.186   0.331   8.141
 3301TIP3   OH231537   5.828   0.093   8.411
 3301TIP3    H131538   5.867   0.152   8.479
 3301TIP3    H231539   5.740   0.081   8.450
 3302TIP3   OH231540   5.965   0.288   8.234
 3302TIP3    H131541   6.039   0.243   8.191
 3302TIP3    H231542   5.995   0.290   8.327
 3303TIP3   OH231543   6.708   1.777   8.364
 3303TIP3    H131544   6.801   1.797   8.354
 3303TIP3    H231545   6.691   1.738   8.275
 3304TIP3   OH231546   5.913   1.749   8.186
 3304TIP3    H131547   5.891   1.806   8.262
 3304TIP3    H231548   5.990   1.700   8.218
 3305TIP3   OH231549   1.050   2.684   8.235
 3305TIP3    H131550   1.109   2.717   8.306
 3305TIP3    H231551   1.099   2.601   8.216
 3306TIP3   OH231552   1.277   2.769   8.363
 3306TIP3    H131553   1.250   2.827   8.435
 3306TIP3    H231554   1.337   2.826   8.309
 3307TIP3   OH231555   1.652   1.929   8.454
 3307TIP3    H131556   1.572   1.930   8.401
 3307TIP3    H231557   1.708   1.997   8.411
 3308TIP3   OH231558   1.762   3.394   8.224
 3308TIP3    H131559   1.782   3.487   8.244
 3308TIP3    H231560   1.837   3.352   8.268
 3309TIP3   OH231561   1.347   3.611   8.334
 3309TIP3    H131562   1.370   3.554   8.258
 3309TIP3    H231563   1.397   3.562   8.404
 3310TIP3   OH231564   1.452   2.921   8.247
 3310TIP3    H131565   1.426   2.949   8.157
 3310TIP3    H231566   1.547   2.905   8.230
 3311TIP3   OH231567   1.014   2.280   8.239
 3311TIP3    H131568   0.936   2.291   8.293
 3311TIP3    H231569   1.008   2.187   8.213
 3312TIP3   OH231570   0.650   2.290   8.158
 3312TIP3    H131571   0.604   2.263   8.240
 3312TIP3    H231572   0.593   2.363   8.126
 3313TIP3   OH231573   0.095   2.318   8.380
 3313TIP3    H131574   0.190   2.336   8.368
 3313TIP3    H231575   0.054   2.384   8.321
 3314TIP3   OH231576   0.563   2.548   8.309
 3314TIP3    H131577   0.507   2.506   8.241
 3314TIP3    H231578   0.633   2.587   8.254
 3315TIP3   OH231579   1.286   2.294   8.310
 3315TIP3    H131580   1.204   2.273   8.358
 3315TIP3    H231581   1.322   2.366   8.365
 3316TIP3   OH231582   1.338   2.520   8.444
 3316TIP3    H131583   1.415   2.511   8.502
 3316TIP3    H231584   1.344   2.612   8.411
 3317TIP3   OH231585   1.069   3.179   8.407
 3317TIP3    H131586   1.019   3.261   8.421
 3317TIP3    H231587   1.015   3.112   8.450
 3318TIP3   OH231588   1.825   2.523   8.435
 3318TIP3    H131589   1.764   2.481   8.372
 3318TIP3    H231590   1.826   2.615   8.400
 3319TIP3   OH231591   0.156   2.770   8.277
 3319TIP3    H131592   0.221   2.820   8.332
 3319TIP3    H231593   0.072   2.801   8.312
 3320TIP3   OH231594   1.424   3.205   8.302
 3320TIP3    H131595   1.394   3.239   8.388
 3320TIP3    H231596   1.339   3.177   8.265
 3321TIP3   OH231597   1.815   3.644   8.302
 3321TIP3    H131598   1.901   3.686   8.318
 3321TIP3    H231599   1.758   3.701   8.358
 3322TIP3   OH231600   0.833   3.315   8.110
 3322TIP3    H131601   0.779   3.270   8.043
 3322TIP3    H231602   0.800   3.269   8.189
 3323TIP3   OH231603   0.652   3.249   8.378
 3323TIP3    H131604   0.728   3.229   8.434
 3323TIP3    H231605   0.621   3.335   8.413
 3324TIP3   OH231606   0.303   2.948   8.413
 3324TIP3    H131607   0.370   2.931   8.480
 3324TIP3    H231608   0.332   3.036   8.381
 3325TIP3   OH231609   0.898   3.427   8.419
 3325TIP3    H131610   0.806   3.458   8.429
 3325TIP3    H231611   0.937   3.500   8.367
 3326TIP3   OH231612   0.613   3.490   8.495
 3326TIP3    H131613   0.637   3.557   8.429
 3326TIP3    H231614   0.610   3.546   8.575
 3327TIP3   OH231615   0.537   2.183   8.379
 3327TIP3    H131616   0.570   2.248   8.446
 3327TIP3    H231617   0.598   2.109   8.387
 3328TIP3   OH231618   0.390   3.196   8.312
 3328TIP3    H131619   0.453   3.244   8.369
 3328TIP3    H231620   0.452   3.158   8.248
 3329TIP3   OH231621   0.242   2.524   8.197
 3329TIP3    H131622   0.242   2.589   8.269
 3329TIP3    H231623   0.147   2.502   8.190
 3330TIP3   OH231624   1.007   3.516   8.138
 3330TIP3    H131625   0.952   3.434   8.132
 3330TIP3    H231626   1.089   3.486   8.093
 3331TIP3   OH231627   1.445   3.447   8.139
 3331TIP3    H131628   1.482   3.392   8.212
 3331TIP3    H231629   1.524   3.454   8.082
 3332TIP3   OH231630   0.558   3.030   8.126
 3332TIP3    H131631   0.588   3.000   8.214
 3332TIP3    H231632   0.635   3.005   8.070
 3333TIP3   OH231633   1.153   3.172   8.142
 3333TIP3    H131634   1.121   3.171   8.235
 3333TIP3    H231635   1.115   3.086   8.109
 3334TIP3   OH231636   0.661   2.879   8.354
 3334TIP3    H131637   0.597   2.826   8.402
 3334TIP3    H231638   0.694   2.815   8.287
 3335TIP3   OH231639   0.772   2.709   8.180
 3335TIP3    H131640   0.762   2.717   8.083
 3335TIP3    H231641   0.868   2.695   8.188
 3336TIP3   OH231642   1.710   2.908   8.146
 3336TIP3    H131643   1.706   2.882   8.051
 3336TIP3    H231644   1.702   3.007   8.136
 3337TIP3   OH231645   0.768   3.698   8.389
 3337TIP3    H131646   0.865   3.698   8.390
 3337TIP3    H231647   0.749   3.765   8.321
 3338TIP3   OH231648   0.112   3.244   8.291
 3338TIP3    H131649   0.209   3.253   8.291
 3338TIP3    H231650   0.104   3.168   8.230
 3339TIP3   OH231651   1.864   2.795   8.346
 3339TIP3    H131652   1.813   2.822   8.267
 3339TIP3    H231653   1.846   2.868   8.408
 3340TIP3   OH231654   1.644   2.535   8.196
 3340TIP3    H131655   1.689   2.578   8.121
 3340TIP3    H231656   1.625   2.445   8.163
 3341TIP3   OH231657   1.599   2.264   8.162
 3341TIP3    H131658   1.656   2.219   8.228
 3341TIP3    H231659   1.514   2.261   8.209
 3342TIP3   OH231660   1.799   2.114   8.315
 3342TIP3    H131661   1.838   2.056   8.245
 3342TIP3    H231662   1.879   2.165   8.341
 3343TIP3   OH231663   0.191   1.978   8.345
 3343TIP3    H131664   0.215   2.069   8.320
 3343TIP3    H231665   0.139   1.996   8.426
 3344TIP3   OH231666   0.319   2.193   8.235
 3344TIP3    H131667   0.382   2.136   8.187
 3344TIP3    H231668   0.366   2.203   8.320
 3345TIP3   OH231669   1.060   3.654   8.353
 3345TIP3    H131670   1.156   3.668   8.352
 3345TIP3    H231671   1.048   3.624   8.260
 3346TIP3   OH231672   0.270   3.676   8.178
 3346TIP3    H131673   0.238   3.739   8.247
 3346TIP3    H231674   0.339   3.629   8.228
 3347TIP3   OH231675   2.900   2.692   8.286
 3347TIP3    H131676   2.966   2.745   8.335
 3347TIP3    H231677   2.964   2.638   8.236
 3348TIP3   OH231678   3.140   2.792   8.351
 3348TIP3    H131679   3.129   2.834   8.437
 3348TIP3    H231680   3.210   2.845   8.306
 3349TIP3   OH231681   3.557   1.932   8.461
 3349TIP3    H131682   3.467   1.924   8.420
 3349TIP3    H231683   3.581   2.013   8.412
 3350TIP3   OH231684   3.645   3.385   8.232
 3350TIP3    H131685   3.664   3.480   8.248
 3350TIP3    H231686   3.725   3.347   8.274
 3351TIP3   OH231687   3.239   3.614   8.333
 3351TIP3    H131688   3.265   3.559   8.257
 3351TIP3    H231689   3.282   3.562   8.405
 3352TIP3   OH231690   3.342   2.932   8.251
 3352TIP3    H131691   3.316   2.947   8.158
 3352TIP3    H231692   3.437   2.915   8.238
 3353TIP3   OH231693   2.893   2.248   8.289
 3353TIP3    H131694   2.805   2.243   8.325
 3353TIP3    H231695   2.897   2.175   8.225
 3354TIP3   OH231696   2.527   2.290   8.159
 3354TIP3    H131697   2.467   2.255   8.230
 3354TIP3    H231698   2.476   2.367   8.127
 3355TIP3   OH231699   1.978   2.293   8.402
 3355TIP3    H131700   2.048   2.341   8.353
 3355TIP3    H231701   1.926   2.371   8.430
 3356TIP3   OH231702   2.438   2.545   8.310
 3356TIP3    H131703   2.395   2.504   8.234
 3356TIP3    H231704   2.511   2.592   8.266
 3357TIP3   OH231705   3.143   2.342   8.304
 3357TIP3    H131706   3.049   2.324   8.325
 3357TIP3    H231707   3.170   2.401   8.377
 3358TIP3   OH231708   3.213   2.541   8.466
 3358TIP3    H131709   3.306   2.526   8.491
 3358TIP3    H231710   3.215   2.612   8.401
 3359TIP3   OH231711   2.965   3.162   8.418
 3359TIP3    H131712   2.913   3.245   8.418
 3359TIP3    H231713   2.904   3.102   8.462
 3360TIP3   OH231714   3.717   2.517   8.452
 3360TIP3    H131715   3.663   2.479   8.380
 3360TIP3    H231716   3.725   2.610   8.420
 3361TIP3   OH231717   2.140   2.811   8.255
 3361TIP3    H131718   2.174   2.876   8.321
 3361TIP3    H231719   2.052   2.792   8.293
 3362TIP3   OH231720   3.329   3.217   8.301
 3362TIP3    H131721   3.305   3.243   8.391
 3362TIP3    H231722   3.245   3.177   8.271
 3363TIP3   OH231723   3.705   3.634   8.304
 3363TIP3    H131724   3.786   3.685   8.313
 3363TIP3    H231725   3.646   3.688   8.359
 3364TIP3   OH231726   2.690   3.305   8.135
 3364TIP3    H131727   2.653   3.255   8.060
 3364TIP3    H231728   2.650   3.258   8.212
 3365TIP3   OH231729   2.563   3.248   8.369
 3365TIP3    H131730   2.584   3.188   8.441
 3365TIP3    H231731   2.551   3.332   8.418
 3366TIP3   OH231732   2.203   2.990   8.438
 3366TIP3    H131733   2.221   2.913   8.495
 3366TIP3    H231734   2.293   3.018   8.414
 3367TIP3   OH231735   2.816   3.396   8.428
 3367TIP3    H131736   2.725   3.431   8.428
 3367TIP3    H231737   2.860   3.461   8.370
 3368TIP3   OH231738   2.545   3.486   8.486
 3368TIP3    H131739   2.538   3.547   8.410
 3368TIP3    H231740   2.565   3.549   8.556
 3369TIP3   OH231741   2.405   2.179   8.372
 3369TIP3    H131742   2.429   2.238   8.447
 3369TIP3    H231743   2.481   2.120   8.369
 3370TIP3   OH231744   2.256   3.255   8.292
 3370TIP3    H131745   2.320   3.288   8.357
 3370TIP3    H231746   2.315   3.201   8.238
 3371TIP3   OH231747   2.085   2.510   8.246
 3371TIP3    H131748   2.128   2.597   8.239
 3371TIP3    H231749   2.006   2.521   8.192
 3372TIP3   OH231750   2.893   3.516   8.147
 3372TIP3    H131751   2.839   3.436   8.136
 3372TIP3    H231752   2.976   3.489   8.100
 3373TIP3   OH231753   3.334   3.440   8.129
 3373TIP3    H131754   3.349   3.366   8.192
 3373TIP3    H231755   3.421   3.444   8.084
 3374TIP3   OH231756   2.441   3.042   8.123
 3374TIP3    H131757   2.480   3.020   8.209
 3374TIP3    H231758   2.514   3.016   8.061
 3375TIP3   OH231759   3.024   3.183   8.149
 3375TIP3    H131760   3.001   3.168   8.243
 3375TIP3    H231761   3.005   3.094   8.111
 3376TIP3   OH231762   2.555   2.861   8.359
 3376TIP3    H131763   2.553   2.792   8.427
 3376TIP3    H231764   2.583   2.806   8.280
 3377TIP3   OH231765   2.658   2.699   8.178
 3377TIP3    H131766   2.670   2.730   8.086
 3377TIP3    H231767   2.750   2.678   8.207
 3378TIP3   OH231768   3.602   2.901   8.152
 3378TIP3    H131769   3.590   2.873   8.057
 3378TIP3    H231770   3.604   3.000   8.141
 3379TIP3   OH231771   2.661   3.714   8.393
 3379TIP3    H131772   2.757   3.703   8.379
 3379TIP3    H231773   2.638   3.773   8.318
 3380TIP3   OH231774   1.975   3.212   8.287
 3380TIP3    H131775   2.073   3.205   8.290
 3380TIP3    H231776   1.956   3.162   8.206
 3381TIP3   OH231777   3.753   2.794   8.344
 3381TIP3    H131778   3.700   2.819   8.265
 3381TIP3    H231779   3.728   2.865   8.407
 3382TIP3   OH231780   3.542   2.524   8.202
 3382TIP3    H131781   3.560   2.569   8.118
 3382TIP3    H231782   3.507   2.437   8.173
 3383TIP3   OH231783   3.479   2.247   8.165
 3383TIP3    H131784   3.544   2.203   8.224
 3383TIP3    H231785   3.397   2.216   8.207
 3384TIP3   OH231786   3.667   2.120   8.304
 3384TIP3    H131787   3.705   2.065   8.231
 3384TIP3    H231788   3.749   2.151   8.349
 3385TIP3   OH231789   2.072   1.976   8.392
 3385TIP3    H131790   2.083   2.055   8.334
 3385TIP3    H231791   2.099   2.014   8.479
 3386TIP3   OH231792   2.184   2.148   8.222
 3386TIP3    H131793   2.249   2.095   8.169
 3386TIP3    H231794   2.240   2.172   8.299
 3387TIP3   OH231795   2.935   3.664   8.356
 3387TIP3    H131796   3.028   3.689   8.350
 3387TIP3    H231797   2.923   3.625   8.266
 3388TIP3   OH231798   2.149   3.648   8.182
 3388TIP3    H131799   2.128   3.700   8.262
 3388TIP3    H231800   2.214   3.585   8.216
 3389TIP3   OH231801   4.804   2.703   8.266
 3389TIP3    H131802   4.875   2.743   8.320
 3389TIP3    H231803   4.859   2.634   8.222
 3390TIP3   OH231804   5.047   2.773   8.366
 3390TIP3    H131805   5.040   2.825   8.448
 3390TIP3    H231806   5.100   2.833   8.308
 3391TIP3   OH231807   5.434   1.934   8.448
 3391TIP3    H131808   5.348   1.937   8.404
 3391TIP3    H231809   5.479   2.013   8.410
 3392TIP3   OH231810   5.555   3.378   8.223
 3392TIP3    H131811   5.574   3.470   8.251
 3392TIP3    H231812   5.632   3.332   8.261
 3393TIP3   OH231813   5.119   3.609   8.327
 3393TIP3    H131814   5.144   3.548   8.254
 3393TIP3    H231815   5.166   3.564   8.401
 3394TIP3   OH231816   5.220   2.928   8.251
 3394TIP3    H131817   5.198   2.948   8.157
 3394TIP3    H231818   5.315   2.910   8.240
 3395TIP3   OH231819   4.784   2.240   8.283
 3395TIP3    H131820   4.720   2.282   8.341
 3395TIP3    H231821   4.733   2.170   8.240
 3396TIP3   OH231822   4.411   2.294   8.170
 3396TIP3    H131823   4.352   2.259   8.241
 3396TIP3    H231824   4.360   2.372   8.140
 3397TIP3   OH231825   3.864   2.277   8.412
 3397TIP3    H131826   3.936   2.314   8.359
 3397TIP3    H231827   3.818   2.358   8.437
 3398TIP3   OH231828   4.315   2.557   8.305
 3398TIP3    H131829   4.263   2.523   8.231
 3398TIP3    H231830   4.370   2.624   8.261
 3399TIP3   OH231831   5.038   2.344   8.269
 3399TIP3    H131832   4.944   2.322   8.289
 3399TIP3    H231833   5.068   2.389   8.351
 3400TIP3   OH231834   5.098   2.518   8.458
 3400TIP3    H131835   5.181   2.516   8.508
 3400TIP3    H231836   5.104   2.601   8.407
 3401TIP3   OH231837   4.852   3.163   8.420
 3401TIP3    H131838   4.798   3.245   8.420
 3401TIP3    H231839   4.792   3.098   8.459
 3402TIP3   OH231840   5.594   2.518   8.434
 3402TIP3    H131841   5.529   2.475   8.373
 3402TIP3    H231842   5.581   2.611   8.405
 3403TIP3   OH231843   4.031   2.805   8.252
 3403TIP3    H131844   4.053   2.882   8.309
 3403TIP3    H231845   3.939   2.791   8.279
 3404TIP3   OH231846   5.194   3.214   8.297
 3404TIP3    H131847   5.175   3.241   8.388
 3404TIP3    H231848   5.109   3.175   8.271
 3405TIP3   OH231849   5.588   3.627   8.304
 3405TIP3    H131850   5.665   3.684   8.313
 3405TIP3    H231851   5.517   3.684   8.337
 3406TIP3   OH231852   4.582   3.311   8.139
 3406TIP3    H131853   4.553   3.257   8.064
 3406TIP3    H231854   4.542   3.259   8.213
 3407TIP3   OH231855   4.454   3.238   8.366
 3407TIP3    H131856   4.482   3.196   8.449
 3407TIP3    H231857   4.431   3.328   8.398
 3408TIP3   OH231858   4.084   2.991   8.434
 3408TIP3    H131859   4.084   2.916   8.495
 3408TIP3    H231860   4.178   3.016   8.434
 3409TIP3   OH231861   4.700   3.397   8.419
 3409TIP3    H131862   4.609   3.431   8.419
 3409TIP3    H231863   4.747   3.468   8.371
 3410TIP3   OH231864   4.422   3.481   8.485
 3410TIP3    H131865   4.414   3.552   8.418
 3410TIP3    H231866   4.446   3.535   8.561
 3411TIP3   OH231867   4.294   2.180   8.381
 3411TIP3    H131868   4.328   2.247   8.445
 3411TIP3    H231869   4.368   2.118   8.377
 3412TIP3   OH231870   4.140   3.247   8.282
 3412TIP3    H131871   4.201   3.274   8.354
 3412TIP3    H231872   4.202   3.194   8.230
 3413TIP3   OH231873   3.972   2.510   8.263
 3413TIP3    H131874   4.024   2.591   8.268
 3413TIP3    H231875   3.903   2.533   8.199
 3414TIP3   OH231876   4.775   3.517   8.146
 3414TIP3    H131877   4.719   3.437   8.136
 3414TIP3    H231878   4.856   3.488   8.098
 3415TIP3   OH231879   5.220   3.445   8.130
 3415TIP3    H131880   5.235   3.371   8.193
 3415TIP3    H231881   5.299   3.438   8.072
 3416TIP3   OH231882   4.334   3.055   8.137
 3416TIP3    H131883   4.374   3.038   8.224
 3416TIP3    H231884   4.406   3.023   8.077
 3417TIP3   OH231885   4.907   3.180   8.153
 3417TIP3    H131886   4.881   3.168   8.247
 3417TIP3    H231887   4.884   3.092   8.114
 3418TIP3   OH231888   4.432   2.871   8.354
 3418TIP3    H131889   4.411   2.804   8.421
 3418TIP3    H231890   4.467   2.816   8.281
 3419TIP3   OH231891   4.548   2.702   8.187
 3419TIP3    H131892   4.550   2.730   8.093
 3419TIP3    H231893   4.643   2.683   8.205
 3420TIP3   OH231894   5.480   2.912   8.152
 3420TIP3    H131895   5.460   2.890   8.058
 3420TIP3    H231896   5.492   3.010   8.145
 3421TIP3   OH231897   4.543   3.711   8.402
 3421TIP3    H131898   4.637   3.704   8.372
 3421TIP3    H231899   4.509   3.777   8.338
 3422TIP3   OH231900   3.867   3.217   8.282
 3422TIP3    H131901   3.966   3.211   8.282
 3422TIP3    H231902   3.845   3.161   8.205
 3423TIP3   OH231903   5.621   2.795   8.350
 3423TIP3    H131904   5.570   2.820   8.269
 3423TIP3    H231905   5.604   2.875   8.404
 3424TIP3   OH231906   5.433   2.498   8.209
 3424TIP3    H131907   5.459   2.547   8.130
 3424TIP3    H231908   5.379   2.428   8.168
 3425TIP3   OH231909   5.367   2.228   8.133
 3425TIP3    H131910   5.435   2.192   8.194
 3425TIP3    H231911   5.294   2.245   8.195
 3426TIP3   OH231912   5.565   2.126   8.299
 3426TIP3    H131913   5.601   2.064   8.231
 3426TIP3    H231914   5.645   2.149   8.351
 3427TIP3   OH231915   3.953   1.968   8.381
 3427TIP3    H131916   3.951   2.040   8.315
 3427TIP3    H231917   3.988   2.016   8.457
 3428TIP3   OH231918   4.069   2.154   8.234
 3428TIP3    H131919   4.128   2.098   8.179
 3428TIP3    H231920   4.122   2.162   8.316
 3429TIP3   OH231921   4.818   3.674   8.356
 3429TIP3    H131922   4.913   3.690   8.345
 3429TIP3    H231923   4.800   3.632   8.268
 3430TIP3   OH231924   4.047   3.657   8.187
 3430TIP3    H131925   4.024   3.693   8.275
 3430TIP3    H231926   4.111   3.587   8.208
 3431TIP3   OH231927   6.694   2.663   8.246
 3431TIP3    H131928   6.741   2.717   8.313
 3431TIP3    H231929   6.761   2.594   8.232
 3432TIP3   OH231930   6.902   2.774   8.392
 3432TIP3    H131931   6.956   2.781   8.472
 3432TIP3    H231932   6.963   2.807   8.322
 3433TIP3   OH231933   7.270   1.980   8.421
 3433TIP3    H131934   7.189   2.020   8.388
 3433TIP3    H231935   7.298   1.921   8.349
 3434TIP3   OH231936   7.004   3.619   8.324
 3434TIP3    H131937   7.019   3.562   8.246
 3434TIP3    H231938   7.046   3.562   8.393
 3435TIP3   OH231939   7.082   2.892   8.240
 3435TIP3    H131940   7.053   2.908   8.146
 3435TIP3    H231941   7.116   2.980   8.261
 3436TIP3   OH231942   6.679   2.231   8.273
 3436TIP3    H131943   6.633   2.271   8.348
 3436TIP3    H231944   6.615   2.168   8.237
 3437TIP3   OH231945   6.294   2.281   8.160
 3437TIP3    H131946   6.247   2.259   8.244
 3437TIP3    H231947   6.223   2.316   8.105
 3438TIP3   OH231948   5.755   2.279   8.419
 3438TIP3    H131949   5.822   2.303   8.352
 3438TIP3    H231950   5.697   2.357   8.420
 3439TIP3   OH231951   6.213   2.585   8.313
 3439TIP3    H131952   6.173   2.536   8.239
 3439TIP3    H231953   6.284   2.630   8.264
 3440TIP3   OH231954   6.930   2.315   8.277
 3440TIP3    H131955   6.833   2.295   8.279
 3440TIP3    H231956   6.943   2.368   8.358
 3441TIP3   OH231957   6.991   2.514   8.465
 3441TIP3    H131958   7.074   2.469   8.441
 3441TIP3    H231959   6.973   2.575   8.391
 3442TIP3   OH231960   6.720   3.186   8.411
 3442TIP3    H131961   6.666   3.267   8.428
 3442TIP3    H231962   6.664   3.116   8.447
 3443TIP3   OH231963   5.894   2.840   8.248
 3443TIP3    H131964   5.936   2.907   8.307
 3443TIP3    H231965   5.806   2.881   8.240
 3444TIP3   OH231966   7.063   3.175   8.300
 3444TIP3    H131967   7.037   3.231   8.375
 3444TIP3    H231968   6.978   3.159   8.253
 3445TIP3   OH231969   6.468   3.302   8.137
 3445TIP3    H131970   6.432   3.255   8.061
 3445TIP3    H231971   6.421   3.254   8.209
 3446TIP3   OH231972   6.330   3.235   8.367
 3446TIP3    H131973   6.403   3.208   8.423
 3446TIP3    H231974   6.307   3.321   8.408
 3447TIP3   OH231975   5.965   2.988   8.464
 3447TIP3    H131976   5.947   2.933   8.542
 3447TIP3    H231977   6.058   3.010   8.481
 3448TIP3   OH231978   6.567   3.408   8.433
 3448TIP3    H131979   6.475   3.437   8.415
 3448TIP3    H231980   6.620   3.483   8.397
 3449TIP3   OH231981   6.307   3.474   8.483
 3449TIP3    H131982   6.292   3.551   8.424
 3449TIP3    H231983   6.357   3.517   8.554
 3450TIP3   OH231984   6.174   2.193   8.377
 3450TIP3    H131985   6.237   2.236   8.440
 3450TIP3    H231986   6.211   2.104   8.366
 3451TIP3   OH231987   6.018   3.238   8.275
 3451TIP3    H131988   6.075   3.283   8.339
 3451TIP3    H231989   6.084   3.179   8.235
 3452TIP3   OH231990   5.863   2.508   8.179
 3452TIP3    H131991   5.915   2.556   8.111
 3452TIP3    H231992   5.783   2.483   8.131
 3453TIP3   OH231993   6.668   3.524   8.136
 3453TIP3    H131994   6.613   3.442   8.139
 3453TIP3    H231995   6.747   3.488   8.090
 3454TIP3   OH231996   7.091   3.446   8.138
 3454TIP3    H131997   7.134   3.388   8.203
 3454TIP3    H231998   7.167   3.466   8.078
 3455TIP3   OH231999   6.219   3.024   8.123
 3455TIP3    H132000   6.267   3.005   8.206
 3455TIP3    H232001   6.289   3.009   8.056
 3456TIP3   OH232002   6.801   3.156   8.151
 3456TIP3    H132003   6.767   3.160   8.243
 3456TIP3    H232004   6.764   3.069   8.120
 3457TIP3   OH232005   6.317   2.867   8.355
 3457TIP3    H132006   6.273   2.805   8.416
 3457TIP3    H232007   6.365   2.807   8.294
 3458TIP3   OH232008   6.438   2.699   8.190
 3458TIP3    H132009   6.430   2.725   8.096
 3458TIP3    H232010   6.536   2.685   8.197
 3459TIP3   OH232011   6.429   3.710   8.382
 3459TIP3    H132012   6.521   3.696   8.409
 3459TIP3    H232013   6.441   3.769   8.306
 3460TIP3   OH232014   5.748   3.199   8.281
 3460TIP3    H132015   5.847   3.210   8.281
 3460TIP3    H232016   5.737   3.140   8.204
 3461TIP3   OH232017   7.302   2.497   8.216
 3461TIP3    H132018   7.302   2.585   8.176
 3461TIP3    H232019   7.277   2.440   8.141
 3462TIP3   OH232020   7.261   2.233   8.125
 3462TIP3    H132021   7.273   2.214   8.219
 3462TIP3    H232022   7.166   2.218   8.112
 3463TIP3   OH232023   5.832   1.970   8.381
 3463TIP3    H132024   5.830   2.045   8.319
 3463TIP3    H232025   5.877   2.010   8.457
 3464TIP3   OH232026   5.955   2.159   8.230
 3464TIP3    H132027   6.014   2.102   8.176
 3464TIP3    H232028   6.012   2.179   8.307
 3465TIP3   OH232029   6.711   3.640   8.362
 3465TIP3    H132030   6.806   3.662   8.353
 3465TIP3    H232031   6.690   3.617   8.267
 3466TIP3   OH232032   5.938   3.643   8.175
 3466TIP3    H132033   5.924   3.669   8.268
 3466TIP3    H232034   6.007   3.574   8.182
 3467TIP3   OH232035   1.049   4.586   8.271
 3467TIP3    H132036   1.143   4.578   8.298
 3467TIP3    H232037   1.046   4.509   8.212
 3468TIP3   OH232038   1.286   4.674   8.402
 3468TIP3    H132039   1.314   4.608   8.468
 3468TIP3    H232040   1.369   4.690   8.349
 3469TIP3   OH232041   1.655   3.819   8.458
 3469TIP3    H132042   1.573   3.816   8.409
 3469TIP3    H232043   1.700   3.897   8.419
 3470TIP3   OH232044   1.790   5.271   8.221
 3470TIP3    H132045   1.800   5.365   8.249
 3470TIP3    H232046   1.870   5.234   8.264
 3471TIP3   OH232047   1.333   5.525   8.362
 3471TIP3    H132048   1.408   5.461   8.360
 3471TIP3    H232049   1.327   5.537   8.460
 3472TIP3   OH232050   1.470   4.764   8.247
 3472TIP3    H132051   1.428   4.784   8.159
 3472TIP3    H232052   1.564   4.783   8.226
 3473TIP3   OH232053   1.013   4.179   8.256
 3473TIP3    H132054   0.941   4.181   8.321
 3473TIP3    H232055   1.019   4.086   8.233
 3474TIP3   OH232056   0.637   4.166   8.148
 3474TIP3    H132057   0.607   4.138   8.238
 3474TIP3    H232058   0.550   4.178   8.109
 3475TIP3   OH232059   0.098   4.225   8.381
 3475TIP3    H132060   0.181   4.217   8.329
 3475TIP3    H232061   0.037   4.267   8.317
 3476TIP3   OH232062   0.537   4.404   8.308
 3476TIP3    H132063   0.464   4.382   8.247
 3476TIP3    H232064   0.603   4.438   8.246
 3477TIP3   OH232065   1.271   4.209   8.300
 3477TIP3    H132066   1.172   4.215   8.308
 3477TIP3    H232067   1.301   4.261   8.377
 3478TIP3   OH232068   1.332   4.418   8.470
 3478TIP3    H132069   1.403   4.393   8.533
 3478TIP3    H232070   1.383   4.444   8.391
 3479TIP3   OH232071   1.007   5.059   8.411
 3479TIP3    H132072   1.029   5.150   8.435
 3479TIP3    H232073   0.912   5.071   8.400
 3480TIP3   OH232074   1.819   4.397   8.459
 3480TIP3    H132075   1.772   4.364   8.379
 3480TIP3    H232076   1.835   4.489   8.430
 3481TIP3   OH232077   0.160   4.662   8.277
 3481TIP3    H132078   0.215   4.721   8.334
 3481TIP3    H232079   0.073   4.672   8.317
 3482TIP3   OH232080   1.420   5.093   8.290
 3482TIP3    H132081   1.412   5.123   8.382
 3482TIP3    H232082   1.330   5.061   8.268
 3483TIP3   OH232083   1.832   5.516   8.315
 3483TIP3    H132084   1.903   5.580   8.305
 3483TIP3    H232085   1.770   5.567   8.370
 3484TIP3   OH232086   0.821   5.192   8.118
 3484TIP3    H132087   0.786   5.158   8.034
 3484TIP3    H232088   0.775   5.133   8.180
 3485TIP3   OH232089   0.663   5.129   8.384
 3485TIP3    H132090   0.677   5.112   8.478
 3485TIP3    H232091   0.658   5.226   8.388
 3486TIP3   OH232092   0.285   4.849   8.416
 3486TIP3    H132093   0.355   4.813   8.473
 3486TIP3    H232094   0.318   4.940   8.400
 3487TIP3   OH232095   0.925   5.321   8.396
 3487TIP3    H132096   0.833   5.347   8.422
 3487TIP3    H232097   0.963   5.411   8.386
 3488TIP3   OH232098   0.673   5.384   8.463
 3488TIP3    H132099   0.687   5.455   8.396
 3488TIP3    H232100   0.654   5.441   8.540
 3489TIP3   OH232101   0.531   4.073   8.378
 3489TIP3    H132102   0.568   4.142   8.439
 3489TIP3    H232103   0.596   4.001   8.383
 3490TIP3   OH232104   0.403   5.081   8.317
 3490TIP3    H132105   0.488   5.107   8.359
 3490TIP3    H232106   0.439   5.047   8.233
 3491TIP3   OH232107   0.232   4.408   8.209
 3491TIP3    H132108   0.247   4.485   8.265
 3491TIP3    H232109   0.137   4.394   8.225
 3492TIP3   OH232110   1.016   5.381   8.136
 3492TIP3    H132111   0.943   5.329   8.178
 3492TIP3    H232112   1.027   5.316   8.064
 3493TIP3   OH232113   1.476   5.351   8.158
 3493TIP3    H132114   1.494   5.273   8.215
 3493TIP3    H232115   1.554   5.351   8.098
 3494TIP3   OH232116   0.534   4.911   8.116
 3494TIP3    H132117   0.519   4.824   8.154
 3494TIP3    H232118   0.615   4.894   8.063
 3495TIP3   OH232119   1.143   5.042   8.159
 3495TIP3    H132120   1.078   5.058   8.229
 3495TIP3    H232121   1.110   4.956   8.122
 3496TIP3   OH232122   0.692   4.764   8.370
 3496TIP3    H132123   0.616   4.718   8.408
 3496TIP3    H232124   0.712   4.709   8.290
 3497TIP3   OH232125   0.761   4.585   8.170
 3497TIP3    H132126   0.732   4.588   8.076
 3497TIP3    H232127   0.857   4.590   8.158
 3498TIP3   OH232128   1.713   4.807   8.145
 3498TIP3    H132129   1.704   4.769   8.055
 3498TIP3    H232130   1.702   4.904   8.127
 3499TIP3   OH232131   0.780   5.612   8.374
 3499TIP3    H132132   0.872   5.642   8.381
 3499TIP3    H232133   0.752   5.664   8.296
 3500TIP3   OH232134   0.099   5.149   8.276
 3500TIP3    H132135   0.189   5.185   8.284
 3500TIP3    H232136   0.116   5.067   8.227
 3501TIP3   OH232137   1.865   4.689   8.346
 3501TIP3    H132138   1.819   4.720   8.265
 3501TIP3    H232139   1.846   4.762   8.409
 3502TIP3   OH232140   1.663   4.388   8.204
 3502TIP3    H132141   1.692   4.441   8.128
 3502TIP3    H232142   1.632   4.308   8.161
 3503TIP3   OH232143   1.601   4.111   8.154
 3503TIP3    H132144   1.665   4.074   8.219
 3503TIP3    H232145   1.521   4.119   8.209
 3504TIP3   OH232146   1.797   3.995   8.319
 3504TIP3    H132147   1.824   3.944   8.238
 3504TIP3    H232148   1.882   4.037   8.344
 3505TIP3   OH232149   0.179   3.865   8.351
 3505TIP3    H132150   0.204   3.956   8.325
 3505TIP3    H232151   0.146   3.881   8.441
 3506TIP3   OH232152   0.307   4.074   8.245
 3506TIP3    H132153   0.367   4.018   8.192
 3506TIP3    H232154   0.362   4.088   8.325
 3507TIP3   OH232155   1.049   5.562   8.326
 3507TIP3    H132156   1.138   5.594   8.305
 3507TIP3    H232157   1.030   5.504   8.249
 3508TIP3   OH232158   0.261   5.538   8.199
 3508TIP3    H132159   0.221   5.606   8.259
 3508TIP3    H232160   0.335   5.512   8.255
 3509TIP3   OH232161   2.922   4.602   8.247
 3509TIP3    H132162   2.992   4.635   8.306
 3509TIP3    H232163   2.969   4.522   8.217
 3510TIP3   OH232164   3.161   4.650   8.358
 3510TIP3    H132165   3.120   4.708   8.424
 3510TIP3    H232166   3.219   4.712   8.306
 3511TIP3   OH232167   3.550   3.821   8.458
 3511TIP3    H132168   3.466   3.813   8.411
 3511TIP3    H232169   3.592   3.895   8.410
 3512TIP3   OH232170   3.658   5.269   8.218
 3512TIP3    H132171   3.663   5.365   8.240
 3512TIP3    H232172   3.733   5.239   8.273
 3513TIP3   OH232173   3.241   5.497   8.332
 3513TIP3    H132174   3.269   5.439   8.257
 3513TIP3    H232175   3.287   5.448   8.404
 3514TIP3   OH232176   3.343   4.816   8.258
 3514TIP3    H132177   3.315   4.840   8.168
 3514TIP3    H232178   3.436   4.792   8.238
 3515TIP3   OH232179   2.895   4.117   8.298
 3515TIP3    H132180   2.822   4.172   8.329
 3515TIP3    H232181   2.851   4.046   8.250
 3516TIP3   OH232182   2.532   4.181   8.167
 3516TIP3    H132183   2.477   4.132   8.233
 3516TIP3    H232184   2.468   4.249   8.137
 3517TIP3   OH232185   1.981   4.176   8.404
 3517TIP3    H132186   2.040   4.231   8.348
 3517TIP3    H232187   1.926   4.249   8.440
 3518TIP3   OH232188   2.423   4.455   8.299
 3518TIP3    H132189   2.392   4.405   8.222
 3518TIP3    H232190   2.492   4.509   8.256
 3519TIP3   OH232191   3.151   4.214   8.292
 3519TIP3    H132192   3.054   4.204   8.311
 3519TIP3    H232193   3.181   4.271   8.366
 3520TIP3   OH232194   3.233   4.405   8.458
 3520TIP3    H132195   3.322   4.416   8.495
 3520TIP3    H232196   3.222   4.487   8.404
 3521TIP3   OH232197   2.972   5.039   8.419
 3521TIP3    H132198   2.928   5.126   8.425
 3521TIP3    H232199   2.898   4.980   8.438
 3522TIP3   OH232200   3.701   4.403   8.446
 3522TIP3    H132201   3.651   4.368   8.369
 3522TIP3    H232202   3.714   4.495   8.413
 3523TIP3   OH232203   2.137   4.710   8.250
 3523TIP3    H132204   2.159   4.781   8.313
 3523TIP3    H232205   2.046   4.688   8.280
 3524TIP3   OH232206   3.325   5.107   8.294
 3524TIP3    H132207   3.315   5.128   8.388
 3524TIP3    H232208   3.239   5.066   8.275
 3525TIP3   OH232209   3.700   5.515   8.305
 3525TIP3    H132210   3.774   5.573   8.323
 3525TIP3    H232211   3.628   5.570   8.342
 3526TIP3   OH232212   2.691   5.201   8.132
 3526TIP3    H132213   2.657   5.145   8.061
 3526TIP3    H232214   2.649   5.158   8.211
 3527TIP3   OH232215   2.571   5.129   8.365
 3527TIP3    H132216   2.577   5.076   8.447
 3527TIP3    H232217   2.565   5.219   8.405
 3528TIP3   OH232218   2.210   4.876   8.450
 3528TIP3    H132219   2.209   4.795   8.504
 3528TIP3    H232220   2.305   4.894   8.443
 3529TIP3   OH232221   2.818   5.279   8.431
 3529TIP3    H132222   2.724   5.306   8.428
 3529TIP3    H232223   2.860   5.356   8.389
 3530TIP3   OH232224   2.559   5.370   8.467
 3530TIP3    H132225   2.549   5.432   8.392
 3530TIP3    H232226   2.565   5.433   8.540
 3531TIP3   OH232227   2.412   4.060   8.369
 3531TIP3    H132228   2.403   4.123   8.443
 3531TIP3    H232229   2.504   4.033   8.385
 3532TIP3   OH232230   2.263   5.133   8.279
 3532TIP3    H132231   2.323   5.161   8.349
 3532TIP3    H232232   2.323   5.084   8.221
 3533TIP3   OH232233   2.083   4.396   8.250
 3533TIP3    H132234   2.142   4.473   8.246
 3533TIP3    H232235   2.021   4.412   8.179
 3534TIP3   OH232236   2.881   5.397   8.135
 3534TIP3    H132237   2.826   5.316   8.137
 3534TIP3    H232238   2.961   5.365   8.089
 3535TIP3   OH232239   3.338   5.323   8.133
 3535TIP3    H132240   3.350   5.244   8.191
 3535TIP3    H232241   3.424   5.326   8.087
 3536TIP3   OH232242   2.444   4.938   8.138
 3536TIP3    H132243   2.492   4.930   8.222
 3536TIP3    H232244   2.515   4.910   8.075
 3537TIP3   OH232245   3.029   5.070   8.146
 3537TIP3    H132246   3.002   5.059   8.240
 3537TIP3    H232247   3.012   4.979   8.111
 3538TIP3   OH232248   2.555   4.750   8.363
 3538TIP3    H132249   2.495   4.679   8.394
 3538TIP3    H232250   2.593   4.706   8.284
 3539TIP3   OH232251   2.661   4.585   8.181
 3539TIP3    H132252   2.656   4.601   8.084
 3539TIP3    H232253   2.759   4.580   8.193
 3540TIP3   OH232254   3.600   4.783   8.167
 3540TIP3    H132255   3.589   4.754   8.074
 3540TIP3    H232256   3.604   4.881   8.156
 3541TIP3   OH232257   2.657   5.613   8.405
 3541TIP3    H132258   2.753   5.603   8.385
 3541TIP3    H232259   2.629   5.669   8.331
 3542TIP3   OH232260   1.984   5.071   8.280
 3542TIP3    H132261   2.082   5.072   8.279
 3542TIP3    H232262   1.962   5.026   8.196
 3543TIP3   OH232263   3.756   4.678   8.352
 3543TIP3    H132264   3.700   4.704   8.275
 3543TIP3    H232265   3.738   4.751   8.413
 3544TIP3   OH232266   3.570   4.406   8.202
 3544TIP3    H132267   3.565   4.464   8.124
 3544TIP3    H232268   3.531   4.324   8.166
 3545TIP3   OH232269   3.482   4.139   8.173
 3545TIP3    H132270   3.547   4.096   8.232
 3545TIP3    H232271   3.406   4.147   8.233
 3546TIP3   OH232272   3.686   4.010   8.307
 3546TIP3    H132273   3.708   3.959   8.225
 3546TIP3    H232274   3.772   4.052   8.330
 3547TIP3   OH232275   2.068   3.855   8.381
 3547TIP3    H132276   2.079   3.928   8.316
 3547TIP3    H232277   2.086   3.904   8.463
 3548TIP3   OH232278   2.186   4.034   8.225
 3548TIP3    H132279   2.247   3.977   8.173
 3548TIP3    H232280   2.240   4.047   8.306
 3549TIP3   OH232281   2.927   5.541   8.351
 3549TIP3    H132282   3.016   5.575   8.336
 3549TIP3    H232283   2.909   5.501   8.262
 3550TIP3   OH232284   2.158   5.527   8.180
 3550TIP3    H132285   2.130   5.564   8.266
 3550TIP3    H232286   2.226   5.464   8.208
 3551TIP3   OH232287   4.798   4.609   8.260
 3551TIP3    H132288   4.870   4.636   8.319
 3551TIP3    H232289   4.842   4.532   8.220
 3552TIP3   OH232290   5.032   4.667   8.384
 3552TIP3    H132291   5.017   4.724   8.462
 3552TIP3    H232292   5.083   4.726   8.324
 3553TIP3   OH232293   5.437   3.819   8.455
 3553TIP3    H132294   5.352   3.802   8.412
 3553TIP3    H232295   5.472   3.896   8.406
 3554TIP3   OH232296   5.528   5.268   8.225
 3554TIP3    H132297   5.554   5.361   8.240
 3554TIP3    H232298   5.599   5.225   8.276
 3555TIP3   OH232299   5.116   5.495   8.325
 3555TIP3    H132300   5.144   5.435   8.252
 3555TIP3    H232301   5.163   5.451   8.399
 3556TIP3   OH232302   5.224   4.801   8.249
 3556TIP3    H132303   5.198   4.796   8.155
 3556TIP3    H232304   5.321   4.805   8.239
 3557TIP3   OH232305   4.781   4.124   8.297
 3557TIP3    H132306   4.701   4.156   8.342
 3557TIP3    H232307   4.751   4.047   8.248
 3558TIP3   OH232308   4.416   4.188   8.171
 3558TIP3    H132309   4.354   4.147   8.235
 3558TIP3    H232310   4.363   4.262   8.136
 3559TIP3   OH232311   3.863   4.191   8.406
 3559TIP3    H132312   3.917   4.246   8.345
 3559TIP3    H232313   3.796   4.258   8.431
 3560TIP3   OH232314   4.303   4.448   8.299
 3560TIP3    H132315   4.280   4.405   8.216
 3560TIP3    H232316   4.368   4.513   8.266
 3561TIP3   OH232317   5.033   4.229   8.261
 3561TIP3    H132318   4.941   4.211   8.292
 3561TIP3    H232319   5.074   4.272   8.339
 3562TIP3   OH232320   5.100   4.405   8.465
 3562TIP3    H132321   5.161   4.421   8.539
 3562TIP3    H232322   5.099   4.488   8.414
 3563TIP3   OH232323   4.843   5.048   8.419
 3563TIP3    H132324   4.791   5.131   8.424
 3563TIP3    H232325   4.778   4.981   8.446
 3564TIP3   OH232326   5.586   4.399   8.481
 3564TIP3    H132327   5.575   4.358   8.391
 3564TIP3    H232328   5.590   4.493   8.457
 3565TIP3   OH232329   4.021   4.676   8.255
 3565TIP3    H132330   4.041   4.750   8.315
 3565TIP3    H232331   3.930   4.657   8.286
 3566TIP3   OH232332   5.209   5.092   8.307
 3566TIP3    H132333   5.180   5.134   8.389
 3566TIP3    H232334   5.128   5.046   8.279
 3567TIP3   OH232335   5.588   5.518   8.295
 3567TIP3    H132336   5.662   5.570   8.330
 3567TIP3    H232337   5.513   5.576   8.318
 3568TIP3   OH232338   4.586   5.198   8.135
 3568TIP3    H132339   4.547   5.148   8.062
 3568TIP3    H232340   4.545   5.153   8.212
 3569TIP3   OH232341   4.445   5.134   8.367
 3569TIP3    H132342   4.475   5.090   8.448
 3569TIP3    H232343   4.428   5.225   8.401
 3570TIP3   OH232344   4.084   4.866   8.423
 3570TIP3    H132345   4.097   4.792   8.485
 3570TIP3    H232346   4.174   4.901   8.412
 3571TIP3   OH232347   4.696   5.282   8.424
 3571TIP3    H132348   4.608   5.323   8.428
 3571TIP3    H232349   4.744   5.343   8.364
 3572TIP3   OH232350   4.418   5.370   8.483
 3572TIP3    H132351   4.407   5.440   8.414
 3572TIP3    H232352   4.445   5.426   8.557
 3573TIP3   OH232353   4.291   4.069   8.373
 3573TIP3    H132354   4.307   4.136   8.442
 3573TIP3    H232355   4.378   4.027   8.368
 3574TIP3   OH232356   4.140   5.134   8.282
 3574TIP3    H132357   4.201   5.172   8.348
 3574TIP3    H232358   4.204   5.089   8.225
 3575TIP3   OH232359   3.968   4.392   8.247
 3575TIP3    H132360   4.025   4.470   8.250
 3575TIP3    H232361   3.903   4.417   8.180
 3576TIP3   OH232362   4.780   5.401   8.140
 3576TIP3    H132363   4.725   5.320   8.131
 3576TIP3    H232364   4.861   5.372   8.093
 3577TIP3   OH232365   5.207   5.322   8.137
 3577TIP3    H132366   5.234   5.249   8.197
 3577TIP3    H232367   5.286   5.332   8.080
 3578TIP3   OH232368   4.316   4.931   8.128
 3578TIP3    H132369   4.360   4.912   8.212
 3578TIP3    H232370   4.388   4.907   8.065
 3579TIP3   OH232371   4.901   5.062   8.151
 3579TIP3    H132372   4.884   5.050   8.247
 3579TIP3    H232373   4.881   4.972   8.115
 3580TIP3   OH232374   4.415   4.753   8.368
 3580TIP3    H132375   4.380   4.682   8.424
 3580TIP3    H232376   4.455   4.701   8.295
 3581TIP3   OH232377   4.538   4.587   8.181
 3581TIP3    H132378   4.536   4.601   8.083
 3581TIP3    H232379   4.635   4.582   8.195
 3582TIP3   OH232380   5.489   4.795   8.147
 3582TIP3    H132381   5.463   4.771   8.055
 3582TIP3    H232382   5.478   4.893   8.141
 3583TIP3   OH232383   4.541   5.604   8.399
 3583TIP3    H132384   4.638   5.615   8.402
 3583TIP3    H232385   4.521   5.660   8.322
 3584TIP3   OH232386   3.870   5.089   8.292
 3584TIP3    H132387   3.968   5.087   8.289
 3584TIP3    H232388   3.847   5.039   8.212
 3585TIP3   OH232389   5.634   4.670   8.342
 3585TIP3    H132390   5.589   4.711   8.265
 3585TIP3    H232391   5.639   4.744   8.404
 3586TIP3   OH232392   5.526   4.365   8.226
 3586TIP3    H132393   5.520   4.457   8.193
 3586TIP3    H232394   5.435   4.346   8.252
 3587TIP3   OH232395   5.365   4.113   8.160
 3587TIP3    H132396   5.435   4.073   8.217
 3587TIP3    H232397   5.291   4.118   8.222
 3588TIP3   OH232398   5.574   3.994   8.300
 3588TIP3    H132399   5.605   3.927   8.234
 3588TIP3    H232400   5.661   4.023   8.332
 3589TIP3   OH232401   3.954   3.862   8.388
 3589TIP3    H132402   3.969   3.935   8.325
 3589TIP3    H232403   3.973   3.909   8.471
 3590TIP3   OH232404   4.070   4.036   8.224
 3590TIP3    H132405   4.135   3.983   8.172
 3590TIP3    H232406   4.121   4.054   8.305
 3591TIP3   OH232407   4.836   5.543   8.355
 3591TIP3    H132408   4.933   5.548   8.346
 3591TIP3    H232409   4.814   5.508   8.265
 3592TIP3   OH232410   4.042   5.548   8.185
 3592TIP3    H132411   4.011   5.600   8.261
 3592TIP3    H232412   4.096   5.479   8.226
 3593TIP3   OH232413   6.711   4.584   8.264
 3593TIP3    H132414   6.765   4.610   8.343
 3593TIP3    H232415   6.765   4.509   8.235
 3594TIP3   OH232416   6.922   4.652   8.428
 3594TIP3    H132417   6.985   4.674   8.500
 3594TIP3    H232418   6.965   4.693   8.349
 3595TIP3   OH232419   7.272   3.827   8.435
 3595TIP3    H132420   7.178   3.820   8.415
 3595TIP3    H232421   7.318   3.796   8.355
 3596TIP3   OH232422   6.989   5.507   8.313
 3596TIP3    H132423   6.989   5.437   8.245
 3596TIP3    H232424   7.035   5.464   8.388
 3597TIP3   OH232425   7.056   4.790   8.240
 3597TIP3    H132426   7.041   4.790   8.142
 3597TIP3    H232427   7.098   4.878   8.245
 3598TIP3   OH232428   6.632   4.152   8.256
 3598TIP3    H132429   6.568   4.156   8.327
 3598TIP3    H232430   6.637   4.057   8.239
 3599TIP3   OH232431   6.315   4.135   8.182
 3599TIP3    H132432   6.264   4.116   8.264
 3599TIP3    H232433   6.244   4.135   8.116
 3600TIP3   OH232434   5.757   4.175   8.407
 3600TIP3    H132435   5.749   4.238   8.332
 3600TIP3    H232436   5.706   4.222   8.475
 3601TIP3   OH232437   6.206   4.420   8.319
 3601TIP3    H132438   6.187   4.395   8.226
 3601TIP3    H232439   6.280   4.481   8.299
 3602TIP3   OH232440   6.903   4.194   8.287
 3602TIP3    H132441   6.813   4.226   8.303
 3602TIP3    H232442   6.954   4.250   8.350
 3603TIP3   OH232443   7.005   4.387   8.439
 3603TIP3    H132444   7.100   4.384   8.456
 3603TIP3    H232445   6.989   4.465   8.384
 3604TIP3   OH232446   6.722   5.058   8.416
 3604TIP3    H132447   6.664   5.136   8.410
 3604TIP3    H232448   6.669   4.993   8.464
 3605TIP3   OH232449   5.896   4.687   8.235
 3605TIP3    H132450   5.932   4.757   8.295
 3605TIP3    H232451   5.804   4.681   8.266
 3606TIP3   OH232452   7.062   5.072   8.306
 3606TIP3    H132453   7.046   5.135   8.379
 3606TIP3    H232454   6.971   5.054   8.276
 3607TIP3   OH232455   6.481   5.215   8.121
 3607TIP3    H132456   6.443   5.154   8.055
 3607TIP3    H232457   6.444   5.175   8.202
 3608TIP3   OH232458   6.336   5.135   8.365
 3608TIP3    H132459   6.390   5.094   8.434
 3608TIP3    H232460   6.313   5.221   8.408
 3609TIP3   OH232461   5.958   4.854   8.440
 3609TIP3    H132462   5.936   4.790   8.512
 3609TIP3    H232463   6.050   4.877   8.464
 3610TIP3   OH232464   6.571   5.305   8.402
 3610TIP3    H132465   6.480   5.339   8.404
 3610TIP3    H232466   6.621   5.386   8.377
 3611TIP3   OH232467   6.302   5.373   8.485
 3611TIP3    H132468   6.286   5.443   8.420
 3611TIP3    H232469   6.331   5.425   8.561
 3612TIP3   OH232470   6.209   4.035   8.411
 3612TIP3    H132471   6.250   4.103   8.470
 3612TIP3    H232472   6.279   3.968   8.402
 3613TIP3   OH232473   6.036   5.143   8.300
 3613TIP3    H132474   6.107   5.173   8.359
 3613TIP3    H232475   6.091   5.092   8.238
 3614TIP3   OH232476   5.837   4.409   8.248
 3614TIP3    H132477   5.888   4.492   8.256
 3614TIP3    H232478   5.773   4.435   8.180
 3615TIP3   OH232479   6.680   5.421   8.136
 3615TIP3    H132480   6.623   5.340   8.133
 3615TIP3    H232481   6.763   5.385   8.098
 3616TIP3   OH232482   7.095   5.323   8.141
 3616TIP3    H132483   7.133   5.279   8.218
 3616TIP3    H232484   7.175   5.331   8.083
 3617TIP3   OH232485   6.222   4.908   8.119
 3617TIP3    H132486   6.265   4.878   8.201
 3617TIP3    H232487   6.294   4.894   8.052
 3618TIP3   OH232488   6.804   5.051   8.153
 3618TIP3    H132489   6.778   5.048   8.248
 3618TIP3    H232490   6.772   4.961   8.125
 3619TIP3   OH232491   6.316   4.758   8.342
 3619TIP3    H132492   6.314   4.707   8.424
 3619TIP3    H232493   6.371   4.702   8.283
 3620TIP3   OH232494   6.439   4.577   8.197
 3620TIP3    H132495   6.428   4.599   8.102
 3620TIP3    H232496   6.537   4.583   8.206
 3621TIP3   OH232497   6.460   5.603   8.399
 3621TIP3    H132498   6.558   5.610   8.401
 3621TIP3    H232499   6.438   5.665   8.327
 3622TIP3   OH232500   5.750   5.085   8.278
 3622TIP3    H132501   5.847   5.093   8.286
 3622TIP3    H232502   5.741   5.030   8.197
 3623TIP3   OH232503   7.285   4.390   8.220
 3623TIP3    H132504   7.274   4.465   8.159
 3623TIP3    H232505   7.257   4.316   8.162
 3624TIP3   OH232506   7.239   4.123   8.163
 3624TIP3    H132507   7.240   4.109   8.259
 3624TIP3    H232508   7.145   4.106   8.141
 3625TIP3   OH232509   5.849   3.878   8.377
 3625TIP3    H132510   5.858   3.966   8.336
 3625TIP3    H232511   5.842   3.904   8.470
 3626TIP3   OH232512   6.016   4.054   8.243
 3626TIP3    H132513   6.019   3.980   8.178
 3626TIP3    H232514   6.086   4.022   8.304
 3627TIP3   OH232515   6.732   5.538   8.366
 3627TIP3    H132516   6.828   5.540   8.349
 3627TIP3    H232517   6.704   5.520   8.272
 3628TIP3   OH232518   5.917   5.535   8.180
 3628TIP3    H132519   5.881   5.595   8.249
 3628TIP3    H232520   5.986   5.488   8.229
 3629TIP3   OH232521   1.041   6.480   8.239
 3629TIP3    H132522   1.111   6.516   8.298
 3629TIP3    H232523   1.085   6.396   8.218
 3630TIP3   OH232524   1.270   6.532   8.371
 3630TIP3    H132525   1.264   6.581   8.454
 3630TIP3    H232526   1.336   6.583   8.317
 3631TIP3   OH232527   1.651   5.697   8.448
 3631TIP3    H132528   1.564   5.686   8.410
 3631TIP3    H232529   1.684   5.779   8.404
 3632TIP3   OH232530   1.758   7.158   8.242
 3632TIP3    H132531   1.782   7.247   8.273
 3632TIP3    H232532   1.828   7.102   8.281
 3633TIP3   OH232533   1.466   6.643   8.242
 3633TIP3    H132534   1.441   6.639   8.148
 3633TIP3    H232535   1.564   6.647   8.233
 3634TIP3   OH232536   1.008   6.020   8.283
 3634TIP3    H132537   0.934   6.061   8.329
 3634TIP3    H232538   0.965   5.956   8.225
 3635TIP3   OH232539   0.661   6.058   8.167
 3635TIP3    H132540   0.613   6.028   8.246
 3635TIP3    H232541   0.594   6.120   8.128
 3636TIP3   OH232542   0.106   6.103   8.392
 3636TIP3    H132543   0.197   6.086   8.360
 3636TIP3    H232544   0.066   6.157   8.320
 3637TIP3   OH232545   0.556   6.324   8.327
 3637TIP3    H132546   0.497   6.284   8.261
 3637TIP3    H232547   0.624   6.362   8.267
 3638TIP3   OH232548   1.268   6.084   8.324
 3638TIP3    H132549   1.172   6.076   8.341
 3638TIP3    H232550   1.297   6.146   8.396
 3639TIP3   OH232551   1.330   6.292   8.469
 3639TIP3    H132552   1.420   6.294   8.504
 3639TIP3    H232553   1.329   6.368   8.408
 3640TIP3   OH232554   1.076   6.964   8.431
 3640TIP3    H132555   1.002   7.028   8.437
 3640TIP3    H232556   1.039   6.884   8.468
 3641TIP3   OH232557   1.820   6.291   8.440
 3641TIP3    H132558   1.766   6.243   8.374
 3641TIP3    H232559   1.841   6.373   8.391
 3642TIP3   OH232560   0.155   6.542   8.287
 3642TIP3    H132561   0.215   6.609   8.327
 3642TIP3    H232562   0.069   6.576   8.314
 3643TIP3   OH232563   1.431   6.953   8.310
 3643TIP3    H132564   1.417   7.007   8.388
 3643TIP3    H232565   1.340   6.944   8.279
 3644TIP3   OH232566   0.835   7.047   8.113
 3644TIP3    H132567   0.844   6.963   8.066
 3644TIP3    H232568   0.771   7.025   8.182
 3645TIP3   OH232569   0.643   6.954   8.384
 3645TIP3    H132570   0.720   6.977   8.439
 3645TIP3    H232571   0.619   7.043   8.351
 3646TIP3   OH232572   0.299   6.739   8.391
 3646TIP3    H132573   0.316   6.713   8.483
 3646TIP3    H232574   0.387   6.772   8.369
 3647TIP3   OH232575   0.887   7.162   8.412
 3647TIP3    H132576   0.794   7.192   8.418
 3647TIP3    H232577   0.923   7.227   8.347
 3648TIP3   OH232578   0.634   7.227   8.452
 3648TIP3    H132579   0.640   7.320   8.422
 3648TIP3    H232580   0.617   7.244   8.546
 3649TIP3   OH232581   0.527   5.957   8.390
 3649TIP3    H132582   0.562   6.019   8.460
 3649TIP3    H232583   0.592   5.886   8.391
 3650TIP3   OH232584   0.352   7.035   8.245
 3650TIP3    H132585   0.380   7.080   8.326
 3650TIP3    H232586   0.421   6.967   8.236
 3651TIP3   OH232587   0.260   6.300   8.208
 3651TIP3    H132588   0.257   6.366   8.279
 3651TIP3    H232589   0.167   6.273   8.202
 3652TIP3   OH232590   0.993   7.263   8.182
 3652TIP3    H132591   0.933   7.189   8.161
 3652TIP3    H232592   1.077   7.225   8.150
 3653TIP3   OH232593   1.422   7.207   8.145
 3653TIP3    H132594   1.479   7.179   8.217
 3653TIP3    H232595   1.490   7.230   8.077
 3654TIP3   OH232596   0.571   6.836   8.133
 3654TIP3    H132597   0.579   6.776   8.211
 3654TIP3    H232598   0.650   6.803   8.085
 3655TIP3   OH232599   1.128   6.930   8.159
 3655TIP3    H132600   1.102   6.930   8.253
 3655TIP3    H232601   1.109   6.838   8.130
 3656TIP3   OH232602   0.613   6.638   8.313
 3656TIP3    H132603   0.562   6.592   8.382
 3656TIP3    H232604   0.669   6.566   8.278
 3657TIP3   OH232605   0.775   6.454   8.183
 3657TIP3    H132606   0.774   6.488   8.091
 3657TIP3    H232607   0.871   6.439   8.193
 3658TIP3   OH232608   1.718   6.667   8.153
 3658TIP3    H132609   1.702   6.645   8.058
 3658TIP3    H232610   1.723   6.766   8.148
 3659TIP3   OH232611   0.085   7.020   8.279
 3659TIP3    H132612   0.177   7.038   8.252
 3659TIP3    H232613   0.090   6.923   8.281
 3660TIP3   OH232614   1.869   6.544   8.341
 3660TIP3    H132615   1.824   6.578   8.260
 3660TIP3    H232616   1.843   6.613   8.405
 3661TIP3   OH232617   1.632   6.293   8.201
 3661TIP3    H132618   1.664   6.344   8.125
 3661TIP3    H232619   1.619   6.204   8.163
 3662TIP3   OH232620   1.593   6.023   8.153
 3662TIP3    H132621   1.660   5.979   8.211
 3662TIP3    H232622   1.522   6.037   8.217
 3663TIP3   OH232623   1.792   5.889   8.306
 3663TIP3    H132624   1.823   5.823   8.239
 3663TIP3    H232625   1.878   5.923   8.342
 3664TIP3   OH232626   0.198   5.744   8.356
 3664TIP3    H132627   0.224   5.833   8.325
 3664TIP3    H232628   0.153   5.767   8.439
 3665TIP3   OH232629   0.318   5.966   8.239
 3665TIP3    H132630   0.374   5.903   8.190
 3665TIP3    H232631   0.372   5.976   8.320
 3666TIP3   OH232632   2.908   6.474   8.251
 3666TIP3    H132633   2.970   6.517   8.312
 3666TIP3    H232634   2.964   6.400   8.220
 3667TIP3   OH232635   3.168   6.543   8.387
 3667TIP3    H132636   3.178   6.586   8.474
 3667TIP3    H232637   3.236   6.589   8.332
 3668TIP3   OH232638   3.544   5.700   8.442
 3668TIP3    H132639   3.453   5.702   8.410
 3668TIP3    H232640   3.581   5.784   8.406
 3669TIP3   OH232641   3.665   7.157   8.230
 3669TIP3    H132642   3.695   7.248   8.246
 3669TIP3    H232643   3.734   7.105   8.276
 3670TIP3   OH232644   3.342   6.672   8.248
 3670TIP3    H132645   3.308   6.708   8.164
 3670TIP3    H232646   3.437   6.663   8.226
 3671TIP3   OH232647   2.889   6.031   8.270
 3671TIP3    H132648   2.801   6.044   8.308
 3671TIP3    H232649   2.885   5.941   8.236
 3672TIP3   OH232650   2.534   6.056   8.179
 3672TIP3    H132651   2.473   6.015   8.246
 3672TIP3    H232652   2.480   6.130   8.146
 3673TIP3   OH232653   1.980   6.054   8.409
 3673TIP3    H132654   2.044   6.103   8.353
 3673TIP3    H232655   1.931   6.130   8.443
 3674TIP3   OH232656   2.424   6.329   8.311
 3674TIP3    H132657   2.373   6.280   8.245
 3674TIP3    H232658   2.478   6.386   8.254
 3675TIP3   OH232659   3.158   6.094   8.292
 3675TIP3    H132660   3.060   6.094   8.306
 3675TIP3    H232661   3.190   6.148   8.368
 3676TIP3   OH232662   3.218   6.293   8.455
 3676TIP3    H132663   3.308   6.295   8.493
 3676TIP3    H232664   3.214   6.376   8.403
 3677TIP3   OH232665   2.955   6.924   8.426
 3677TIP3    H132666   2.904   7.007   8.427
 3677TIP3    H232667   2.896   6.866   8.474
 3678TIP3   OH232668   3.709   6.288   8.438
 3678TIP3    H132669   3.657   6.249   8.364
 3678TIP3    H232670   3.722   6.377   8.400
 3679TIP3   OH232671   2.146   6.582   8.256
 3679TIP3    H132672   2.174   6.653   8.318
 3679TIP3    H232673   2.055   6.564   8.287
 3680TIP3   OH232674   3.291   6.940   8.295
 3680TIP3    H132675   3.260   6.998   8.366
 3680TIP3    H232676   3.208   6.924   8.246
 3681TIP3   OH232677   2.717   7.073   8.089
 3681TIP3    H132678   2.664   7.044   8.012
 3681TIP3    H232679   2.661   7.036   8.159
 3682TIP3   OH232680   2.541   7.014   8.390
 3682TIP3    H132681   2.589   7.001   8.473
 3682TIP3    H232682   2.587   7.090   8.353
 3683TIP3   OH232683   2.200   6.755   8.446
 3683TIP3    H132684   2.159   6.691   8.508
 3683TIP3    H232685   2.294   6.757   8.476
 3684TIP3   OH232686   2.775   7.176   8.424
 3684TIP3    H132687   2.709   7.249   8.438
 3684TIP3    H232688   2.831   7.219   8.355
 3685TIP3   OH232689   2.593   7.367   8.454
 3685TIP3    H132690   2.546   7.350   8.372
 3685TIP3    H232691   2.528   7.345   8.522
 3686TIP3   OH232692   2.405   5.946   8.380
 3686TIP3    H132693   2.413   6.008   8.455
 3686TIP3    H232694   2.490   5.900   8.386
 3687TIP3   OH232695   2.223   7.024   8.265
 3687TIP3    H132696   2.260   7.091   8.325
 3687TIP3    H232697   2.298   6.965   8.251
 3688TIP3   OH232698   2.082   6.278   8.250
 3688TIP3    H132699   2.132   6.361   8.238
 3688TIP3    H232700   2.006   6.292   8.193
 3689TIP3   OH232701   2.889   7.263   8.199
 3689TIP3    H132702   2.835   7.192   8.159
 3689TIP3    H232703   2.971   7.251   8.149
 3690TIP3   OH232704   3.306   7.195   8.154
 3690TIP3    H132705   3.360   7.165   8.230
 3690TIP3    H232706   3.377   7.227   8.094
 3691TIP3   OH232707   2.459   6.851   8.126
 3691TIP3    H132708   2.476   6.799   8.206
 3691TIP3    H232709   2.527   6.815   8.066
 3692TIP3   OH232710   3.017   6.939   8.153
 3692TIP3    H132711   2.990   6.927   8.247
 3692TIP3    H232712   2.995   6.850   8.116
 3693TIP3   OH232713   2.542   6.631   8.353
 3693TIP3    H132714   2.535   6.569   8.427
 3693TIP3    H232715   2.561   6.573   8.276
 3694TIP3   OH232716   2.646   6.468   8.164
 3694TIP3    H132717   2.654   6.495   8.069
 3694TIP3    H232718   2.740   6.469   8.192
 3695TIP3   OH232719   3.604   6.674   8.156
 3695TIP3    H132720   3.589   6.647   8.063
 3695TIP3    H232721   3.595   6.772   8.148
 3696TIP3   OH232722   1.961   6.978   8.284
 3696TIP3    H132723   2.060   6.983   8.283
 3696TIP3    H232724   1.947   6.919   8.208
 3697TIP3   OH232725   3.749   6.551   8.345
 3697TIP3    H132726   3.699   6.581   8.265
 3697TIP3    H232727   3.706   6.606   8.413
 3698TIP3   OH232728   3.573   6.290   8.197
 3698TIP3    H132729   3.575   6.348   8.120
 3698TIP3    H232730   3.527   6.211   8.162
 3699TIP3   OH232731   3.479   6.025   8.175
 3699TIP3    H132732   3.545   5.979   8.231
 3699TIP3    H232733   3.405   6.035   8.238
 3700TIP3   OH232734   3.682   5.901   8.306
 3700TIP3    H132735   3.706   5.844   8.228
 3700TIP3    H232736   3.769   5.933   8.337
 3701TIP3   OH232737   2.065   5.746   8.388
 3701TIP3    H132738   2.082   5.809   8.316
 3701TIP3    H232739   2.079   5.803   8.466
 3702TIP3   OH232740   2.179   5.925   8.221
 3702TIP3    H132741   2.240   5.869   8.169
 3702TIP3    H232742   2.228   5.936   8.305
 3703TIP3   OH232743   4.808   6.484   8.249
 3703TIP3    H132744   4.876   6.528   8.304
 3703TIP3    H232745   4.863   6.410   8.215
 3704TIP3   OH232746   5.052   6.536   8.373
 3704TIP3    H132747   5.075   6.577   8.459
 3704TIP3    H232748   5.107   6.588   8.310
 3705TIP3   OH232749   5.416   5.697   8.455
 3705TIP3    H132750   5.327   5.703   8.418
 3705TIP3    H232751   5.462   5.774   8.414
 3706TIP3   OH232752   5.530   7.143   8.252
 3706TIP3    H132753   5.551   7.238   8.251
 3706TIP3    H232754   5.607   7.101   8.296
 3707TIP3   OH232755   5.235   6.677   8.252
 3707TIP3    H132756   5.207   6.694   8.160
 3707TIP3    H232757   5.331   6.666   8.237
 3708TIP3   OH232758   4.784   6.002   8.300
 3708TIP3    H132759   4.712   6.043   8.349
 3708TIP3    H232760   4.742   5.940   8.241
 3709TIP3   OH232761   4.424   6.054   8.163
 3709TIP3    H132762   4.366   6.009   8.228
 3709TIP3    H232763   4.368   6.130   8.135
 3710TIP3   OH232764   3.875   6.065   8.403
 3710TIP3    H132765   3.935   6.106   8.338
 3710TIP3    H232766   3.819   6.140   8.428
 3711TIP3   OH232767   4.311   6.326   8.310
 3711TIP3    H132768   4.281   6.269   8.237
 3711TIP3    H232769   4.379   6.378   8.264
 3712TIP3   OH232770   5.030   6.110   8.280
 3712TIP3    H132771   4.943   6.085   8.320
 3712TIP3    H232772   5.077   6.148   8.358
 3713TIP3   OH232773   5.109   6.287   8.456
 3713TIP3    H132774   5.202   6.298   8.480
 3713TIP3    H232775   5.090   6.366   8.400
 3714TIP3   OH232776   4.842   6.924   8.422
 3714TIP3    H132777   4.787   7.005   8.425
 3714TIP3    H232778   4.789   6.861   8.471
 3715TIP3   OH232779   5.594   6.288   8.442
 3715TIP3    H132780   5.549   6.245   8.366
 3715TIP3    H232781   5.606   6.378   8.407
 3716TIP3   OH232782   4.012   6.570   8.251
 3716TIP3    H132783   4.054   6.620   8.323
 3716TIP3    H232784   3.919   6.562   8.284
 3717TIP3   OH232785   5.204   6.969   8.305
 3717TIP3    H132786   5.180   7.018   8.385
 3717TIP3    H232787   5.116   6.947   8.272
 3718TIP3   OH232788   4.595   7.068   8.110
 3718TIP3    H132789   4.552   7.019   8.039
 3718TIP3    H232790   4.548   7.029   8.186
 3719TIP3   OH232791   4.424   7.023   8.399
 3719TIP3    H132792   4.458   6.963   8.467
 3719TIP3    H232793   4.490   7.093   8.405
 3720TIP3   OH232794   4.090   6.754   8.434
 3720TIP3    H132795   4.034   6.700   8.494
 3720TIP3    H232796   4.176   6.741   8.479
 3721TIP3   OH232797   4.666   7.164   8.407
 3721TIP3    H132798   4.611   7.239   8.440
 3721TIP3    H232799   4.716   7.208   8.334
 3722TIP3   OH232800   4.507   0.016   8.503
 3722TIP3    H132801   4.474   0.107   8.504
 3722TIP3    H232802   4.432  -0.030   8.544
 3723TIP3   OH232803   4.295   5.947   8.373
 3723TIP3    H132804   4.301   6.009   8.448
 3723TIP3    H232805   4.385   5.910   8.376
 3724TIP3   OH232806   4.114   7.045   8.286
 3724TIP3    H132807   4.141   7.098   8.363
 3724TIP3    H232808   4.179   6.973   8.285
 3725TIP3   OH232809   3.972   6.278   8.245
 3725TIP3    H132810   4.014   6.365   8.236
 3725TIP3    H232811   3.887   6.291   8.202
 3726TIP3   OH232812   4.772   7.278   8.182
 3726TIP3    H132813   4.720   7.205   8.141
 3726TIP3    H232814   4.855   7.268   8.132
 3727TIP3   OH232815   5.191   7.206   8.148
 3727TIP3    H132816   5.244   7.163   8.217
 3727TIP3    H232817   5.264   7.241   8.091
 3728TIP3   OH232818   4.328   6.819   8.130
 3728TIP3    H132819   4.345   6.779   8.217
 3728TIP3    H232820   4.406   6.787   8.079
 3729TIP3   OH232821   4.897   6.933   8.153
 3729TIP3    H132822   4.885   6.921   8.250
 3729TIP3    H232823   4.883   6.842   8.120
 3730TIP3   OH232824   4.416   6.620   8.358
 3730TIP3    H132825   4.385   6.551   8.418
 3730TIP3    H232826   4.452   6.569   8.282
 3731TIP3   OH232827   4.545   6.460   8.185
 3731TIP3    H132828   4.553   6.485   8.090
 3731TIP3    H232829   4.639   6.454   8.211
 3732TIP3   OH232830   5.487   6.677   8.156
 3732TIP3    H132831   5.460   6.642   8.068
 3732TIP3    H232832   5.479   6.774   8.139
 3733TIP3   OH232833   3.848   6.984   8.314
 3733TIP3    H132834   3.945   6.985   8.296
 3733TIP3    H232835   3.819   6.924   8.244
 3734TIP3   OH232836   5.635   6.554   8.348
 3734TIP3    H132837   5.591   6.582   8.265
 3734TIP3    H232838   5.581   6.603   8.412
 3735TIP3   OH232839   5.459   6.260   8.191
 3735TIP3    H132840   5.458   6.326   8.121
 3735TIP3    H232841   5.407   6.188   8.149
 3736TIP3   OH232842   5.367   5.998   8.152
 3736TIP3    H132843   5.437   5.961   8.210
 3736TIP3    H232844   5.297   6.017   8.217
 3737TIP3   OH232845   5.573   5.882   8.311
 3737TIP3    H132846   5.602   5.825   8.235
 3737TIP3    H232847   5.659   5.913   8.346
 3738TIP3   OH232848   3.956   5.752   8.383
 3738TIP3    H132849   3.961   5.829   8.324
 3738TIP3    H232850   3.991   5.792   8.466
 3739TIP3   OH232851   4.072   5.937   8.225
 3739TIP3    H132852   4.132   5.878   8.175
 3739TIP3    H232853   4.123   5.945   8.309
 3740TIP3   OH232854   6.687   6.431   8.264
 3740TIP3    H132855   6.740   6.486   8.325
 3740TIP3    H232856   6.744   6.352   8.261
 3741TIP3   OH232857   6.907   6.543   8.397
 3741TIP3    H132858   6.967   6.554   8.473
 3741TIP3    H232859   6.961   6.570   8.321
 3742TIP3   OH232860   7.283   5.749   8.421
 3742TIP3    H132861   7.201   5.791   8.395
 3742TIP3    H232862   7.310   5.697   8.343
 3743TIP3   OH232863   7.102   6.652   8.242
 3743TIP3    H132864   7.058   6.665   8.155
 3743TIP3    H232865   7.115   6.746   8.265
 3744TIP3   OH232866   6.651   6.020   8.247
 3744TIP3    H132867   6.598   6.054   8.320
 3744TIP3    H232868   6.618   5.930   8.238
 3745TIP3   OH232869   6.288   6.059   8.157
 3745TIP3    H132870   6.232   6.015   8.225
 3745TIP3    H232871   6.233   6.138   8.138
 3746TIP3   OH232872   5.755   6.060   8.411
 3746TIP3    H132873   5.812   6.108   8.347
 3746TIP3    H232874   5.692   6.131   8.432
 3747TIP3   OH232875   6.219   6.330   8.309
 3747TIP3    H132876   6.178   6.293   8.228
 3747TIP3    H232877   6.304   6.360   8.272
 3748TIP3   OH232878   6.923   6.056   8.289
 3748TIP3    H132879   6.826   6.049   8.295
 3748TIP3    H232880   6.942   6.128   8.352
 3749TIP3   OH232881   6.994   6.273   8.464
 3749TIP3    H132882   7.082   6.229   8.456
 3749TIP3    H232883   6.993   6.339   8.392
 3750TIP3   OH232884   6.727   6.944   8.438
 3750TIP3    H132885   6.667   7.023   8.434
 3750TIP3    H232886   6.669   6.878   8.478
 3751TIP3   OH232887   5.910   6.608   8.238
 3751TIP3    H132888   5.942   6.672   8.306
 3751TIP3    H232889   5.823   6.583   8.276
 3752TIP3   OH232890   7.032   6.918   8.301
 3752TIP3    H132891   7.035   6.998   8.356
 3752TIP3    H232892   6.939   6.921   8.269
 3753TIP3   OH232893   6.478   7.066   8.111
 3753TIP3    H132894   6.433   7.012   8.044
 3753TIP3    H232895   6.421   7.049   8.188
 3754TIP3   OH232896   6.313   7.011   8.397
 3754TIP3    H132897   6.363   6.969   8.468
 3754TIP3    H232898   6.333   7.105   8.413
 3755TIP3   OH232899   5.981   6.759   8.445
 3755TIP3    H132900   5.929   6.689   8.493
 3755TIP3    H232901   6.064   6.755   8.497
 3756TIP3   OH232902   6.572   7.159   8.413
 3756TIP3    H132903   6.491   7.212   8.431
 3756TIP3    H232904   6.610   7.208   8.337
 3757TIP3   OH232905   6.345   7.273   8.458
 3757TIP3    H132906   6.301   7.297   8.375
 3757TIP3    H232907   6.297   7.324   8.526
 3758TIP3   OH232908   6.166   5.964   8.381
 3758TIP3    H132909   6.191   6.020   8.458
 3758TIP3    H232910   6.251   5.920   8.366
 3759TIP3   OH232911   5.997   7.050   8.289
 3759TIP3    H132912   6.028   7.109   8.359
 3759TIP3    H232913   6.062   6.977   8.295
 3760TIP3   OH232914   5.855   6.271   8.261
 3760TIP3    H132915   5.911   6.350   8.260
 3760TIP3    H232916   5.783   6.292   8.201
 3761TIP3   OH232917   6.657   7.260   8.183
 3761TIP3    H132918   6.602   7.187   8.147
 3761TIP3    H232919   6.739   7.244   8.132
 3762TIP3   OH232920   7.104   7.199   8.139
 3762TIP3    H132921   7.151   7.198   8.223
 3762TIP3    H232922   7.172   7.242   8.081
 3763TIP3   OH232923   6.226   6.823   8.139
 3763TIP3    H132924   6.257   6.804   8.229
 3763TIP3    H232925   6.299   6.790   8.082
 3764TIP3   OH232926   6.786   6.931   8.156
 3764TIP3    H132927   6.756   6.932   8.249
 3764TIP3    H232928   6.755   6.842   8.126
 3765TIP3   OH232929   6.318   6.621   8.369
 3765TIP3    H132930   6.263   6.553   8.410
 3765TIP3    H232931   6.348   6.575   8.288
 3766TIP3   OH232932   6.434   6.464   8.185
 3766TIP3    H132933   6.444   6.490   8.091
 3766TIP3    H232934   6.528   6.450   8.211
 3767TIP3   OH232935   5.739   6.984   8.297
 3767TIP3    H132936   5.837   6.983   8.291
 3767TIP3    H232937   5.715   6.914   8.234
 3768TIP3   OH232938   7.314   6.261   8.210
 3768TIP3    H132939   7.307   6.349   8.168
 3768TIP3    H232940   7.285   6.201   8.138
 3769TIP3   OH232941   7.255   6.002   8.138
 3769TIP3    H132942   7.268   6.001   8.234
 3769TIP3    H232943   7.159   5.997   8.131
 3770TIP3   OH232944   5.838   5.751   8.389
 3770TIP3    H132945   5.851   5.824   8.324
 3770TIP3    H232946   5.882   5.792   8.466
 3771TIP3   OH232947   5.958   5.925   8.223
 3771TIP3    H132948   6.018   5.864   8.175
 3771TIP3    H232949   6.012   5.948   8.302
 3772TIP3   OH232950   1.185   1.006   0.659
 3772TIP3    H132951   1.181   1.091   0.611
 3772TIP3    H232952   1.131   0.951   0.598
 3773TIP3   OH232953   1.070   0.917   1.005
 3773TIP3    H132954   1.093   0.879   1.093
 3773TIP3    H232955   1.017   0.843   0.963
 3774TIP3   OH232956   0.296   0.916   1.197
 3774TIP3    H132957   0.279   0.832   1.242
 3774TIP3    H232958   0.387   0.938   1.225
 3775TIP3   OH232959   1.384   1.216   0.884
 3775TIP3    H132960   1.413   1.149   0.949
 3775TIP3    H232961   1.424   1.296   0.923
 3776TIP3   OH232962   0.391   1.351   0.989
 3776TIP3    H132963   0.363   1.260   0.965
 3776TIP3    H232964   0.488   1.336   0.990
 3777TIP3   OH232965   0.092   0.690   0.543
 3777TIP3    H132966   0.060   0.768   0.589
 3777TIP3    H232967   0.008   0.641   0.534
 3778TIP3   OH232968   0.078   0.905   0.836
 3778TIP3    H132969   0.119   0.817   0.846
 3778TIP3    H232970   0.146   0.954   0.787
 3779TIP3   OH232971   1.146   1.766   0.850
 3779TIP3    H132972   1.204   1.704   0.801
 3779TIP3    H232973   1.108   1.702   0.912
 3780TIP3   OH232974   0.931   1.123   1.089
 3780TIP3    H132975   0.979   1.039   1.065
 3780TIP3    H232976   1.000   1.164   1.146
 3781TIP3   OH232977   1.751   0.291   1.144
 3781TIP3    H132978   1.767   0.349   1.221
 3781TIP3    H232979   1.806   0.335   1.077
 3782TIP3   OH232980   1.268   0.616   1.131
 3782TIP3    H132981   1.277   0.530   1.175
 3782TIP3    H232982   1.270   0.591   1.037
 3783TIP3   OH232983   0.532   0.449   0.811
 3783TIP3    H132984   0.579   0.511   0.753
 3783TIP3    H232985   0.503   0.382   0.745
 3784TIP3   OH232986   1.302   0.426   0.676
 3784TIP3    H132987   1.366   0.405   0.748
 3784TIP3    H232988   1.357   0.490   0.627
 3785TIP3   OH232989   0.194   0.652   0.896
 3785TIP3    H132990   0.264   0.626   0.959
 3785TIP3    H232991   0.223   0.604   0.816
 3786TIP3   OH232992   0.673   0.847   0.833
 3786TIP3    H132993   0.749   0.801   0.871
 3786TIP3    H232994   0.641   0.781   0.767
 3787TIP3   OH232995   1.785   0.442   1.381
 3787TIP3    H132996   1.751   0.529   1.347
 3787TIP3    H232997   1.817   0.469   1.468
 3788TIP3   OH232998   0.425   0.325   1.232
 3788TIP3    H132999   0.384   0.363   1.153
 3788TIP3    H233000   0.356   0.346   1.301
 3789TIP3   OH233001   1.129   1.250   0.579
 3789TIP3    H133002   1.106   1.249   0.483
 3789TIP3    H233003   1.103   1.342   0.602
 3790TIP3   OH233004   0.691   1.089   1.214
 3790TIP3    H133005   0.632   1.166   1.233
 3790TIP3    H233006   0.761   1.128   1.160
 3791TIP3   OH233007   1.508   0.450   0.871
 3791TIP3    H133008   1.515   0.372   0.927
 3791TIP3    H233009   1.560   0.513   0.926
 3792TIP3   OH233010   0.388   0.497   1.029
 3792TIP3    H133011   0.458   0.545   1.080
 3792TIP3    H233012   0.439   0.480   0.946
 3793TIP3   OH233013   0.538   1.297   1.283
 3793TIP3    H133014   0.516   1.388   1.256
 3793TIP3    H233015   0.460   1.277   1.340
 3794TIP3   OH233016   0.078   1.277   0.415
 3794TIP3    H133017   0.104   1.322   0.333
 3794TIP3    H233018   0.125   1.325   0.487
 3795TIP3   OH233019   1.483   1.418   1.061
 3795TIP3    H133020   1.396   1.431   1.104
 3795TIP3    H233021   1.503   1.508   1.029
 3796TIP3   OH233022   1.509   0.341   1.284
 3796TIP3    H133023   1.448   0.374   1.217
 3796TIP3    H233024   1.570   0.289   1.230
 3797TIP3   OH233025   0.824   0.106   0.954
 3797TIP3    H133026   0.748   0.043   0.965
 3797TIP3    H233027   0.775   0.184   0.989
 3798TIP3   OH233028   1.306   1.594   0.727
 3798TIP3    H133029   1.338   1.513   0.684
 3798TIP3    H233030   1.380   1.657   0.704
 3799TIP3   OH233031   1.396   1.378   0.589
 3799TIP3    H133032   1.404   1.316   0.515
 3799TIP3    H233033   1.407   1.318   0.664
 3800TIP3   OH233034   1.592   1.248   1.459
 3800TIP3    H133035   1.584   1.174   1.393
 3800TIP3    H233036   1.613   1.322   1.400
 3801TIP3   OH233037   1.059   0.948   0.418
 3801TIP3    H133038   0.982   1.000   0.384
 3801TIP3    H233039   1.132   0.975   0.359
 3802TIP3   OH233040   1.051   0.825   0.147
 3802TIP3    H133041   1.117   0.848   0.215
 3802TIP3    H233042   1.110   0.795   0.077
 3803TIP3   OH233043   1.785   0.887   1.244
 3803TIP3    H133044   1.709   0.947   1.232
 3803TIP3    H233045   1.853   0.935   1.192
 3804TIP3   OH233046   1.415   0.903   0.514
 3804TIP3    H133047   1.348   0.926   0.582
 3804TIP3    H233048   1.485   0.862   0.570
 3805TIP3   OH233049   1.410   0.785   1.446
 3805TIP3    H133050   1.402   0.875   1.484
 3805TIP3    H233051   1.341   0.788   1.378
 3806TIP3   OH233052   0.554   1.045   0.699
 3806TIP3    H133053   0.530   0.996   0.617
 3806TIP3    H233054   0.599   0.975   0.751
 3807TIP3   OH233055   0.689   1.320   0.966
 3807TIP3    H133056   0.701   1.301   0.872
 3807TIP3    H233057   0.771   1.290   1.005
 3808TIP3   OH233058   0.578   0.886   1.085
 3808TIP3    H133059   0.599   0.896   0.990
 3808TIP3    H233060   0.623   0.962   1.129
 3809TIP3   OH233061   1.230   1.448   1.162
 3809TIP3    H133062   1.211   1.509   1.235
 3809TIP3    H233063   1.205   1.361   1.197
 3810TIP3   OH233064   0.683   1.319   1.520
 3810TIP3    H133065   0.612   1.363   1.571
 3810TIP3    H233066   0.636   1.300   1.435
 3811TIP3   OH233067   1.282   0.873   0.287
 3811TIP3    H133068   1.336   0.880   0.369
 3811TIP3    H233069   1.330   0.935   0.227
 3812TIP3   OH233070   0.421   0.975   1.472
 3812TIP3    H133071   0.412   1.037   1.547
 3812TIP3    H233072   0.331   0.939   1.468
 3813TIP3   OH233073   1.025   1.500   0.631
 3813TIP3    H133074   1.085   1.573   0.648
 3813TIP3    H233075   0.967   1.535   0.561
 3814TIP3   OH233076   0.518   1.537   1.613
 3814TIP3    H133077   0.458   1.518   1.538
 3814TIP3    H233078   0.458   1.521   1.687
 3815TIP3   OH233079   1.683   0.067   0.306
 3815TIP3    H133080   1.588   0.046   0.321
 3815TIP3    H233081   1.683   0.155   0.266
 3816TIP3   OH233082   0.469   0.908   0.433
 3816TIP3    H133083   0.420   0.989   0.408
 3816TIP3    H233084   0.405   0.839   0.413
 3817TIP3   OH233085   1.758   1.463   0.117
 3817TIP3    H133086   1.784   1.557   0.117
 3817TIP3    H233087   1.846   1.421   0.124
 3818TIP3   OH233088   0.130   1.156   1.377
 3818TIP3    H133089   0.042   1.168   1.337
 3818TIP3    H233090   0.135   1.059   1.377
 3819TIP3   OH233091   0.110   1.469   0.982
 3819TIP3    H133092   0.177   1.400   0.963
 3819TIP3    H233093   0.123   1.480   1.079
 3820TIP3   OH233094   1.878   1.487   1.585
 3820TIP3    H133095   1.862   1.392   1.598
 3820TIP3    H233096   1.799   1.518   1.633
 3821TIP3   OH233097   0.894   1.482   1.533
 3821TIP3    H133098   0.974   1.429   1.546
 3821TIP3    H233099   0.826   1.413   1.514
 3822TIP3   OH233100   1.015   1.828   0.438
 3822TIP3    H133101   1.002   1.847   0.343
 3822TIP3    H233102   1.005   1.917   0.478
 3823TIP3   OH233103   0.378   1.709   0.653
 3823TIP3    H133104   0.405   1.681   0.743
 3823TIP3    H233105   0.302   1.650   0.636
 3824TIP3   OH233106   1.312   1.772   0.173
 3824TIP3    H133107   1.368   1.697   0.144
 3824TIP3    H233108   1.314   1.762   0.270
 3825TIP3   OH233109   1.275   1.745   0.455
 3825TIP3    H133110   1.181   1.774   0.463
 3825TIP3    H233111   1.272   1.658   0.496
 3826TIP3   OH233112   1.562   0.641   1.649
 3826TIP3    H133113   1.512   0.709   1.598
 3826TIP3    H233114   1.504   0.565   1.634
 3827TIP3   OH233115   0.340   1.312   1.463
 3827TIP3    H133116   0.347   1.261   1.547
 3827TIP3    H233117   0.251   1.278   1.435
 3828TIP3   OH233118   0.599   0.221   1.045
 3828TIP3    H133119   0.518   0.202   0.996
 3828TIP3    H233120   0.567   0.282   1.113
 3829TIP3   OH233121   1.072   0.062   1.420
 3829TIP3    H133122   1.086   0.062   1.516
 3829TIP3    H233123   0.978   0.085   1.413
 3830TIP3   OH233124   1.297   0.542   1.458
 3830TIP3    H133125   1.252   0.525   1.544
 3830TIP3    H233126   1.339   0.630   1.473
 3831TIP3   OH233127   1.404   1.014   0.101
 3831TIP3    H133128   1.398   1.046   0.010
 3831TIP3    H233129   1.498   1.029   0.116
 3832TIP3   OH233130   1.000   0.375   0.097
 3832TIP3    H133131   0.977   0.360   0.190
 3832TIP3    H233132   0.948   0.305   0.053
 3833TIP3   OH233133   0.562   0.639   1.166
 3833TIP3    H133134   0.520   0.657   1.253
 3833TIP3    H233135   0.577   0.731   1.138
 3834TIP3   OH233136   0.580   0.666   0.642
 3834TIP3    H133137   0.488   0.630   0.645
 3834TIP3    H233138   0.602   0.647   0.549
 3835TIP3   OH233139   1.135   0.736   0.560
 3835TIP3    H133140   1.096   0.805   0.502
 3835TIP3    H233141   1.182   0.682   0.492
 3836TIP3   OH233142   0.988   0.766   1.660
 3836TIP3    H133143   0.942   0.679   1.668
 3836TIP3    H233144   1.062   0.754   1.722
 3837TIP3   OH233145   1.236   0.673   0.838
 3837TIP3    H133146   1.209   0.755   0.794
 3837TIP3    H233147   1.217   0.610   0.767
 3838TIP3   OH233148   0.291   0.656   1.321
 3838TIP3    H133149   0.338   0.674   1.403
 3838TIP3    H233150   0.267   0.562   1.332
 3839TIP3   OH233151   0.672   0.461   0.084
 3839TIP3    H133152   0.688   0.371   0.118
 3839TIP3    H233153   0.743   0.463   0.019
 3840TIP3   OH233154   0.032   0.326   0.726
 3840TIP3    H133155   0.065   0.337   0.817
 3840TIP3    H233156   0.086   0.253   0.693
 3841TIP3   OH233157   0.104   0.482   0.291
 3841TIP3    H133158   0.179   0.445   0.239
 3841TIP3    H233159   0.087   0.565   0.242
 3842TIP3   OH233160   1.150   0.820   1.255
 3842TIP3    H133161   1.197   0.741   1.218
 3842TIP3    H233162   1.084   0.774   1.311
 3843TIP3   OH233163   0.843   0.433   0.758
 3843TIP3    H133164   0.771   0.368   0.764
 3843TIP3    H233165   0.898   0.406   0.833
 3844TIP3   OH233166   0.325   0.558   0.631
 3844TIP3    H133167   0.255   0.585   0.568
 3844TIP3    H233168   0.346   0.465   0.604
 3845TIP3   OH233169   0.629   0.562   0.400
 3845TIP3    H133170   0.722   0.578   0.423
 3845TIP3    H233171   0.612   0.628   0.328
 3846TIP3   OH233172   1.278   0.317   1.101
 3846TIP3    H133173   1.211   0.330   1.171
 3846TIP3    H233174   1.223   0.312   1.021
 3847TIP3   OH233175   0.570   0.719   0.182
 3847TIP3    H133176   0.538   0.654   0.118
 3847TIP3    H233177   0.661   0.730   0.145
 3848TIP3   OH233178   1.587   1.873   1.722
 3848TIP3    H133179   1.590   1.899   1.628
 3848TIP3    H233180   1.668   1.919   1.750
 3849TIP3   OH233181   0.368   1.151   1.677
 3849TIP3    H133182   0.435   1.137   1.748
 3849TIP3    H233183   0.286   1.145   1.730
 3850TIP3   OH233184   0.947   0.693   0.949
 3850TIP3    H133185   1.026   0.645   0.923
 3850TIP3    H233186   0.893   0.620   0.984
 3851TIP3   OH233187   0.429   0.312   0.600
 3851TIP3    H133188   0.388   0.228   0.630
 3851TIP3    H233189   0.448   0.289   0.508
 3852TIP3   OH233190   0.775   0.495   1.157
 3852TIP3    H133191   0.695   0.553   1.160
 3852TIP3    H233192   0.838   0.539   1.216
 3853TIP3   OH233193   0.870   1.137   0.410
 3853TIP3    H133194   0.796   1.093   0.363
 3853TIP3    H233195   0.826   1.164   0.494
 3854TIP3   OH233196   1.605   1.095   1.243
 3854TIP3    H133197   1.659   1.152   1.183
 3854TIP3    H233198   1.535   1.071   1.179
 3855TIP3   OH233199   1.265   0.431   0.171
 3855TIP3    H133200   1.177   0.423   0.130
 3855TIP3    H233201   1.261   0.517   0.215
 3856TIP3   OH233202   0.997   1.213   1.487
 3856TIP3    H133203   0.996   1.123   1.524
 3856TIP3    H233204   0.935   1.252   1.550
 3857TIP3   OH233205   1.273   0.617   0.370
 3857TIP3    H133206   1.358   0.598   0.415
 3857TIP3    H233207   1.291   0.700   0.322
 3858TIP3   OH233208   0.357   1.087   0.908
 3858TIP3    H133209   0.415   1.079   0.830
 3858TIP3    H233210   0.393   1.023   0.971
 3859TIP3   OH233211   1.071   1.266   0.285
 3859TIP3    H133212   1.037   1.357   0.301
 3859TIP3    H233213   0.994   1.212   0.314
 3860TIP3   OH233214   0.105   0.890   1.453
 3860TIP3    H133215   0.070   0.826   1.518
 3860TIP3    H233216   0.057   0.864   1.373
 3861TIP3   OH233217   0.735   0.886   1.654
 3861TIP3    H133218   0.748   0.833   1.575
 3861TIP3    H233219   0.819   0.871   1.701
 3862TIP3   OH233220   1.278   1.401   1.500
 3862TIP3    H133221   1.200   1.399   1.445
 3862TIP3    H233222   1.248   1.453   1.576
 3863TIP3   OH233223   1.794   0.648   0.352
 3863TIP3    H133224   1.739   0.623   0.274
 3863TIP3    H233225   1.804   0.744   0.332
 3864TIP3   OH233226   1.833   1.194   1.600
 3864TIP3    H133227   1.749   1.224   1.556
 3864TIP3    H233228   1.893   1.191   1.522
 3865TIP3   OH233229   1.614   1.518   0.349
 3865TIP3    H133230   1.605   1.426   0.378
 3865TIP3    H233231   1.652   1.509   0.260
 3866TIP3   OH233232   1.406   0.997   1.076
 3866TIP3    H133233   1.334   0.940   1.107
 3866TIP3    H233234   1.449   0.934   1.013
 3867TIP3   OH233235   0.626   1.432   0.677
 3867TIP3    H133236   0.650   1.523   0.646
 3867TIP3    H233237   0.530   1.433   0.661
 3868TIP3   OH233238   0.149   0.899   0.151
 3868TIP3    H133239   0.210   0.970   0.175
 3868TIP3    H233240   0.072   0.913   0.207
 3869TIP3   OH233241   0.769   1.212   0.645
 3869TIP3    H133242   0.721   1.299   0.643
 3869TIP3    H233243   0.696   1.153   0.673
 3870TIP3   OH233244   0.831   1.615   1.300
 3870TIP3    H133245   0.892   1.683   1.265
 3870TIP3    H233246   0.884   1.567   1.366
 3871TIP3   OH233247   0.652   1.680   0.586
 3871TIP3    H133248   0.556   1.693   0.597
 3871TIP3    H233249   0.682   1.769   0.616
 3872TIP3   OH233250   1.132   1.189   1.255
 3872TIP3    H133251   1.083   1.205   1.340
 3872TIP3    H233252   1.180   1.108   1.282
 3873TIP3   OH233253   1.391   1.323   0.191
 3873TIP3    H133254   1.423   1.274   0.270
 3873TIP3    H233255   1.296   1.304   0.195
 3874TIP3   OH233256   1.450   1.643   1.486
 3874TIP3    H133257   1.365   1.602   1.466
 3874TIP3    H233258   1.454   1.717   1.421
 3875TIP3   OH233259   1.821   1.748   0.183
 3875TIP3    H133260   1.875   1.817   0.141
 3875TIP3    H233261   1.757   1.805   0.231
 3876TIP3   OH233262   0.244   0.359   1.415
 3876TIP3    H133263   0.157   0.368   1.455
 3876TIP3    H233264   0.270   0.269   1.448
 3877TIP3   OH233265   1.470   1.165   0.408
 3877TIP3    H133266   1.457   1.072   0.434
 3877TIP3    H233267   1.568   1.171   0.408
 3878TIP3   OH233268   0.237   1.555   1.253
 3878TIP3    H133269   0.267   1.467   1.282
 3878TIP3    H233270   0.146   1.558   1.288
 3879TIP3   OH233271   0.686   1.376   0.216
 3879TIP3    H133272   0.725   1.312   0.277
 3879TIP3    H233273   0.700   1.462   0.261
 3880TIP3   OH233274   0.290   1.094   0.313
 3880TIP3    H133275   0.209   1.138   0.345
 3880TIP3    H233276   0.338   1.166   0.268
 3881TIP3   OH233277   1.139   0.352   1.333
 3881TIP3    H133278   1.214   0.390   1.383
 3881TIP3    H233279   1.126   0.267   1.377
 3882TIP3   OH233280   1.233   0.297   0.449
 3882TIP3    H133281   1.257   0.362   0.380
 3882TIP3    H233282   1.264   0.343   0.531
 3883TIP3   OH233283   0.986   1.514   0.344
 3883TIP3    H133284   0.908   1.572   0.355
 3883TIP3    H233285   1.033   1.560   0.271
 3884TIP3   OH233286   0.898   0.499   0.507
 3884TIP3    H133287   0.950   0.581   0.514
 3884TIP3    H233288   0.869   0.487   0.601
 3885TIP3   OH233289   1.022   0.630   1.412
 3885TIP3    H133290   1.039   0.666   1.501
 3885TIP3    H233291   1.056   0.538   1.414
 3886TIP3   OH233292   1.018   0.221   0.617
 3886TIP3    H133293   0.998   0.309   0.656
 3886TIP3    H233294   1.086   0.246   0.550
 3887TIP3   OH233295   0.721   1.613   0.330
 3887TIP3    H133296   0.742   1.696   0.282
 3887TIP3    H233297   0.678   1.651   0.410
 3888TIP3   OH233298   0.504   0.315   0.326
 3888TIP3    H133299   0.526   0.405   0.358
 3888TIP3    H233300   0.594   0.282   0.318
 3889TIP3   OH233301   1.570   0.361   1.571
 3889TIP3    H133302   1.485   0.354   1.526
 3889TIP3    H233303   1.628   0.367   1.492
 3890TIP3   OH233304   1.465   0.775   0.930
 3890TIP3    H133305   1.386   0.719   0.911
 3890TIP3    H233306   1.521   0.714   0.982
 3891TIP3   OH233307   0.376   1.342   0.168
 3891TIP3    H133308   0.448   1.399   0.200
 3891TIP3    H233309   0.430   1.276   0.119
 3892TIP3   OH233310   0.245   0.647   0.052
 3892TIP3    H133311   0.299   0.726   0.038
 3892TIP3    H233312   0.181   0.684   0.115
 3893TIP3   OH233313   1.551   1.700   1.072
 3893TIP3    H133314   1.555   1.775   1.010
 3893TIP3    H233315   1.646   1.680   1.078
 3894TIP3   OH233316   0.320   0.113   0.999
 3894TIP3    H133317   0.344   0.069   0.916
 3894TIP3    H233318   0.365   0.059   1.066
 3895TIP3   OH233319   0.206   1.493   0.570
 3895TIP3    H133320   0.122   1.522   0.605
 3895TIP3    H233321   0.216   1.550   0.491
 3896TIP3   OH233322   0.163   1.730   1.759
 3896TIP3    H133323   0.224   1.656   1.749
 3896TIP3    H233324   0.079   1.680   1.753
 3897TIP3   OH233325   1.073   1.622   0.113
 3897TIP3    H133326   1.002   1.581   0.059
 3897TIP3    H233327   1.141   1.639   0.045
 3898TIP3   OH233328   1.200   1.506   1.760
 3898TIP3    H133329   1.181   1.414   1.787
 3898TIP3    H233330   1.293   1.518   1.790
 3899TIP3   OH233331   1.488   1.575   0.027
 3899TIP3    H133332   1.464   1.496   0.080
 3899TIP3    H233333   1.584   1.564   0.024
 3900TIP3   OH233334   0.132   1.145   1.804
 3900TIP3    H133335   0.097   1.061   1.773
 3900TIP3    H233336   0.051   1.199   1.798
 3901TIP3   OH233337   0.550   1.148   0.085
 3901TIP3    H133338   0.624   1.127   0.146
 3901TIP3    H233339   0.598   1.158   0.001
 3902TIP3   OH233340   0.793   1.163   1.701
 3902TIP3    H133341   0.744   1.214   1.632
 3902TIP3    H233342   0.758   1.073   1.686
 3903TIP3   OH233343   1.355   1.116   1.497
 3903TIP3    H133344   1.445   1.155   1.505
 3903TIP3    H233345   1.304   1.200   1.503
 3904TIP3   OH233346   0.154   0.828   1.765
 3904TIP3    H133347   0.206   0.750   1.740
 3904TIP3    H233348   0.221   0.869   1.823
 3905TIP3   OH233349   0.692   0.994   0.254
 3905TIP3    H133350   0.616   0.946   0.293
 3905TIP3    H233351   0.724   0.927   0.191
 3906TIP3   OH233352   0.570   0.743   1.410
 3906TIP3    H133353   0.523   0.815   1.455
 3906TIP3    H233354   0.650   0.790   1.378
 3907TIP3   OH233355   0.803   0.781   0.064
 3907TIP3    H133356   0.807   0.834  -0.017
 3907TIP3    H233357   0.897   0.787   0.097
 3908TIP3   OH233358   1.127   1.015   1.829
 3908TIP3    H133359   1.195   1.004   1.897
 3908TIP3    H233360   1.050   0.972   1.872
 3909TIP3   OH233361   1.685   1.080   8.505
 3909TIP3    H133362   1.630   1.088   8.425
 3909TIP3    H233363   1.706   1.172   8.526
 3910TIP3   OH233364   0.668   0.541   1.567
 3910TIP3    H133365   0.661   0.462   1.509
 3910TIP3    H233366   0.626   0.607   1.507
 3911TIP3   OH233367   0.667   0.357   1.367
 3911TIP3    H133368   0.708   0.389   1.284
 3911TIP3    H233369   0.578   0.330   1.334
 3912TIP3   OH233370   0.805   0.903   1.381
 3912TIP3    H133371   0.894   0.892   1.346
 3912TIP3    H233372   0.765   0.975   1.327
 3913TIP3   OH233373   1.325   0.617   1.833
 3913TIP3    H133374   1.246   0.586   1.885
 3913TIP3    H233375   1.337   0.705   1.870
 3914TIP3   OH233376   1.432   0.953   1.709
 3914TIP3    H133377   1.389   1.009   1.641
 3914TIP3    H233378   1.525   0.953   1.676
 3915TIP3   OH233379   0.404   0.636   1.745
 3915TIP3    H133380   0.364   0.548   1.763
 3915TIP3    H233381   0.495   0.615   1.724
 3916TIP3   OH233382   0.751   0.096   1.369
 3916TIP3    H133383   0.728   0.193   1.370
 3916TIP3    H233384   0.665   0.055   1.390
 3917TIP3   OH233385   0.881   0.529   1.755
 3917TIP3    H133386   0.854   0.576   1.835
 3917TIP3    H233387   0.799   0.521   1.702
 3918TIP3   OH233388   1.126   0.438   1.669
 3918TIP3    H133389   1.043   0.463   1.715
 3918TIP3    H233390   1.163   0.380   1.736
 3919TIP3   OH233391   0.274   0.403   1.807
 3919TIP3    H133392   0.279   0.324   1.749
 3919TIP3    H233393   0.256   0.359   1.892
 3920TIP3   OH233394   0.735   7.388   1.661
 3920TIP3    H133395   0.774   7.305   1.687
 3920TIP3    H233396   0.750   7.385   1.565
 3921TIP3   OH233397   0.754   1.842   0.218
 3921TIP3    H133398   0.839   1.879   0.190
 3921TIP3    H233399   0.691   1.881   0.157
 3922TIP3   OH233400   0.093   1.350   0.125
 3922TIP3    H133401   0.191   1.357   0.132
 3922TIP3    H233402   0.085   1.303   0.041
 3923TIP3   OH233403   7.362   1.891   0.591
 3923TIP3    H133404   7.267   1.877   0.603
 3923TIP3    H233405   7.397   1.841   0.667
 3924TIP3   OH233406   0.101   1.711   0.820
 3924TIP3    H133407   0.095   1.618   0.851
 3924TIP3    H233408   0.152   1.750   0.893
 3925TIP3   OH233409   1.842   1.736   1.094
 3925TIP3    H133410   1.857   1.756   1.188
 3925TIP3    H233411   1.897   1.804   1.052
 3926TIP3   OH233412   1.782   1.704   1.389
 3926TIP3    H133413   1.742   1.629   1.337
 3926TIP3    H233414   1.812   1.654   1.467
 3927TIP3   OH233415   1.663   1.290   1.878
 3927TIP3    H133416   1.584   1.289   1.933
 3927TIP3    H233417   1.717   1.365   1.916
 3928TIP3   OH233418   1.745   1.139   0.391
 3928TIP3    H133419   1.834   1.176   0.411
 3928TIP3    H233420   1.734   1.078   0.468
 3929TIP3   OH233421   1.760   0.955   0.592
 3929TIP3    H133422   1.695   0.893   0.633
 3929TIP3    H233423   1.835   0.951   0.653
 3930TIP3   OH233424   1.769   1.199   1.071
 3930TIP3    H133425   1.838   1.130   1.059
 3930TIP3    H233426   1.819   1.282   1.054
 3931TIP3   OH233427   1.630   1.489   1.312
 3931TIP3    H133428   1.566   1.520   1.379
 3931TIP3    H233429   1.575   1.469   1.234
 3932TIP3   OH233430   1.798   0.899   0.243
 3932TIP3    H133431   1.745   0.924   0.164
 3932TIP3    H233432   1.790   0.980   0.297
 3933TIP3   OH233433   1.606   0.634   0.109
 3933TIP3    H133434   1.688   0.678   0.079
 3933TIP3    H233435   1.605   0.556   0.051
 3934TIP3   OH233436   1.581   0.789   0.689
 3934TIP3    H133437   1.554   0.697   0.674
 3934TIP3    H233438   1.565   0.798   0.785
 3935TIP3   OH233439   0.048   1.017   1.075
 3935TIP3    H133440   0.047   0.991   0.980
 3935TIP3    H233441   0.144   1.027   1.090
 3936TIP3   OH233442   1.683   0.977   1.625
 3936TIP3    H133443   1.736   0.895   1.638
 3936TIP3    H233444   1.752   1.046   1.610
 3937TIP3   OH233445   1.807   0.739   1.609
 3937TIP3    H133446   1.719   0.698   1.627
 3937TIP3    H233447   1.869   0.676   1.653
 3938TIP3   OH233448   1.592   0.395  -0.015
 3938TIP3    H133449   1.623   0.345   0.062
 3938TIP3    H233450   1.495   0.387  -0.006
 3939TIP3   OH233451   1.496   0.545   0.500
 3939TIP3    H133452   1.534   0.458   0.527
 3939TIP3    H233453   1.563   0.568   0.434
 3940TIP3   OH233454   1.635   0.603   1.057
 3940TIP3    H133455   1.729   0.629   1.076
 3940TIP3    H233456   1.604   0.601   1.149
 3941TIP3   OH233457   1.643   0.667   1.325
 3941TIP3    H133458   1.564   0.688   1.378
 3941TIP3    H233459   1.687   0.753   1.315
 3942TIP3   OH233460   0.075   0.519   1.662
 3942TIP3    H133461   0.145   0.473   1.714
 3942TIP3    H233462   0.029   0.443   1.619
 3943TIP3   OH233463   1.900   0.064   1.831
 3943TIP3    H133464   1.888  -0.005   1.763
 3943TIP3    H233465   1.855   0.141   1.794
 3944TIP3   OH233466   1.594   0.298   0.540
 3944TIP3    H133467   1.644   0.259   0.615
 3944TIP3    H233468   1.561   0.218   0.495
 3945TIP3   OH233469   0.156   0.365   0.981
 3945TIP3    H133470   0.191   0.276   1.003
 3945TIP3    H233471   0.234   0.419   1.005
 3946TIP3   OH233472   0.046   0.749   1.138
 3946TIP3    H133473   0.121   0.731   1.078
 3946TIP3    H233474   0.022   0.840   1.112
 3947TIP3   OH233475   1.823   0.279   1.639
 3947TIP3    H133476   1.735   0.317   1.656
 3947TIP3    H233477   1.796   0.202   1.585
 3948TIP3   OH233478   1.764   0.298   0.161
 3948TIP3    H133479   1.820   0.217   0.153
 3948TIP3    H233480   1.777   0.334   0.071
 3949TIP3   OH233481   0.082   0.260   0.456
 3949TIP3    H133482  -0.006   0.264   0.500
 3949TIP3    H233483   0.092   0.354   0.430
 3950TIP3   OH233484   1.492   1.773   0.689
 3950TIP3    H133485   1.561   1.750   0.624
 3950TIP3    H233486   1.543   1.825   0.756
 3951TIP3   OH233487   0.039   0.111   1.279
 3951TIP3    H133488  -0.035   0.061   1.315
 3951TIP3    H233489  -0.008   0.185   1.236
 3952TIP3   OH233490   0.306   1.498   1.803
 3952TIP3    H133491   0.248   1.460   1.735
 3952TIP3    H233492   0.256   1.474   1.885
 3953TIP3   OH233493   0.570   1.606   1.340
 3953TIP3    H133494   0.529   1.687   1.301
 3953TIP3    H233495   0.657   1.605   1.296
 3954TIP3   OH233496   0.946   1.744   1.643
 3954TIP3    H133497   0.972   1.660   1.685
 3954TIP3    H233498   1.034   1.770   1.608
 3955TIP3   OH233499   1.182   1.846   1.586
 3955TIP3    H133500   1.250   1.812   1.526
 3955TIP3    H233501   1.229   1.915   1.637
 3956TIP3   OH233502   1.709   0.086   1.462
 3956TIP3    H133503   1.628   0.117   1.418
 3956TIP3    H233504   1.714  -0.007   1.433
 3957TIP3   OH233505   0.302   1.894   1.353
 3957TIP3    H133506   0.218   1.903   1.304
 3957TIP3    H233507   0.269   1.885   1.444
 3958TIP3   OH233508   0.520   1.838   1.221
 3958TIP3    H133509   0.428   1.850   1.259
 3958TIP3    H233510   0.521   1.912   1.157
 3959TIP3   OH233511   0.970   1.810   1.170
 3959TIP3    H133512   0.977   1.848   1.081
 3959TIP3    H233513   1.005   1.885   1.222
 3960TIP3   OH233514   1.185   1.680   1.316
 3960TIP3    H133515   1.119   1.713   1.252
 3960TIP3    H233516   1.260   1.739   1.294
 3961TIP3   OH233517   1.424   1.816   1.284
 3961TIP3    H133518   1.432   1.906   1.248
 3961TIP3    H233519   1.472   1.765   1.215
 3962TIP3   OH233520   0.270   1.740   1.048
 3962TIP3    H133521   0.257   1.676   1.123
 3962TIP3    H233522   0.350   1.701   1.008
 3963TIP3   OH233523   0.454   1.612   0.897
 3963TIP3    H133524   0.438   1.522   0.933
 3963TIP3    H233525   0.530   1.640   0.953
 3964TIP3   OH233526   0.674   1.648   1.045
 3964TIP3    H133527   0.704   1.560   1.018
 3964TIP3    H233528   0.722   1.658   1.130
 3965TIP3   OH233529   1.048   0.310   0.905
 3965TIP3    H133530   0.976   0.250   0.928
 3965TIP3    H233531   1.112   0.244   0.870
 3966TIP3   OH233532   1.575   0.024   0.881
 3966TIP3    H133533   1.638   0.088   0.841
 3966TIP3    H233534   1.495   0.076   0.888
 3967TIP3   OH233535   1.743   0.205   0.752
 3967TIP3    H133536   1.806   0.136   0.779
 3967TIP3    H233537   1.800   0.284   0.739
 3968TIP3   OH233538   0.319   0.085   0.670
 3968TIP3    H133539   0.222   0.086   0.663
 3968TIP3    H233540   0.332   0.003   0.720
 3969TIP3   OH233541   0.171   0.126   0.212
 3969TIP3    H133542   0.250   0.169   0.173
 3969TIP3    H233543   0.143   0.197   0.274
 3970TIP3   OH233544   0.776   0.116   0.687
 3970TIP3    H133545   0.854   0.153   0.641
 3970TIP3    H233546   0.817   0.094   0.773
 3971TIP3   OH233547   1.215   0.103   0.814
 3971TIP3    H133548   1.176   0.118   0.726
 3971TIP3    H233549   1.260   0.017   0.798
 3972TIP3   OH233550   1.411   0.072   0.408
 3972TIP3    H133551   1.335   0.134   0.405
 3972TIP3    H233552   1.372  -0.016   0.398
 3973TIP3   OH233553   0.179   1.681   0.365
 3973TIP3    H133554   0.084   1.693   0.344
 3973TIP3    H233555   0.209   1.772   0.349
 3974TIP3   OH233556   0.310   0.331   0.124
 3974TIP3    H133557   0.354   0.353   0.039
 3974TIP3    H233558   0.385   0.309   0.182
 3975TIP3   OH233559   0.808   0.269   0.375
 3975TIP3    H133560   0.890   0.246   0.420
 3975TIP3    H233561   0.805   0.364   0.397
 3976TIP3   OH233562   1.038   1.880   0.172
 3976TIP3    H133563   1.121   1.912   0.131
 3976TIP3    H233564   1.055   1.783   0.162
 3977TIP3   OH233565   1.678   1.718   0.513
 3977TIP3    H133566   1.660   1.650   0.443
 3977TIP3    H233567   1.677   1.798   0.456
 3978TIP3   OH233568   0.262   0.161   1.600
 3978TIP3    H133569   0.199   0.089   1.595
 3978TIP3    H233570   0.331   0.121   1.655
 3979TIP3   OH233571   0.444   0.108   1.799
 3979TIP3    H133572   0.536   0.084   1.779
 3979TIP3    H233573   0.406   0.021   1.819
 3980TIP3   OH233574   0.355   1.832   0.096
 3980TIP3    H133575   0.316   1.862   0.180
 3980TIP3    H233576   0.354   1.736   0.100
 3981TIP3   OH233577   1.328   0.061   1.795
 3981TIP3    H133578   1.258   0.015   1.843
 3981TIP3    H233579   1.406   0.009   1.824
 3982TIP3   OH233580   1.653   1.609   1.658
 3982TIP3    H133581   1.576   1.613   1.596
 3982TIP3    H233582   1.656   1.703   1.688
 3983TIP3   OH233583   3.064   1.015   0.678
 3983TIP3    H133584   3.069   1.112   0.689
 3983TIP3    H233585   2.984   1.011   0.623
 3984TIP3   OH233586   2.968   0.902   1.010
 3984TIP3    H133587   2.978   0.855   1.096
 3984TIP3    H233588   2.899   0.850   0.964
 3985TIP3   OH233589   2.171   0.899   1.168
 3985TIP3    H133590   2.157   0.821   1.226
 3985TIP3    H233591   2.255   0.934   1.199
 3986TIP3   OH233592   3.283   1.204   0.857
 3986TIP3    H133593   3.257   1.138   0.924
 3986TIP3    H233594   3.321   1.272   0.915
 3987TIP3   OH233595   2.291   1.344   1.024
 3987TIP3    H133596   2.251   1.260   0.994
 3987TIP3    H233597   2.384   1.329   1.003
 3988TIP3   OH233598   1.969   0.703   0.568
 3988TIP3    H133599   1.917   0.749   0.635
 3988TIP3    H233600   1.903   0.689   0.497
 3989TIP3   OH233601   2.009   0.935   0.830
 3989TIP3    H133602   2.053   0.851   0.854
 3989TIP3    H233603   2.077   1.003   0.847
 3990TIP3   OH233604   3.045   1.752   0.850
 3990TIP3    H133605   3.114   1.699   0.803
 3990TIP3    H233606   3.020   1.686   0.916
 3991TIP3   OH233607   2.767   1.168   1.129
 3991TIP3    H133608   2.796   1.143   1.040
 3991TIP3    H233609   2.853   1.195   1.168
 3992TIP3   OH233610   3.645   0.305   1.117
 3992TIP3    H133611   3.651   0.370   1.189
 3992TIP3    H233612   3.712   0.342   1.056
 3993TIP3   OH233613   3.146   0.628   1.129
 3993TIP3    H133614   3.165   0.534   1.148
 3993TIP3    H233615   3.134   0.625   1.032
 3994TIP3   OH233616   2.390   0.449   0.802
 3994TIP3    H133617   2.449   0.505   0.748
 3994TIP3    H233618   2.373   0.376   0.739
 3995TIP3   OH233619   3.192   0.433   0.662
 3995TIP3    H133620   3.248   0.410   0.739
 3995TIP3    H233621   3.248   0.502   0.621
 3996TIP3   OH233622   2.076   0.677   0.908
 3996TIP3    H133623   2.144   0.623   0.954
 3996TIP3    H233624   2.062   0.630   0.825
 3997TIP3   OH233625   2.564   0.830   0.845
 3997TIP3    H133626   2.645   0.784   0.877
 3997TIP3    H233627   2.537   0.767   0.775
 3998TIP3   OH233628   3.674   0.453   1.375
 3998TIP3    H133629   3.630   0.531   1.333
 3998TIP3    H233630   3.716   0.496   1.452
 3999TIP3   OH233631   2.347   0.333   1.254
 3999TIP3    H133632   2.309   0.384   1.179
 3999TIP3    H233633   2.277   0.351   1.321
 4000TIP3   OH233634   3.011   1.254   0.573
 4000TIP3    H133635   2.992   1.258   0.477
 4000TIP3    H233636   2.985   1.345   0.601
 4001TIP3   OH233637   2.524   1.086   1.184
 4001TIP3    H133638   2.477   1.158   1.232
 4001TIP3    H233639   2.611   1.129   1.167
 4002TIP3   OH233640   3.397   0.458   0.857
 4002TIP3    H133641   3.429   0.370   0.882
 4002TIP3    H233642   3.444   0.514   0.922
 4003TIP3   OH233643   2.268   0.501   1.030
 4003TIP3    H133644   2.327   0.573   1.064
 4003TIP3    H233645   2.319   0.474   0.949
 4004TIP3   OH233646   2.424   1.298   1.317
 4004TIP3    H133647   2.401   1.379   1.269
 4004TIP3    H233648   2.336   1.282   1.361
 4005TIP3   OH233649   1.996   1.234   0.412
 4005TIP3    H133650   2.002   1.279   0.325
 4005TIP3    H233651   2.008   1.308   0.475
 4006TIP3   OH233652   3.380   1.411   1.075
 4006TIP3    H133653   3.289   1.438   1.099
 4006TIP3    H233654   3.403   1.485   1.018
 4007TIP3   OH233655   3.408   0.282   1.247
 4007TIP3    H133656   3.339   0.326   1.193
 4007TIP3    H233657   3.481   0.270   1.182
 4008TIP3   OH233658   2.700   0.110   0.941
 4008TIP3    H133659   2.709   0.025   0.986
 4008TIP3    H233660   2.619   0.147   0.983
 4009TIP3   OH233661   3.221   1.592   0.727
 4009TIP3    H133662   3.243   1.513   0.674
 4009TIP3    H233663   3.296   1.652   0.707
 4010TIP3   OH233664   3.319   1.365   0.583
 4010TIP3    H133665   3.302   1.292   0.521
 4010TIP3    H233666   3.299   1.322   0.668
 4011TIP3   OH233667   3.474   1.253   1.472
 4011TIP3    H133668   3.494   1.180   1.409
 4011TIP3    H233669   3.492   1.331   1.417
 4012TIP3   OH233670   2.919   0.917   0.417
 4012TIP3    H133671   2.857   0.991   0.402
 4012TIP3    H233672   3.002   0.950   0.379
 4013TIP3   OH233673   2.922   0.858   0.130
 4013TIP3    H133674   2.993   0.877   0.195
 4013TIP3    H233675   2.958   0.778   0.088
 4014TIP3   OH233676   3.674   0.893   1.234
 4014TIP3    H133677   3.611   0.968   1.238
 4014TIP3    H233678   3.746   0.932   1.180
 4015TIP3   OH233679   3.307   0.920   0.515
 4015TIP3    H133680   3.239   0.953   0.578
 4015TIP3    H233681   3.369   0.874   0.577
 4016TIP3   OH233682   3.281   0.798   1.477
 4016TIP3    H133683   3.242   0.880   1.514
 4016TIP3    H233684   3.230   0.789   1.395
 4017TIP3   OH233685   2.450   1.043   0.740
 4017TIP3    H133686   2.431   1.010   0.650
 4017TIP3    H233687   2.494   0.964   0.776
 4018TIP3   OH233688   2.581   1.345   0.981
 4018TIP3    H133689   2.591   1.319   0.889
 4018TIP3    H233690   2.644   1.289   1.030
 4019TIP3   OH233691   2.450   0.862   1.079
 4019TIP3    H133692   2.488   0.868   0.988
 4019TIP3    H233693   2.487   0.944   1.119
 4020TIP3   OH233694   3.125   1.465   1.140
 4020TIP3    H133695   3.068   1.518   1.198
 4020TIP3    H233696   3.111   1.375   1.174
 4021TIP3   OH233697   2.568   1.322   1.552
 4021TIP3    H133698   2.503   1.381   1.598
 4021TIP3    H233699   2.526   1.316   1.463
 4022TIP3   OH233700   3.151   0.898   0.297
 4022TIP3    H133701   3.209   0.907   0.375
 4022TIP3    H233702   3.203   0.943   0.227
 4023TIP3   OH233703   2.294   0.941   1.490
 4023TIP3    H133704   2.309   1.001   1.565
 4023TIP3    H233705   2.198   0.925   1.500
 4024TIP3   OH233706   2.948   1.500   0.665
 4024TIP3    H133707   2.989   1.570   0.717
 4024TIP3    H233708   2.886   1.547   0.608
 4025TIP3   OH233709   2.397   1.511   1.627
 4025TIP3    H133710   2.386   1.543   1.535
 4025TIP3    H233711   2.305   1.487   1.653
 4026TIP3   OH233712   3.581   0.061   0.292
 4026TIP3    H133713   3.486   0.040   0.295
 4026TIP3    H233714   3.583   0.152   0.259
 4027TIP3   OH233715   2.329   0.898   0.414
 4027TIP3    H133716   2.299   0.978   0.365
 4027TIP3    H233717   2.251   0.884   0.468
 4028TIP3   OH233718   3.659   1.472   0.109
 4028TIP3    H133719   3.689   1.561   0.137
 4028TIP3    H233720   3.742   1.422   0.123
 4029TIP3   OH233721   1.968   1.172   1.377
 4029TIP3    H133722   1.927   1.157   1.291
 4029TIP3    H233723   2.004   1.081   1.393
 4030TIP3   OH233724   1.919   1.436   1.039
 4030TIP3    H133725   2.012   1.437   1.064
 4030TIP3    H233726   1.890   1.524   1.067
 4031TIP3   OH233727   3.750   1.494   1.618
 4031TIP3    H133728   3.737   1.400   1.643
 4031TIP3    H233729   3.664   1.528   1.653
 4032TIP3   OH233730   2.812   1.441   1.526
 4032TIP3    H133731   2.822   1.528   1.568
 4032TIP3    H233732   2.717   1.419   1.543
 4033TIP3   OH233733   2.889   1.826   0.433
 4033TIP3    H133734   2.889   1.852   0.338
 4033TIP3    H233735   2.888   1.913   0.477
 4034TIP3   OH233736   2.257   1.695   0.668
 4034TIP3    H133737   2.274   1.657   0.757
 4034TIP3    H233738   2.170   1.656   0.644
 4035TIP3   OH233739   3.193   1.782   0.159
 4035TIP3    H133740   3.255   1.722   0.114
 4035TIP3    H233741   3.201   1.756   0.252
 4036TIP3   OH233742   3.166   1.752   0.452
 4036TIP3    H133743   3.071   1.770   0.461
 4036TIP3    H233744   3.175   1.665   0.493
 4037TIP3   OH233745   3.410   0.647   1.657
 4037TIP3    H133746   3.375   0.711   1.591
 4037TIP3    H233747   3.436   0.573   1.599
 4038TIP3   OH233748   2.189   1.309   1.434
 4038TIP3    H133749   2.198   1.295   1.530
 4038TIP3    H233750   2.104   1.262   1.419
 4039TIP3   OH233751   2.464   0.222   1.027
 4039TIP3    H133752   2.380   0.175   1.011
 4039TIP3    H233753   2.444   0.276   1.106
 4040TIP3   OH233754   2.902   0.075   1.410
 4040TIP3    H133755   2.916   0.149   1.470
 4040TIP3    H233756   2.813   0.098   1.375
 4041TIP3   OH233757   3.181   0.527   1.513
 4041TIP3    H133758   3.147   0.486   1.596
 4041TIP3    H233759   3.215   0.613   1.543
 4042TIP3   OH233760   3.292   0.998   0.101
 4042TIP3    H133761   3.312   1.004   0.006
 4042TIP3    H233762   3.358   1.061   0.136
 4043TIP3   OH233763   2.901   0.385   0.107
 4043TIP3    H133764   2.876   0.400   0.199
 4043TIP3    H233765   2.844   0.311   0.080
 4044TIP3   OH233766   2.453   0.632   1.191
 4044TIP3    H133767   2.376   0.645   1.250
 4044TIP3    H233768   2.458   0.725   1.156
 4045TIP3   OH233769   2.451   0.679   0.640
 4045TIP3    H133770   2.365   0.632   0.634
 4045TIP3    H233771   2.470   0.693   0.545
 4046TIP3   OH233772   3.006   0.696   0.541
 4046TIP3    H133773   2.971   0.781   0.506
 4046TIP3    H233774   3.065   0.669   0.468
 4047TIP3   OH233775   2.911   0.763   1.663
 4047TIP3    H133776   2.856   0.687   1.689
 4047TIP3    H233777   2.985   0.747   1.726
 4048TIP3   OH233778   3.110   0.679   0.855
 4048TIP3    H133779   3.084   0.764   0.814
 4048TIP3    H233780   3.092   0.618   0.781
 4049TIP3   OH233781   2.190   0.655   1.328
 4049TIP3    H133782   2.229   0.673   1.414
 4049TIP3    H233783   2.173   0.559   1.333
 4050TIP3   OH233784   2.559   0.422   0.073
 4050TIP3    H133785   2.496   0.382   0.138
 4050TIP3    H233786   2.532   0.514   0.065
 4051TIP3   OH233787   1.939   0.400   0.732
 4051TIP3    H133788   1.977   0.384   0.820
 4051TIP3    H233789   1.960   0.319   0.683
 4052TIP3   OH233790   2.016   0.476   0.324
 4052TIP3    H133791   2.003   0.472   0.228
 4052TIP3    H233792   1.941   0.531   0.355
 4053TIP3   OH233793   3.019   0.821   1.257
 4053TIP3    H133794   3.072   0.747   1.219
 4053TIP3    H233795   2.959   0.772   1.318
 4054TIP3   OH233796   2.731   0.406   0.772
 4054TIP3    H133797   2.639   0.388   0.792
 4054TIP3    H233798   2.775   0.373   0.854
 4055TIP3   OH233799   2.201   0.549   0.568
 4055TIP3    H133800   2.123   0.606   0.589
 4055TIP3    H233801   2.182   0.463   0.612
 4056TIP3   OH233802   2.520   0.577   0.394
 4056TIP3    H133803   2.609   0.586   0.435
 4056TIP3    H233804   2.524   0.637   0.318
 4057TIP3   OH233805   3.161   0.346   1.105
 4057TIP3    H133806   3.078   0.358   1.153
 4057TIP3    H233807   3.130   0.300   1.025
 4058TIP3   OH233808   2.433   0.681   0.155
 4058TIP3    H133809   2.381   0.677   0.073
 4058TIP3    H233810   2.514   0.726   0.121
 4059TIP3   OH233811   3.436   1.879   1.737
 4059TIP3    H133812   3.469   1.936   1.665
 4059TIP3    H233813   3.506   1.893   1.804
 4060TIP3   OH233814   2.218   1.151   1.677
 4060TIP3    H133815   2.276   1.163   1.754
 4060TIP3    H233816   2.133   1.138   1.725
 4061TIP3   OH233817   2.788   0.702   0.931
 4061TIP3    H133818   2.871   0.658   0.904
 4061TIP3    H233819   2.749   0.635   0.989
 4062TIP3   OH233820   2.318   0.288   0.602
 4062TIP3    H133821   2.241   0.237   0.638
 4062TIP3    H233822   2.368   0.216   0.561
 4063TIP3   OH233823   2.696   0.512   1.160
 4063TIP3    H133824   2.611   0.561   1.174
 4063TIP3    H233825   2.757   0.555   1.222
 4064TIP3   OH233826   2.757   1.129   0.396
 4064TIP3    H133827   2.681   1.079   0.357
 4064TIP3    H233828   2.715   1.163   0.480
 4065TIP3   OH233829   3.492   1.103   1.250
 4065TIP3    H133830   3.542   1.158   1.185
 4065TIP3    H233831   3.406   1.097   1.205
 4066TIP3   OH233832   3.160   0.419   0.187
 4066TIP3    H133833   3.075   0.427   0.139
 4066TIP3    H233834   3.168   0.508   0.226
 4067TIP3   OH233835   2.866   1.173   1.502
 4067TIP3    H133836   2.831   1.140   1.587
 4067TIP3    H233837   2.850   1.269   1.511
 4068TIP3   OH233838   3.172   0.632   0.343
 4068TIP3    H133839   3.246   0.603   0.401
 4068TIP3    H233840   3.198   0.723   0.321
 4069TIP3   OH233841   2.249   1.087   0.914
 4069TIP3    H133842   2.312   1.082   0.838
 4069TIP3    H233843   2.294   1.035   0.982
 4070TIP3   OH233844   2.969   1.257   0.298
 4070TIP3    H133845   2.927   1.345   0.317
 4070TIP3    H233846   2.894   1.198   0.322
 4071TIP3   OH233847   1.985   0.910   1.448
 4071TIP3    H133848   1.962   0.858   1.527
 4071TIP3    H233849   1.919   0.875   1.385
 4072TIP3   OH233850   2.664   0.870   1.658
 4072TIP3    H133851   2.628   0.832   1.577
 4072TIP3    H233852   2.757   0.836   1.654
 4073TIP3   OH233853   3.161   1.402   1.513
 4073TIP3    H133854   3.084   1.403   1.455
 4073TIP3    H233855   3.133   1.468   1.580
 4074TIP3   OH233856   3.688   0.649   0.353
 4074TIP3    H133857   3.646   0.616   0.271
 4074TIP3    H233858   3.712   0.738   0.322
 4075TIP3   OH233859   3.716   1.212   1.593
 4075TIP3    H133860   3.630   1.235   1.551
 4075TIP3    H233861   3.771   1.195   1.513
 4076TIP3   OH233862   3.526   1.482   0.351
 4076TIP3    H133863   3.477   1.403   0.377
 4076TIP3    H233864   3.547   1.466   0.257
 4077TIP3   OH233865   3.254   1.013   1.066
 4077TIP3    H133866   3.161   0.986   1.058
 4077TIP3    H233867   3.299   0.937   1.024
 4078TIP3   OH233868   2.498   1.437   0.671
 4078TIP3    H133869   2.515   1.532   0.650
 4078TIP3    H233870   2.412   1.428   0.628
 4079TIP3   OH233871   2.075   0.939   0.125
 4079TIP3    H133872   2.119   1.002   0.185
 4079TIP3    H233873   1.981   0.948   0.152
 4080TIP3   OH233874   2.629   1.209   0.624
 4080TIP3    H133875   2.584   1.295   0.643
 4080TIP3    H233876   2.585   1.149   0.686
 4081TIP3   OH233877   2.705   1.623   1.313
 4081TIP3    H133878   2.776   1.683   1.282
 4081TIP3    H233879   2.753   1.578   1.386
 4082TIP3   OH233880   2.515   1.689   0.580
 4082TIP3    H133881   2.420   1.700   0.600
 4082TIP3    H233882   2.549   1.773   0.618
 4083TIP3   OH233883   3.012   1.204   1.244
 4083TIP3    H133884   2.973   1.181   1.331
 4083TIP3    H233885   3.044   1.117   1.214
 4084TIP3   OH233886   3.284   1.332   0.193
 4084TIP3    H133887   3.305   1.272   0.268
 4084TIP3    H233888   3.189   1.311   0.182
 4085TIP3   OH233889   3.336   1.661   1.472
 4085TIP3    H133890   3.246   1.626   1.454
 4085TIP3    H233891   3.343   1.730   1.402
 4086TIP3   OH233892   3.712   1.752   0.184
 4086TIP3    H133893   3.715   1.804   0.102
 4086TIP3    H233894   3.658   1.813   0.240
 4087TIP3   OH233895   2.153   0.390   1.431
 4087TIP3    H133896   2.074   0.437   1.462
 4087TIP3    H233897   2.144   0.305   1.479
 4088TIP3   OH233898   3.360   1.158   0.394
 4088TIP3    H133899   3.340   1.070   0.435
 4088TIP3    H233900   3.456   1.164   0.410
 4089TIP3   OH233901   2.109   1.562   1.251
 4089TIP3    H133902   2.169   1.487   1.255
 4089TIP3    H233903   2.116   1.595   1.342
 4090TIP3   OH233904   2.551   1.378   0.252
 4090TIP3    H133905   2.612   1.335   0.314
 4090TIP3    H233906   2.568   1.474   0.270
 4091TIP3   OH233907   2.209   1.105   0.295
 4091TIP3    H133908   2.143   1.153   0.350
 4091TIP3    H233909   2.260   1.178   0.255
 4092TIP3   OH233910   2.988   0.363   1.339
 4092TIP3    H133911   3.062   0.416   1.374
 4092TIP3    H233912   3.016   0.272   1.348
 4093TIP3   OH233913   3.064   0.328   0.446
 4093TIP3    H133914   3.108   0.370   0.370
 4093TIP3    H233915   3.103   0.377   0.522
 4094TIP3   OH233916   2.860   1.501   0.354
 4094TIP3    H133917   2.798   1.574   0.370
 4094TIP3    H233918   2.900   1.532   0.271
 4095TIP3   OH233919   2.778   0.516   0.507
 4095TIP3    H133920   2.852   0.580   0.513
 4095TIP3    H233921   2.767   0.485   0.600
 4096TIP3   OH233922   2.893   0.641   1.417
 4096TIP3    H133923   2.913   0.674   1.508
 4096TIP3    H233924   2.923   0.548   1.419
 4097TIP3   OH233925   2.906   0.191   0.638
 4097TIP3    H133926   2.864   0.270   0.678
 4097TIP3    H233927   2.961   0.233   0.568
 4098TIP3   OH233928   2.592   1.631   0.317
 4098TIP3    H133929   2.616   1.718   0.277
 4098TIP3    H233930   2.556   1.663   0.403
 4099TIP3   OH233931   2.446   0.320   0.290
 4099TIP3    H133932   2.457   0.394   0.353
 4099TIP3    H233933   2.530   0.274   0.312
 4100TIP3   OH233934   3.436   0.389   1.536
 4100TIP3    H133935   3.346   0.408   1.505
 4100TIP3    H233936   3.489   0.390   1.454
 4101TIP3   OH233937   3.366   0.776   0.910
 4101TIP3    H133938   3.285   0.721   0.914
 4101TIP3    H233939   3.431   0.727   0.964
 4102TIP3   OH233940   2.284   1.367   0.162
 4102TIP3    H133941   2.365   1.398   0.207
 4102TIP3    H233942   2.327   1.319   0.089
 4103TIP3   OH233943   2.109   0.667   0.120
 4103TIP3    H133944   2.103   0.765   0.115
 4103TIP3    H233945   2.032   0.638   0.070
 4104TIP3   OH233946   3.437   1.697   1.069
 4104TIP3    H133947   3.448   1.782   1.021
 4104TIP3    H233948   3.532   1.676   1.077
 4105TIP3   OH233949   2.185   0.120   1.005
 4105TIP3    H133950   2.196   0.113   0.908
 4105TIP3    H233951   2.221   0.036   1.038
 4106TIP3   OH233952   2.057   1.525   0.568
 4106TIP3    H133953   1.966   1.546   0.592
 4106TIP3    H233954   2.062   1.573   0.482
 4107TIP3   OH233955   1.988   1.765   1.703
 4107TIP3    H133956   2.053   1.748   1.776
 4107TIP3    H233957   1.956   1.674   1.689
 4108TIP3   OH233958   2.423   1.696   1.824
 4108TIP3    H133959   2.480   1.656   1.892
 4108TIP3    H233960   2.438   1.640   1.744
 4109TIP3   OH233961   2.972   1.607   0.103
 4109TIP3    H133962   2.913   1.556   0.044
 4109TIP3    H233963   3.030   1.645   0.034
 4110TIP3   OH233964   3.104   1.542   1.740
 4110TIP3    H133965   3.097   1.451   1.772
 4110TIP3    H233966   3.190   1.568   1.783
 4111TIP3   OH233967   3.389   1.582   0.034
 4111TIP3    H133968   3.345   1.505   0.075
 4111TIP3    H233969   3.480   1.566   0.064
 4112TIP3   OH233970   1.986   1.111   1.802
 4112TIP3    H133971   1.969   1.015   1.803
 4112TIP3    H233972   1.923   1.142   1.735
 4113TIP3   OH233973   2.450   1.148   0.040
 4113TIP3    H133974   2.502   1.136   0.121
 4113TIP3    H233975   2.507   1.106  -0.028
 4114TIP3   OH233976   2.662   1.138   1.714
 4114TIP3    H133977   2.627   1.190   1.637
 4114TIP3    H233978   2.655   1.044   1.684
 4115TIP3   OH233979   3.225   1.130   1.507
 4115TIP3    H133980   3.313   1.172   1.497
 4115TIP3    H233981   3.176   1.215   1.514
 4116TIP3   OH233982   2.073   0.843   1.768
 4116TIP3    H133983   2.164   0.872   1.780
 4116TIP3    H233984   2.072   0.765   1.829
 4117TIP3   OH233985   2.558   0.989   0.267
 4117TIP3    H133986   2.490   0.936   0.312
 4117TIP3    H233987   2.593   0.928   0.200
 4118TIP3   OH233988   2.453   0.743   1.439
 4118TIP3    H133989   2.398   0.817   1.470
 4118TIP3    H233990   2.523   0.793   1.392
 4119TIP3   OH233991   2.664   0.797   0.063
 4119TIP3    H133992   2.682   0.828  -0.028
 4119TIP3    H233993   2.752   0.815   0.106
 4120TIP3   OH233994   3.029   1.066   1.819
 4120TIP3    H133995   3.070   1.021   1.745
 4120TIP3    H233996   3.004   0.994   1.880
 4121TIP3   OH233997   3.562   1.084   8.487
 4121TIP3    H133998   3.527   1.111   8.401
 4121TIP3    H233999   3.596   1.168   8.522
 4122TIP3   OH234000   2.543   0.532   1.570
 4122TIP3    H134001   2.554   0.462   1.501
 4122TIP3    H234002   2.516   0.609   1.515
 4123TIP3   OH234003   2.598   0.358   1.369
 4123TIP3    H134004   2.663   0.392   1.304
 4123TIP3    H234005   2.516   0.363   1.315
 4124TIP3   OH234006   2.668   0.916   1.363
 4124TIP3    H134007   2.759   0.933   1.337
 4124TIP3    H234008   2.622   0.993   1.323
 4125TIP3   OH234009   3.094   0.685   1.836
 4125TIP3    H134010   3.108   0.589   1.840
 4125TIP3    H234011   3.183   0.722   1.847
 4126TIP3   OH234012   3.306   0.957   1.704
 4126TIP3    H134013   3.273   1.022   1.639
 4126TIP3    H234014   3.401   0.949   1.678
 4127TIP3   OH234015   2.348   0.629   1.793
 4127TIP3    H134016   2.284   0.557   1.779
 4127TIP3    H234017   2.413   0.613   1.724
 4128TIP3   OH234018   2.641   0.106   1.323
 4128TIP3    H134019   2.627   0.197   1.360
 4128TIP3    H234020   2.554   0.094   1.281
 4129TIP3   OH234021   2.767   0.533   1.731
 4129TIP3    H134022   2.739   0.520   1.823
 4129TIP3    H234023   2.682   0.515   1.683
 4130TIP3   OH234024   3.017   0.405   1.683
 4130TIP3    H134025   2.932   0.433   1.723
 4130TIP3    H234026   3.069   0.375   1.761
 4131TIP3   OH234027   3.205   0.336   1.859
 4131TIP3    H134028   3.209   0.241   1.885
 4131TIP3    H234029   3.196   0.383   1.945
 4132TIP3   OH234030   2.175   0.403   1.829
 4132TIP3    H134031   2.176   0.336   1.758
 4132TIP3    H234032   2.192   0.351   1.909
 4133TIP3   OH234033   2.686   7.315   1.639
 4133TIP3    H134034   2.643   7.239   1.678
 4133TIP3    H234035   2.631   7.338   1.563
 4134TIP3   OH234036   2.630   0.120   1.932
 4134TIP3    H134037   2.679   0.131   1.849
 4134TIP3    H234038   2.661   0.195   1.987
 4135TIP3   OH234039   2.642   1.857   0.198
 4135TIP3    H134040   2.738   1.871   0.186
 4135TIP3    H234041   2.610   1.896   0.117
 4136TIP3   OH234042   1.990   1.310   0.143
 4136TIP3    H134043   2.080   1.345   0.139
 4136TIP3    H234044   1.981   1.279   0.051
 4137TIP3   OH234045   1.907   1.818   0.604
 4137TIP3    H134046   1.821   1.775   0.583
 4137TIP3    H234047   1.931   1.771   0.686
 4138TIP3   OH234048   1.968   1.674   0.819
 4138TIP3    H134049   1.915   1.605   0.862
 4138TIP3    H234050   2.028   1.701   0.892
 4139TIP3   OH234051   3.708   1.736   1.071
 4139TIP3    H134052   3.745   1.735   1.161
 4139TIP3    H234053   3.755   1.811   1.033
 4140TIP3   OH234054   3.670   1.696   1.391
 4140TIP3    H134055   3.633   1.618   1.345
 4140TIP3    H234056   3.700   1.654   1.474
 4141TIP3   OH234057   3.576   1.310   1.897
 4141TIP3    H134058   3.488   1.319   1.938
 4141TIP3    H234059   3.632   1.332   1.974
 4142TIP3   OH234060   3.644   1.110   0.387
 4142TIP3    H134061   3.724   1.163   0.409
 4142TIP3    H234062   3.635   1.056   0.469
 4143TIP3   OH234063   3.657   0.956   0.609
 4143TIP3    H134064   3.592   0.894   0.649
 4143TIP3    H234065   3.718   0.969   0.684
 4144TIP3   OH234066   3.648   1.195   1.058
 4144TIP3    H134067   3.718   1.126   1.058
 4144TIP3    H234068   3.695   1.271   1.020
 4145TIP3   OH234069   3.524   1.486   1.317
 4145TIP3    H134070   3.455   1.526   1.373
 4145TIP3    H234071   3.476   1.466   1.234
 4146TIP3   OH234072   3.688   0.894   0.218
 4146TIP3    H134073   3.612   0.910   0.161
 4146TIP3    H234074   3.681   0.969   0.281
 4147TIP3   OH234075   3.480   0.639   0.101
 4147TIP3    H134076   3.562   0.680   0.067
 4147TIP3    H234077   3.478   0.558   0.044
 4148TIP3   OH234078   3.475   0.779   0.676
 4148TIP3    H134079   3.450   0.688   0.655
 4148TIP3    H234080   3.443   0.785   0.769
 4149TIP3   OH234081   1.953   1.008   1.084
 4149TIP3    H134082   1.942   0.975   0.992
 4149TIP3    H234083   2.045   0.977   1.104
 4150TIP3   OH234084   3.571   0.972   1.608
 4150TIP3    H134085   3.606   0.882   1.624
 4150TIP3    H234086   3.650   1.025   1.586
 4151TIP3   OH234087   3.659   0.729   1.640
 4151TIP3    H134088   3.575   0.696   1.680
 4151TIP3    H234089   3.721   0.657   1.666
 4152TIP3   OH234090   3.482   0.396  -0.014
 4152TIP3    H134091   3.541   0.357   0.054
 4152TIP3    H234092   3.392   0.371   0.013
 4153TIP3   OH234093   3.384   0.549   0.490
 4153TIP3    H134094   3.420   0.466   0.527
 4153TIP3    H234095   3.449   0.565   0.421
 4154TIP3   OH234096   3.538   0.609   1.060
 4154TIP3    H134097   3.636   0.618   1.069
 4154TIP3    H234098   3.513   0.643   1.148
 4155TIP3   OH234099   3.509   0.674   1.320
 4155TIP3    H134100   3.435   0.701   1.377
 4155TIP3    H234101   3.555   0.759   1.306
 4156TIP3   OH234102   1.952   0.510   1.680
 4156TIP3    H134103   2.038   0.484   1.715
 4156TIP3    H234104   1.913   0.422   1.659
 4157TIP3   OH234105   3.696  -0.015   1.842
 4157TIP3    H134106   3.716  -0.056   1.755
 4157TIP3    H234107   3.734   0.074   1.832
 4158TIP3   OH234108   3.483   0.296   0.534
 4158TIP3    H134109   3.530   0.256   0.610
 4158TIP3    H234110   3.446   0.215   0.495
 4159TIP3   OH234111   2.036   0.345   0.986
 4159TIP3    H134112   2.076   0.260   1.014
 4159TIP3    H234113   2.113   0.403   0.993
 4160TIP3   OH234114   1.891   0.644   1.102
 4160TIP3    H134115   1.956   0.618   1.034
 4160TIP3    H234116   1.921   0.734   1.121
 4161TIP3   OH234117   3.653   0.265   1.675
 4161TIP3    H134118   3.579   0.322   1.646
 4161TIP3    H234119   3.651   0.201   1.601
 4162TIP3   OH234120   3.669   0.294   0.159
 4162TIP3    H134121   3.705   0.209   0.129
 4162TIP3    H234122   3.750   0.347   0.174
 4163TIP3   OH234123   1.941   0.236   0.457
 4163TIP3    H134124   1.847   0.213   0.460
 4163TIP3    H234125   1.939   0.320   0.409
 4164TIP3   OH234126   3.391   1.794   0.689
 4164TIP3    H134127   3.462   1.758   0.632
 4164TIP3    H234128   3.439   1.836   0.762
 4165TIP3   OH234129   1.917   0.123   1.279
 4165TIP3    H134130   1.862   0.121   1.358
 4165TIP3    H234131   1.865   0.181   1.220
 4166TIP3   OH234132   2.147   1.441   1.715
 4166TIP3    H134133   2.073   1.484   1.670
 4166TIP3    H234134   2.116   1.440   1.806
 4167TIP3   OH234135   2.444   1.612   1.374
 4167TIP3    H134136   2.437   1.699   1.328
 4167TIP3    H234137   2.541   1.597   1.363
 4168TIP3   OH234138   2.831   1.716   1.613
 4168TIP3    H134139   2.840   1.686   1.706
 4168TIP3    H234140   2.920   1.754   1.597
 4169TIP3   OH234141   3.059   1.874   1.566
 4169TIP3    H134142   3.145   1.846   1.532
 4169TIP3    H234143   3.082   1.910   1.653
 4170TIP3   OH234144   3.597   0.098   1.472
 4170TIP3    H134145   3.517   0.137   1.433
 4170TIP3    H234146   3.614   0.022   1.413
 4171TIP3   OH234147   2.169   1.905   1.336
 4171TIP3    H134148   2.095   1.965   1.315
 4171TIP3    H234149   2.164   1.898   1.433
 4172TIP3   OH234150   2.412   1.846   1.245
 4172TIP3    H134151   2.320   1.861   1.278
 4172TIP3    H234152   2.414   1.903   1.166
 4173TIP3   OH234153   2.865   1.799   1.180
 4173TIP3    H134154   2.793   1.832   1.125
 4173TIP3    H234155   2.886   1.881   1.230
 4174TIP3   OH234156   3.075   1.675   1.304
 4174TIP3    H134157   3.008   1.721   1.249
 4174TIP3    H234158   3.154   1.727   1.277
 4175TIP3   OH234159   3.315   1.830   1.265
 4175TIP3    H134160   3.331   1.922   1.233
 4175TIP3    H234161   3.359   1.779   1.193
 4176TIP3   OH234162   2.124   1.731   1.032
 4176TIP3    H134163   2.098   1.674   1.107
 4176TIP3    H234164   2.215   1.695   1.014
 4177TIP3   OH234165   2.346   1.623   0.921
 4177TIP3    H134166   2.338   1.528   0.943
 4177TIP3    H234167   2.434   1.640   0.962
 4178TIP3   OH234168   2.575   1.621   1.057
 4178TIP3    H134169   2.605   1.529   1.037
 4178TIP3    H234170   2.606   1.633   1.149
 4179TIP3   OH234171   2.915   0.297   0.944
 4179TIP3    H134172   2.849   0.230   0.971
 4179TIP3    H234173   2.971   0.243   0.885
 4180TIP3   OH234174   3.456   0.041   0.892
 4180TIP3    H134175   3.516   0.096   0.836
 4180TIP3    H234176   3.374   0.092   0.893
 4181TIP3   OH234177   3.614   0.196   0.740
 4181TIP3    H134178   3.688   0.137   0.765
 4181TIP3    H234179   3.661   0.283   0.747
 4182TIP3   OH234180   2.144   0.121   0.700
 4182TIP3    H134181   2.063   0.076   0.669
 4182TIP3    H234182   2.203   0.045   0.719
 4183TIP3   OH234183   1.973   0.128   0.207
 4183TIP3    H134184   2.054   0.177   0.178
 4183TIP3    H234185   1.962   0.150   0.301
 4184TIP3   OH234186   2.643   0.103   0.683
 4184TIP3    H134187   2.736   0.123   0.661
 4184TIP3    H234188   2.651   0.108   0.781
 4185TIP3   OH234189   3.107   0.119   0.810
 4185TIP3    H134190   3.054   0.124   0.728
 4185TIP3    H234191   3.137   0.026   0.807
 4186TIP3   OH234192   3.318   0.066   0.407
 4186TIP3    H134193   3.249   0.134   0.409
 4186TIP3    H234194   3.269  -0.017   0.415
 4187TIP3   OH234195   2.038   1.678   0.345
 4187TIP3    H134196   1.945   1.676   0.316
 4187TIP3    H234197   2.053   1.774   0.334
 4188TIP3   OH234198   2.205   0.227   0.112
 4188TIP3    H134199   2.246   0.189   0.032
 4188TIP3    H234200   2.280   0.247   0.168
 4189TIP3   OH234201   2.705   0.273   0.359
 4189TIP3    H134202   2.778   0.255   0.419
 4189TIP3    H234203   2.711   0.371   0.358
 4190TIP3   OH234204   2.919   1.867   0.176
 4190TIP3    H134205   2.991   1.907   0.124
 4190TIP3    H234206   2.946   1.773   0.169
 4191TIP3   OH234207   3.562   1.692   0.511
 4191TIP3    H134208   3.552   1.613   0.452
 4191TIP3    H234209   3.556   1.763   0.445
 4192TIP3   OH234210   2.126   0.197   1.617
 4192TIP3    H134211   2.064   0.124   1.630
 4192TIP3    H234212   2.207   0.163   1.660
 4193TIP3   OH234213   2.316   0.118   1.812
 4193TIP3    H134214   2.400   0.132   1.857
 4193TIP3    H234215   2.295   0.027   1.840
 4194TIP3   OH234216   2.219   1.788   0.078
 4194TIP3    H134217   2.162   1.801   0.155
 4194TIP3    H234218   2.262   1.704   0.095
 4195TIP3   OH234219   3.177   0.074   1.912
 4195TIP3    H134220   3.099   0.016   1.917
 4195TIP3    H234221   3.248   0.008   1.932
 4196TIP3   OH234222   3.522   1.627   1.660
 4196TIP3    H134223   3.451   1.628   1.592
 4196TIP3    H234224   3.502   1.708   1.710
 4197TIP3   OH234225   4.988   1.018   0.670
 4197TIP3    H134226   4.972   1.115   0.681
 4197TIP3    H234227   4.910   0.996   0.616
 4198TIP3   OH234228   4.874   0.882   0.996
 4198TIP3    H134229   4.881   0.845   1.086
 4198TIP3    H234230   4.788   0.847   0.967
 4199TIP3   OH234231   4.051   0.891   1.198
 4199TIP3    H134232   4.052   0.812   1.255
 4199TIP3    H234233   4.146   0.904   1.179
 4200TIP3   OH234234   5.161   1.236   0.893
 4200TIP3    H134235   5.154   1.158   0.950
 4200TIP3    H234236   5.193   1.304   0.955
 4201TIP3   OH234237   4.168   1.354   1.020
 4201TIP3    H134238   4.128   1.269   0.992
 4201TIP3    H234239   4.261   1.336   0.997
 4202TIP3   OH234240   3.861   0.696   0.561
 4202TIP3    H134241   3.808   0.749   0.622
 4202TIP3    H234242   3.797   0.685   0.488
 4203TIP3   OH234243   3.873   0.930   0.820
 4203TIP3    H134244   3.907   0.838   0.829
 4203TIP3    H234245   3.952   0.983   0.800
 4204TIP3   OH234246   4.930   1.760   0.852
 4204TIP3    H134247   4.990   1.704   0.797
 4204TIP3    H234248   4.903   1.695   0.918
 4205TIP3   OH234249   4.653   1.155   1.120
 4205TIP3    H134250   4.690   1.150   1.030
 4205TIP3    H234251   4.732   1.185   1.170
 4206TIP3   OH234252   5.519   0.300   1.134
 4206TIP3    H134253   5.529   0.364   1.208
 4206TIP3    H234254   5.590   0.333   1.077
 4207TIP3   OH234255   5.015   0.624   1.133
 4207TIP3    H134256   5.054   0.538   1.157
 4207TIP3    H234257   5.021   0.619   1.035
 4208TIP3   OH234258   4.305   0.440   0.810
 4208TIP3    H134259   4.336   0.507   0.747
 4208TIP3    H234260   4.258   0.380   0.747
 4209TIP3   OH234261   5.084   0.425   0.672
 4209TIP3    H134262   5.135   0.420   0.756
 4209TIP3    H234263   5.128   0.500   0.630
 4210TIP3   OH234264   3.964   0.668   0.910
 4210TIP3    H134265   4.031   0.625   0.966
 4210TIP3    H234266   3.981   0.622   0.825
 4211TIP3   OH234267   4.409   0.822   0.848
 4211TIP3    H134268   4.496   0.783   0.870
 4211TIP3    H234269   4.379   0.760   0.779
 4212TIP3   OH234270   5.542   0.465   1.367
 4212TIP3    H134271   5.497   0.546   1.332
 4212TIP3    H234272   5.564   0.494   1.456
 4213TIP3   OH234273   4.228   0.330   1.255
 4213TIP3    H134274   4.176   0.366   1.181
 4213TIP3    H234275   4.159   0.330   1.325
 4214TIP3   OH234276   4.887   1.253   0.572
 4214TIP3    H134277   4.872   1.260   0.476
 4214TIP3    H234278   4.847   1.339   0.602
 4215TIP3   OH234279   4.420   1.087   1.218
 4215TIP3    H134280   4.367   1.164   1.247
 4215TIP3    H234281   4.501   1.130   1.182
 4216TIP3   OH234282   5.262   0.441   0.878
 4216TIP3    H134283   5.283   0.355   0.917
 4216TIP3    H234284   5.325   0.496   0.930
 4217TIP3   OH234285   4.164   0.503   1.031
 4217TIP3    H134286   4.238   0.546   1.080
 4217TIP3    H234287   4.213   0.473   0.951
 4218TIP3   OH234288   4.303   1.308   1.316
 4218TIP3    H134289   4.266   1.364   1.245
 4218TIP3    H234290   4.220   1.290   1.367
 4219TIP3   OH234291   3.879   1.234   0.412
 4219TIP3    H134292   3.879   1.271   0.321
 4219TIP3    H234293   3.895   1.314   0.466
 4220TIP3   OH234294   5.250   1.433   1.060
 4220TIP3    H134295   5.156   1.458   1.077
 4220TIP3    H234296   5.280   1.517   1.021
 4221TIP3   OH234297   5.270   0.315   1.271
 4221TIP3    H134298   5.202   0.325   1.201
 4221TIP3    H234299   5.350   0.298   1.219
 4222TIP3   OH234300   4.594   0.134   0.949
 4222TIP3    H134301   4.615   0.052   0.997
 4222TIP3    H234302   4.508   0.159   0.991
 4223TIP3   OH234303   5.099   1.609   0.717
 4223TIP3    H134304   5.123   1.526   0.672
 4223TIP3    H234305   5.181   1.664   0.701
 4224TIP3   OH234306   5.177   1.380   0.579
 4224TIP3    H134307   5.179   1.304   0.518
 4224TIP3    H234308   5.170   1.334   0.664
 4225TIP3   OH234309   5.344   1.245   1.464
 4225TIP3    H134310   5.364   1.170   1.403
 4225TIP3    H234311   5.358   1.319   1.403
 4226TIP3   OH234312   4.817   0.938   0.426
 4226TIP3    H134313   4.762   1.020   0.419
 4226TIP3    H234314   4.900   0.964   0.382
 4227TIP3   OH234315   4.824   0.828   0.147
 4227TIP3    H134316   4.895   0.852   0.210
 4227TIP3    H234317   4.853   0.740   0.120
 4228TIP3   OH234318   5.547   0.880   1.237
 4228TIP3    H134319   5.484   0.955   1.246
 4228TIP3    H234320   5.615   0.923   1.181
 4229TIP3   OH234321   5.204   0.914   0.515
 4229TIP3    H134322   5.133   0.946   0.575
 4229TIP3    H234323   5.266   0.872   0.579
 4230TIP3   OH234324   5.148   0.763   1.418
 4230TIP3    H134325   5.141   0.844   1.473
 4230TIP3    H234326   5.085   0.787   1.348
 4231TIP3   OH234327   4.326   1.036   0.707
 4231TIP3    H134328   4.310   0.986   0.625
 4231TIP3    H234329   4.356   0.966   0.767
 4232TIP3   OH234330   4.453   1.326   0.981
 4232TIP3    H134331   4.482   1.317   0.889
 4232TIP3    H234332   4.522   1.280   1.032
 4233TIP3   OH234333   4.318   0.885   1.092
 4233TIP3    H134334   4.350   0.884   0.998
 4233TIP3    H234335   4.370   0.960   1.132
 4234TIP3   OH234336   4.988   1.455   1.130
 4234TIP3    H134337   4.945   1.514   1.194
 4234TIP3    H234338   4.983   1.369   1.176
 4235TIP3   OH234339   4.448   1.338   1.548
 4235TIP3    H134340   4.381   1.395   1.593
 4235TIP3    H234341   4.410   1.336   1.458
 4236TIP3   OH234342   5.048   0.895   0.301
 4236TIP3    H134343   5.111   0.902   0.375
 4236TIP3    H234344   5.096   0.946   0.231
 4237TIP3   OH234345   4.164   0.937   1.470
 4237TIP3    H134346   4.191   1.001   1.539
 4237TIP3    H234347   4.070   0.924   1.491
 4238TIP3   OH234348   4.809   1.497   0.659
 4238TIP3    H134349   4.847   1.546   0.733
 4238TIP3    H234350   4.774   1.567   0.604
 4239TIP3   OH234351   4.274   1.513   1.633
 4239TIP3    H134352   4.254   1.551   1.544
 4239TIP3    H234353   4.184   1.487   1.663
 4240TIP3   OH234354   5.448   0.060   0.303
 4240TIP3    H134355   5.354   0.044   0.323
 4240TIP3    H234356   5.449   0.149   0.265
 4241TIP3   OH234357   4.221   0.909   0.446
 4241TIP3    H134358   4.170   0.978   0.398
 4241TIP3    H234359   4.157   0.838   0.460
 4242TIP3   OH234360   5.521   1.435   0.114
 4242TIP3    H134361   5.548   1.529   0.113
 4242TIP3    H234362   5.608   1.394   0.132
 4243TIP3   OH234363   3.860   1.155   1.379
 4243TIP3    H134364   3.817   1.155   1.292
 4243TIP3    H234365   3.908   1.070   1.370
 4244TIP3   OH234366   3.824   1.435   1.024
 4244TIP3    H134367   3.912   1.442   1.063
 4244TIP3    H234368   3.780   1.514   1.059
 4245TIP3   OH234369   5.637   1.456   1.635
 4245TIP3    H134370   5.621   1.360   1.652
 4245TIP3    H234371   5.548   1.490   1.657
 4246TIP3   OH234372   4.693   1.459   1.514
 4246TIP3    H134373   4.732   1.512   1.587
 4246TIP3    H234374   4.605   1.432   1.548
 4247TIP3   OH234375   4.759   1.827   0.446
 4247TIP3    H134376   4.766   1.855   0.352
 4247TIP3    H234377   4.767   1.914   0.490
 4248TIP3   OH234378   4.143   1.692   0.660
 4248TIP3    H134379   4.169   1.662   0.751
 4248TIP3    H234380   4.056   1.651   0.649
 4249TIP3   OH234381   5.077   1.788   0.158
 4249TIP3    H134382   5.122   1.711   0.118
 4249TIP3    H234383   5.082   1.768   0.253
 4250TIP3   OH234384   5.040   1.766   0.434
 4250TIP3    H134385   4.943   1.773   0.448
 4250TIP3    H234386   5.061   1.686   0.486
 4251TIP3   OH234387   5.322   0.630   1.639
 4251TIP3    H134388   5.267   0.694   1.591
 4251TIP3    H234389   5.295   0.545   1.599
 4252TIP3   OH234390   4.076   1.305   1.452
 4252TIP3    H134391   4.081   1.277   1.547
 4252TIP3    H234392   3.991   1.264   1.427
 4253TIP3   OH234393   4.354   0.198   1.049
 4253TIP3    H134394   4.281   0.188   0.987
 4253TIP3    H234395   4.311   0.238   1.127
 4254TIP3   OH234396   4.806   0.112   1.368
 4254TIP3    H134397   4.832   0.061   1.445
 4254TIP3    H234398   4.710   0.097   1.367
 4255TIP3   OH234399   5.110   0.503   1.503
 4255TIP3    H134400   5.030   0.501   1.558
 4255TIP3    H234401   5.112   0.594   1.467
 4256TIP3   OH234402   5.178   1.010   0.101
 4256TIP3    H134403   5.178   1.031   0.007
 4256TIP3    H234404   5.259   1.056   0.129
 4257TIP3   OH234405   4.783   0.368   0.122
 4257TIP3    H134406   4.731   0.338   0.199
 4257TIP3    H234407   4.792   0.285   0.074
 4258TIP3   OH234408   4.359   0.635   1.180
 4258TIP3    H134409   4.287   0.651   1.245
 4258TIP3    H234410   4.355   0.721   1.132
 4259TIP3   OH234411   4.334   0.629   0.624
 4259TIP3    H134412   4.239   0.606   0.625
 4259TIP3    H234413   4.365   0.606   0.534
 4260TIP3   OH234414   4.896   0.722   0.555
 4260TIP3    H134415   4.864   0.799   0.502
 4260TIP3    H234416   4.968   0.690   0.496
 4261TIP3   OH234417   4.781   0.758   1.708
 4261TIP3    H134418   4.727   0.678   1.731
 4261TIP3    H234419   4.837   0.721   1.639
 4262TIP3   OH234420   5.000   0.677   0.853
 4262TIP3    H134421   4.970   0.765   0.824
 4262TIP3    H234422   4.983   0.624   0.774
 4263TIP3   OH234423   4.088   0.647   1.324
 4263TIP3    H134424   4.113   0.671   1.415
 4263TIP3    H234425   4.053   0.558   1.335
 4264TIP3   OH234426   4.436   0.422   0.074
 4264TIP3    H134427   4.386   0.381   0.149
 4264TIP3    H234428   4.416   0.515   0.088
 4265TIP3   OH234429   3.798   0.388   0.738
 4265TIP3    H134430   3.862   0.384   0.812
 4265TIP3    H234431   3.846   0.338   0.670
 4266TIP3   OH234432   3.877   0.442   0.290
 4266TIP3    H134433   3.939   0.488   0.230
 4266TIP3    H234434   3.831   0.517   0.333
 4267TIP3   OH234435   4.895   0.823   1.260
 4267TIP3    H134436   4.946   0.750   1.219
 4267TIP3    H234437   4.832   0.772   1.316
 4268TIP3   OH234438   4.632   0.393   0.731
 4268TIP3    H134439   4.546   0.376   0.776
 4268TIP3    H234440   4.692   0.395   0.809
 4269TIP3   OH234441   4.054   0.547   0.674
 4269TIP3    H134442   3.989   0.591   0.616
 4269TIP3    H234443   4.071   0.461   0.630
 4270TIP3   OH234444   4.451   0.581   0.383
 4270TIP3    H134445   4.542   0.610   0.405
 4270TIP3    H234446   4.416   0.651   0.324
 4271TIP3   OH234447   5.044   0.315   1.093
 4271TIP3    H134448   4.963   0.344   1.137
 4271TIP3    H234449   5.012   0.279   1.008
 4272TIP3   OH234450   4.327   0.708   0.165
 4272TIP3    H134451   4.274   0.673   0.091
 4272TIP3    H234452   4.407   0.740   0.118
 4273TIP3   OH234453   5.337   1.868   1.736
 4273TIP3    H134454   5.378   1.906   1.657
 4273TIP3    H234455   5.385   1.917   1.804
 4274TIP3   OH234456   4.108   1.163   1.682
 4274TIP3    H134457   4.160   1.199   1.756
 4274TIP3    H234458   4.030   1.126   1.729
 4275TIP3   OH234459   4.682   0.691   0.947
 4275TIP3    H134460   4.763   0.658   0.905
 4275TIP3    H234461   4.667   0.619   1.012
 4276TIP3   OH234462   4.185   0.311   0.608
 4276TIP3    H134463   4.127   0.243   0.649
 4276TIP3    H234464   4.223   0.258   0.536
 4277TIP3   OH234465   4.629   0.530   1.174
 4277TIP3    H134466   4.544   0.577   1.170
 4277TIP3    H234467   4.669   0.568   1.253
 4278TIP3   OH234468   4.651   1.147   0.414
 4278TIP3    H134469   4.579   1.095   0.372
 4278TIP3    H234470   4.609   1.175   0.498
 4279TIP3   OH234471   5.375   1.089   1.253
 4279TIP3    H134472   5.428   1.154   1.201
 4279TIP3    H234473   5.296   1.083   1.197
 4280TIP3   OH234474   5.031   0.436   0.196
 4280TIP3    H134475   4.940   0.437   0.161
 4280TIP3    H234476   5.039   0.525   0.235
 4281TIP3   OH234477   4.745   1.193   1.478
 4281TIP3    H134478   4.725   1.183   1.572
 4281TIP3    H234479   4.715   1.284   1.462
 4282TIP3   OH234480   5.084   0.641   0.375
 4282TIP3    H134481   5.164   0.618   0.428
 4282TIP3    H234482   5.114   0.721   0.329
 4283TIP3   OH234483   4.149   1.085   0.919
 4283TIP3    H134484   4.201   1.084   0.836
 4283TIP3    H234485   4.195   1.023   0.977
 4284TIP3   OH234486   4.836   1.278   0.276
 4284TIP3    H134487   4.796   1.364   0.302
 4284TIP3    H234488   4.774   1.215   0.320
 4285TIP3   OH234489   3.875   0.883   1.496
 4285TIP3    H134490   3.845   0.854   1.584
 4285TIP3    H234491   3.807   0.844   1.439
 4286TIP3   OH234492   4.539   0.895   1.649
 4286TIP3    H134493   4.513   0.876   1.557
 4286TIP3    H234494   4.626   0.851   1.652
 4287TIP3   OH234495   5.044   1.398   1.499
 4287TIP3    H134496   4.965   1.408   1.443
 4287TIP3    H234497   5.013   1.441   1.581
 4288TIP3   OH234498   5.585   0.630   0.322
 4288TIP3    H134499   5.526   0.613   0.245
 4288TIP3    H234500   5.575   0.728   0.328
 4289TIP3   OH234501   5.592   1.187   1.622
 4289TIP3    H134502   5.503   1.206   1.587
 4289TIP3    H234503   5.643   1.173   1.540
 4290TIP3   OH234504   5.383   1.511   0.355
 4290TIP3    H134505   5.374   1.424   0.396
 4290TIP3    H234506   5.413   1.491   0.265
 4291TIP3   OH234507   5.127   0.998   1.059
 4291TIP3    H134508   5.037   0.978   1.029
 4291TIP3    H234509   5.177   0.930   1.008
 4292TIP3   OH234510   4.369   1.439   0.687
 4292TIP3    H134511   4.388   1.531   0.656
 4292TIP3    H234512   4.283   1.424   0.646
 4293TIP3   OH234513   3.981   0.952   0.101
 4293TIP3    H134514   4.025   0.997   0.176
 4293TIP3    H234515   3.892   0.938   0.137
 4294TIP3   OH234516   4.518   1.215   0.639
 4294TIP3    H134517   4.466   1.298   0.648
 4294TIP3    H234518   4.459   1.149   0.682
 4295TIP3   OH234519   4.568   1.626   1.308
 4295TIP3    H134520   4.640   1.684   1.277
 4295TIP3    H234521   4.613   1.581   1.382
 4296TIP3   OH234522   4.401   1.685   0.577
 4296TIP3    H134523   4.305   1.687   0.598
 4296TIP3    H234524   4.427   1.770   0.618
 4297TIP3   OH234525   4.890   1.205   1.232
 4297TIP3    H134526   4.861   1.183   1.323
 4297TIP3    H234527   4.932   1.122   1.203
 4298TIP3   OH234528   5.157   1.333   0.188
 4298TIP3    H134529   5.184   1.284   0.268
 4298TIP3    H234530   5.065   1.302   0.180
 4299TIP3   OH234531   5.230   1.640   1.468
 4299TIP3    H134532   5.136   1.615   1.466
 4299TIP3    H234533   5.236   1.717   1.406
 4300TIP3   OH234534   5.594   1.745   0.191
 4300TIP3    H134535   5.646   1.797   0.128
 4300TIP3    H234536   5.536   1.810   0.235
 4301TIP3   OH234537   4.014   0.359   1.421
 4301TIP3    H134538   3.930   0.406   1.422
 4301TIP3    H234539   4.000   0.288   1.489
 4302TIP3   OH234540   5.251   1.159   0.400
 4302TIP3    H134541   5.228   1.071   0.437
 4302TIP3    H234542   5.349   1.152   0.398
 4303TIP3   OH234543   3.981   1.572   1.255
 4303TIP3    H134544   4.045   1.501   1.258
 4303TIP3    H234545   3.990   1.610   1.344
 4304TIP3   OH234546   4.440   1.371   0.249
 4304TIP3    H134547   4.501   1.329   0.313
 4304TIP3    H234548   4.454   1.467   0.271
 4305TIP3   OH234549   4.094   1.103   0.291
 4305TIP3    H134550   4.040   1.150   0.357
 4305TIP3    H234551   4.139   1.176   0.244
 4306TIP3   OH234552   4.876   0.373   1.332
 4306TIP3    H134553   4.970   0.369   1.356
 4306TIP3    H234554   4.849   0.279   1.334
 4307TIP3   OH234555   4.980   0.311   0.458
 4307TIP3    H134556   4.994   0.383   0.394
 4307TIP3    H234557   5.023   0.348   0.539
 4308TIP3   OH234558   4.759   1.522   0.341
 4308TIP3    H134559   4.698   1.593   0.363
 4308TIP3    H234560   4.805   1.557   0.261
 4309TIP3   OH234561   4.705   0.514   0.498
 4309TIP3    H134562   4.760   0.590   0.524
 4309TIP3    H234563   4.669   0.482   0.583
 4310TIP3   OH234564   4.769   0.635   1.426
 4310TIP3    H134565   4.701   0.611   1.491
 4310TIP3    H234566   4.809   0.547   1.407
 4311TIP3   OH234567   4.774   0.195   0.621
 4311TIP3    H134568   4.733   0.274   0.663
 4311TIP3    H234569   4.838   0.238   0.561
 4312TIP3   OH234570   4.468   1.631   0.311
 4312TIP3    H134571   4.499   1.717   0.273
 4312TIP3    H234572   4.435   1.663   0.398
 4313TIP3   OH234573   4.331   0.325   0.298
 4313TIP3    H134574   4.326   0.405   0.353
 4313TIP3    H234575   4.421   0.295   0.321
 4314TIP3   OH234576   5.345   0.358   1.554
 4314TIP3    H134577   5.251   0.372   1.531
 4314TIP3    H234578   5.385   0.370   1.466
 4315TIP3   OH234579   5.244   0.785   0.930
 4315TIP3    H134580   5.166   0.727   0.922
 4315TIP3    H234581   5.311   0.726   0.973
 4316TIP3   OH234582   4.170   1.362   0.156
 4316TIP3    H134583   4.250   1.390   0.205
 4316TIP3    H234584   4.216   1.309   0.089
 4317TIP3   OH234585   3.976   0.677   0.142
 4317TIP3    H134586   4.006   0.768   0.122
 4317TIP3    H234587   3.911   0.660   0.073
 4318TIP3   OH234588   5.334   1.692   1.064
 4318TIP3    H134589   5.340   1.766   1.001
 4318TIP3    H234590   5.429   1.679   1.083
 4319TIP3   OH234591   4.078   0.113   1.005
 4319TIP3    H134592   4.067   0.101   0.910
 4319TIP3    H234593   4.123   0.030   1.028
 4320TIP3   OH234594   3.928   1.483   0.542
 4320TIP3    H134595   3.860   1.531   0.592
 4320TIP3    H234596   3.945   1.550   0.472
 4321TIP3   OH234597   3.878   1.779   1.702
 4321TIP3    H134598   3.948   1.765   1.770
 4321TIP3    H234599   3.844   1.689   1.693
 4322TIP3   OH234600   4.367   1.680   1.838
 4322TIP3    H134601   4.456   1.643   1.847
 4322TIP3    H234602   4.334   1.634   1.758
 4323TIP3   OH234603   4.844   1.624   0.102
 4323TIP3    H134604   4.778   1.573   0.049
 4323TIP3    H234605   4.890   1.672   0.032
 4324TIP3   OH234606   4.985   1.540   1.724
 4324TIP3    H134607   4.967   1.458   1.776
 4324TIP3    H234608   5.069   1.568   1.767
 4325TIP3   OH234609   5.264   1.590   0.023
 4325TIP3    H134610   5.233   1.525   0.090
 4325TIP3    H234611   5.359   1.574   0.026
 4326TIP3   OH234612   3.870   1.116   1.791
 4326TIP3    H134613   3.857   1.019   1.784
 4326TIP3    H234614   3.798   1.151   1.734
 4327TIP3   OH234615   4.336   1.145   0.042
 4327TIP3    H134616   4.401   1.147   0.114
 4327TIP3    H234617   4.388   1.091  -0.022
 4328TIP3   OH234618   4.548   1.162   1.709
 4328TIP3    H134619   4.511   1.217   1.635
 4328TIP3    H234620   4.525   1.070   1.681
 4329TIP3   OH234621   5.109   1.125   1.503
 4329TIP3    H134622   5.198   1.166   1.504
 4329TIP3    H234623   5.058   1.208   1.508
 4330TIP3   OH234624   3.954   0.856   1.789
 4330TIP3    H134625   4.023   0.790   1.775
 4330TIP3    H234626   3.991   0.905   1.866
 4331TIP3   OH234627   4.456   0.999   0.264
 4331TIP3    H134628   4.384   0.952   0.310
 4331TIP3    H234629   4.484   0.932   0.199
 4332TIP3   OH234630   4.339   0.750   1.443
 4332TIP3    H134631   4.282   0.827   1.464
 4332TIP3    H234632   4.407   0.794   1.390
 4333TIP3   OH234633   4.559   0.796   0.060
 4333TIP3    H134634   4.594   0.800  -0.032
 4333TIP3    H234635   4.644   0.813   0.110
 4334TIP3   OH234636   4.892   1.059   1.812
 4334TIP3    H134637   4.950   1.010   1.751
 4334TIP3    H234638   4.805   1.026   1.785
 4335TIP3   OH234639   5.455   1.096   8.487
 4335TIP3    H134640   5.422   1.104   8.396
 4335TIP3    H234641   5.473   1.188   8.512
 4336TIP3   OH234642   4.402   0.526   1.577
 4336TIP3    H134643   4.430   0.462   1.507
 4336TIP3    H234644   4.374   0.604   1.523
 4337TIP3   OH234645   4.484   0.374   1.360
 4337TIP3    H134646   4.530   0.393   1.276
 4337TIP3    H234647   4.392   0.377   1.328
 4338TIP3   OH234648   4.557   0.911   1.375
 4338TIP3    H134649   4.648   0.921   1.344
 4338TIP3    H234650   4.510   0.983   1.325
 4339TIP3   OH234651   5.180   0.917   1.663
 4339TIP3    H134652   5.148   0.994   1.611
 4339TIP3    H234653   5.277   0.936   1.664
 4340TIP3   OH234654   4.183   0.616   1.740
 4340TIP3    H134655   4.145   0.535   1.779
 4340TIP3    H234656   4.266   0.583   1.701
 4341TIP3   OH234657   4.523   0.092   1.374
 4341TIP3    H134658   4.530   0.190   1.373
 4341TIP3    H234659   4.430   0.084   1.352
 4342TIP3   OH234660   4.626   0.542   1.718
 4342TIP3    H134661   4.586   0.492   1.790
 4342TIP3    H234662   4.549   0.546   1.656
 4343TIP3   OH234663   4.915   0.457   1.701
 4343TIP3    H134664   4.838   0.399   1.710
 4343TIP3    H234665   4.986   0.400   1.738
 4344TIP3   OH234666   5.085   0.258   1.854
 4344TIP3    H134667   5.072   0.176   1.805
 4344TIP3    H234668   5.074   0.226   1.947
 4345TIP3   OH234669   4.056   0.368   1.824
 4345TIP3    H134670   4.015   0.293   1.778
 4345TIP3    H234671   4.057   0.336   1.917
 4346TIP3   OH234672   4.531   7.374   1.680
 4346TIP3    H134673   4.608   7.341   1.727
 4346TIP3    H234674   4.549   7.346   1.589
 4347TIP3   OH234675   4.531   1.861   0.186
 4347TIP3    H134676   4.610   1.915   0.204
 4347TIP3    H234677   4.540   1.847   0.091
 4348TIP3   OH234678   3.882   1.300   0.141
 4348TIP3    H134679   3.978   1.313   0.141
 4348TIP3    H234680   3.867   1.285   0.046
 4349TIP3   OH234681   3.759   1.838   0.612
 4349TIP3    H134682   3.688   1.777   0.581
 4349TIP3    H234683   3.796   1.784   0.685
 4350TIP3   OH234684   3.853   1.680   0.813
 4350TIP3    H134685   3.790   1.617   0.851
 4350TIP3    H234686   3.913   1.699   0.890
 4351TIP3   OH234687   5.616   1.729   1.089
 4351TIP3    H134688   5.646   1.744   1.181
 4351TIP3    H234689   5.655   1.804   1.042
 4352TIP3   OH234690   5.573   1.661   1.384
 4352TIP3    H134691   5.520   1.600   1.328
 4352TIP3    H234692   5.584   1.606   1.462
 4353TIP3   OH234693   5.403   1.289   1.880
 4353TIP3    H134694   5.325   1.288   1.937
 4353TIP3    H234695   5.451   1.367   1.911
 4354TIP3   OH234696   5.522   1.121   0.398
 4354TIP3    H134697   5.602   1.177   0.410
 4354TIP3    H234698   5.529   1.063   0.477
 4355TIP3   OH234699   5.571   0.934   0.596
 4355TIP3    H134700   5.496   0.883   0.634
 4355TIP3    H234701   5.629   0.945   0.675
 4356TIP3   OH234702   5.532   1.209   1.087
 4356TIP3    H134703   5.592   1.134   1.067
 4356TIP3    H234704   5.584   1.283   1.050
 4357TIP3   OH234705   5.395   1.475   1.306
 4357TIP3    H134706   5.320   1.516   1.354
 4357TIP3    H234707   5.353   1.451   1.221
 4358TIP3   OH234708   5.558   0.894   0.247
 4358TIP3    H134709   5.500   0.905   0.170
 4358TIP3    H234710   5.521   0.961   0.310
 4359TIP3   OH234711   5.386   0.634   0.111
 4359TIP3    H134712   5.450   0.681   0.054
 4359TIP3    H234713   5.379   0.551   0.059
 4360TIP3   OH234714   5.375   0.769   0.675
 4360TIP3    H134715   5.353   0.677   0.652
 4360TIP3    H234716   5.343   0.777   0.767
 4361TIP3   OH234717   3.854   1.015   1.076
 4361TIP3    H134718   3.854   0.979   0.984
 4361TIP3    H234719   3.943   0.983   1.106
 4362TIP3   OH234720   5.442   0.970   1.636
 4362TIP3    H134721   5.505   0.899   1.661
 4362TIP3    H234722   5.496   1.049   1.656
 4363TIP3   OH234723   5.568   0.726   1.606
 4363TIP3    H134724   5.477   0.689   1.611
 4363TIP3    H234725   5.620   0.660   1.656
 4364TIP3   OH234726   5.362   0.394  -0.009
 4364TIP3    H134727   5.398   0.359   0.074
 4364TIP3    H234728   5.266   0.378   0.001
 4365TIP3   OH234729   5.305   0.541   0.495
 4365TIP3    H134730   5.331   0.452   0.528
 4365TIP3    H234731   5.332   0.526   0.404
 4366TIP3   OH234732   5.413   0.613   1.046
 4366TIP3    H134733   5.510   0.620   1.061
 4366TIP3    H234734   5.385   0.625   1.140
 4367TIP3   OH234735   5.386   0.669   1.309
 4367TIP3    H134736   5.294   0.692   1.332
 4367TIP3    H234737   5.431   0.757   1.308
 4368TIP3   OH234738   3.798   0.502   1.662
 4368TIP3    H134739   3.886   0.499   1.705
 4368TIP3    H234740   3.764   0.411   1.679
 4369TIP3   OH234741   5.639   0.018   1.843
 4369TIP3    H134742   5.631  -0.039   1.764
 4369TIP3    H234743   5.629   0.109   1.809
 4370TIP3   OH234744   5.358   0.280   0.518
 4370TIP3    H134745   5.410   0.246   0.594
 4370TIP3    H234746   5.321   0.198   0.480
 4371TIP3   OH234747   3.936   0.348   0.973
 4371TIP3    H134748   3.980   0.267   1.006
 4371TIP3    H234749   4.009   0.412   0.976
 4372TIP3   OH234750   3.794   0.632   1.106
 4372TIP3    H134751   3.845   0.622   1.024
 4372TIP3    H234752   3.822   0.720   1.134
 4373TIP3   OH234753   5.546   0.252   1.712
 4373TIP3    H134754   5.482   0.314   1.672
 4373TIP3    H234755   5.565   0.198   1.633
 4374TIP3   OH234756   5.547   0.302   0.165
 4374TIP3    H134757   5.602   0.220   0.161
 4374TIP3    H234758   5.563   0.339   0.076
 4375TIP3   OH234759   3.821   0.244   0.462
 4375TIP3    H134760   3.725   0.255   0.470
 4375TIP3    H234761   3.843   0.321   0.405
 4376TIP3   OH234762   5.294   1.792   0.696
 4376TIP3    H134763   5.373   1.776   0.640
 4376TIP3    H234764   5.332   1.845   0.769
 4377TIP3   OH234765   3.791   0.129   1.275
 4377TIP3    H134766   3.748   0.154   1.358
 4377TIP3    H234767   3.751   0.195   1.216
 4378TIP3   OH234768   4.020   1.449   1.725
 4378TIP3    H134769   3.944   1.484   1.675
 4378TIP3    H234770   3.975   1.425   1.808
 4379TIP3   OH234771   4.308   1.618   1.387
 4379TIP3    H134772   4.306   1.703   1.337
 4379TIP3    H234773   4.402   1.596   1.375
 4380TIP3   OH234774   4.715   1.741   1.609
 4380TIP3    H134775   4.727   1.706   1.700
 4380TIP3    H234776   4.807   1.768   1.587
 4381TIP3   OH234777   4.954   1.865   1.568
 4381TIP3    H134778   5.022   1.835   1.505
 4381TIP3    H234779   5.005   1.887   1.648
 4382TIP3   OH234780   5.511   0.086   1.471
 4382TIP3    H134781   5.419   0.115   1.465
 4382TIP3    H234782   5.505  -0.003   1.431
 4383TIP3   OH234783   4.037   1.904   1.339
 4383TIP3    H134784   3.961   1.961   1.315
 4383TIP3    H234785   4.029   1.906   1.436
 4384TIP3   OH234786   4.273   1.839   1.244
 4384TIP3    H134787   4.182   1.860   1.276
 4384TIP3    H234788   4.272   1.889   1.161
 4385TIP3   OH234789   4.755   1.808   1.169
 4385TIP3    H134790   4.688   1.845   1.110
 4385TIP3    H234791   4.771   1.885   1.228
 4386TIP3   OH234792   4.970   1.684   1.298
 4386TIP3    H134793   4.903   1.732   1.245
 4386TIP3    H234794   5.047   1.739   1.276
 4387TIP3   OH234795   5.249   1.827   1.278
 4387TIP3    H134796   5.271   1.911   1.233
 4387TIP3    H234797   5.269   1.764   1.205
 4388TIP3   OH234798   4.013   1.731   1.032
 4388TIP3    H134799   3.990   1.678   1.112
 4388TIP3    H234800   4.101   1.693   1.009
 4389TIP3   OH234801   4.224   1.622   0.911
 4389TIP3    H134802   4.216   1.528   0.938
 4389TIP3    H234803   4.306   1.646   0.959
 4390TIP3   OH234804   4.440   1.654   1.054
 4390TIP3    H134805   4.485   1.567   1.058
 4390TIP3    H234806   4.458   1.690   1.143
 4391TIP3   OH234807   4.814   0.319   0.916
 4391TIP3    H134808   4.760   0.244   0.949
 4391TIP3    H234809   4.875   0.270   0.858
 4392TIP3   OH234810   5.350   0.050   0.892
 4392TIP3    H134811   5.405   0.108   0.835
 4392TIP3    H234812   5.263   0.091   0.888
 4393TIP3   OH234813   5.506   0.195   0.729
 4393TIP3    H134814   5.571   0.133   0.770
 4393TIP3    H234815   5.551   0.281   0.742
 4394TIP3   OH234816   4.030   0.118   0.704
 4394TIP3    H134817   3.949   0.079   0.742
 4394TIP3    H234818   4.089   0.040   0.709
 4395TIP3   OH234819   3.883   0.115   0.202
 4395TIP3    H134820   3.935   0.190   0.166
 4395TIP3    H234821   3.858   0.147   0.290
 4396TIP3   OH234822   4.531   0.088   0.694
 4396TIP3    H134823   4.614   0.130   0.664
 4396TIP3    H234824   4.537   0.112   0.788
 4397TIP3   OH234825   4.994   0.125   0.798
 4397TIP3    H134826   4.958   0.122   0.708
 4397TIP3    H234827   5.019   0.033   0.815
 4398TIP3   OH234828   5.183   0.071   0.412
 4398TIP3    H134829   5.112   0.137   0.404
 4398TIP3    H234830   5.135  -0.012   0.405
 4399TIP3   OH234831   3.924   1.684   0.357
 4399TIP3    H134832   3.833   1.681   0.320
 4399TIP3    H234833   3.938   1.779   0.336
 4400TIP3   OH234834   4.073   0.275   0.104
 4400TIP3    H134835   4.124   0.200   0.070
 4400TIP3    H234836   4.131   0.308   0.174
 4401TIP3   OH234837   4.616   0.275   0.353
 4401TIP3    H134838   4.675   0.246   0.423
 4401TIP3    H234839   4.620   0.372   0.369
 4402TIP3   OH234840   4.812   1.878   0.190
 4402TIP3    H134841   4.889   1.903   0.135
 4402TIP3    H234842   4.822   1.780   0.182
 4403TIP3   OH234843   5.465   1.708   0.509
 4403TIP3    H134844   5.437   1.633   0.451
 4403TIP3    H234845   5.454   1.781   0.445
 4404TIP3   OH234846   3.977   0.172   1.616
 4404TIP3    H134847   3.918   0.096   1.619
 4404TIP3    H234848   4.060   0.133   1.650
 4405TIP3   OH234849   4.231   0.100   1.770
 4405TIP3    H134850   4.325   0.120   1.758
 4405TIP3    H234851   4.222   0.102   1.867
 4406TIP3   OH234852   4.135   1.785   0.067
 4406TIP3    H134853   4.068   1.800   0.136
 4406TIP3    H234854   4.162   1.694   0.086
 4407TIP3   OH234855   5.425   1.612   1.655
 4407TIP3    H134856   5.348   1.595   1.597
 4407TIP3    H234857   5.398   1.699   1.691
 4408TIP3   OH234858   6.851   1.005   0.673
 4408TIP3    H134859   6.819   1.097   0.662
 4408TIP3    H234860   6.778   0.955   0.633
 4409TIP3   OH234861   6.733   0.888   0.994
 4409TIP3    H134862   6.731   0.855   1.086
 4409TIP3    H234863   6.653   0.846   0.956
 4410TIP3   OH234864   5.939   0.897   1.178
 4410TIP3    H134865   5.928   0.815   1.231
 4410TIP3    H234866   6.031   0.922   1.198
 4411TIP3   OH234867   7.102   1.224   0.909
 4411TIP3    H134868   7.072   1.143   0.953
 4411TIP3    H234869   7.096   1.289   0.980
 4412TIP3   OH234870   6.062   1.360   0.925
 4412TIP3    H134871   6.024   1.270   0.928
 4412TIP3    H234872   6.156   1.339   0.942
 4413TIP3   OH234873   5.730   0.681   0.594
 4413TIP3    H134874   5.677   0.762   0.609
 4413TIP3    H234875   5.658   0.616   0.590
 4414TIP3   OH234876   5.756   0.928   0.813
 4414TIP3    H134877   5.802   0.848   0.846
 4414TIP3    H234878   5.828   0.994   0.817
 4415TIP3   OH234879   6.833   1.758   0.858
 4415TIP3    H134880   6.889   1.692   0.810
 4415TIP3    H234881   6.799   1.697   0.926
 4416TIP3   OH234882   6.538   1.144   1.114
 4416TIP3    H134883   6.575   1.143   1.025
 4416TIP3    H234884   6.616   1.177   1.164
 4417TIP3   OH234885   6.908   0.615   1.135
 4417TIP3    H134886   6.890   0.519   1.137
 4417TIP3    H234887   6.911   0.628   1.039
 4418TIP3   OH234888   6.160   0.441   0.807
 4418TIP3    H134889   6.218   0.496   0.751
 4418TIP3    H234890   6.135   0.372   0.741
 4419TIP3   OH234891   6.952   0.434   0.671
 4419TIP3    H134892   7.011   0.414   0.747
 4419TIP3    H234893   6.998   0.508   0.628
 4420TIP3   OH234894   5.842   0.674   0.913
 4420TIP3    H134895   5.909   0.634   0.971
 4420TIP3    H234896   5.858   0.626   0.831
 4421TIP3   OH234897   6.325   0.829   0.835
 4421TIP3    H134898   6.406   0.787   0.870
 4421TIP3    H234899   6.300   0.761   0.770
 4422TIP3   OH234900   6.101   0.324   1.249
 4422TIP3    H134901   6.043   0.355   1.177
 4422TIP3    H234902   6.040   0.336   1.325
 4423TIP3   OH234903   6.773   1.243   0.561
 4423TIP3    H134904   6.758   1.255   0.466
 4423TIP3    H234905   6.747   1.332   0.595
 4424TIP3   OH234906   6.296   1.085   1.233
 4424TIP3    H134907   6.251   1.162   1.270
 4424TIP3    H234908   6.377   1.122   1.192
 4425TIP3   OH234909   7.121   0.409   0.884
 4425TIP3    H134910   7.118   0.315   0.903
 4425TIP3    H234911   7.142   0.448   0.972
 4426TIP3   OH234912   6.041   0.498   1.034
 4426TIP3    H134913   6.119   0.544   1.075
 4426TIP3    H234914   6.083   0.467   0.950
 4427TIP3   OH234915   5.773   1.228   0.418
 4427TIP3    H134916   5.771   1.281   0.337
 4427TIP3    H234917   5.786   1.298   0.486
 4428TIP3   OH234918   7.119   1.414   1.121
 4428TIP3    H134919   7.022   1.420   1.121
 4428TIP3    H234920   7.142   1.501   1.084
 4429TIP3   OH234921   7.168   0.298   1.212
 4429TIP3    H134922   7.079   0.307   1.174
 4429TIP3    H234923   7.207   0.382   1.182
 4430TIP3   OH234924   6.488   0.124   0.968
 4430TIP3    H134925   6.481   0.039   1.014
 4430TIP3    H234926   6.405   0.167   1.002
 4431TIP3   OH234927   6.972   1.574   0.727
 4431TIP3    H134928   6.992   1.485   0.689
 4431TIP3    H234929   7.047   1.624   0.690
 4432TIP3   OH234930   7.070   1.360   0.591
 4432TIP3    H134931   7.052   1.294   0.522
 4432TIP3    H234932   7.097   1.305   0.667
 4433TIP3   OH234933   7.227   1.248   1.488
 4433TIP3    H134934   7.231   1.176   1.421
 4433TIP3    H234935   7.236   1.326   1.431
 4434TIP3   OH234936   6.691   0.937   0.397
 4434TIP3    H134937   6.649   1.026   0.389
 4434TIP3    H234938   6.778   0.952   0.358
 4435TIP3   OH234939   6.756   0.825   0.116
 4435TIP3    H134940   6.825   0.854   0.180
 4435TIP3    H234941   6.803   0.753   0.073
 4436TIP3   OH234942   7.082   0.996   0.529
 4436TIP3    H134943   6.999   1.016   0.579
 4436TIP3    H234944   7.115   0.921   0.582
 4437TIP3   OH234945   7.018   0.764   1.406
 4437TIP3    H134946   7.038   0.845   1.456
 4437TIP3    H234947   6.948   0.798   1.346
 4438TIP3   OH234948   6.189   1.033   0.711
 4438TIP3    H134949   6.169   0.989   0.626
 4438TIP3    H234950   6.241   0.963   0.756
 4439TIP3   OH234951   6.355   1.344   0.982
 4439TIP3    H134952   6.393   1.325   0.895
 4439TIP3    H234953   6.404   1.288   1.044
 4440TIP3   OH234954   6.228   0.867   1.085
 4440TIP3    H134955   6.265   0.872   0.994
 4440TIP3    H234956   6.267   0.946   1.131
 4441TIP3   OH234957   6.858   1.467   1.123
 4441TIP3    H134958   6.844   1.529   1.196
 4441TIP3    H234959   6.833   1.381   1.164
 4442TIP3   OH234960   6.950   0.902   0.298
 4442TIP3    H134961   6.999   0.940   0.375
 4442TIP3    H234962   6.990   0.954   0.225
 4443TIP3   OH234963   6.086   0.887   1.455
 4443TIP3    H134964   6.130   0.969   1.486
 4443TIP3    H234965   5.994   0.907   1.479
 4444TIP3   OH234966   6.703   1.487   0.649
 4444TIP3    H134967   6.741   1.551   0.710
 4444TIP3    H234968   6.649   1.542   0.590
 4445TIP3   OH234969   7.259   0.048   0.225
 4445TIP3    H134970   7.258  -0.015   0.300
 4445TIP3    H234971   7.354   0.064   0.215
 4446TIP3   OH234972   6.084   0.928   0.473
 4446TIP3    H134973   6.056   1.001   0.413
 4446TIP3    H234974   6.089   0.852   0.415
 4447TIP3   OH234975   5.693   1.154   1.371
 4447TIP3    H134976   5.680   1.146   1.276
 4447TIP3    H234977   5.712   1.062   1.399
 4448TIP3   OH234978   5.708   1.433   1.038
 4448TIP3    H134979   5.795   1.414   1.074
 4448TIP3    H234980   5.690   1.518   1.081
 4449TIP3   OH234981   6.633   1.420   1.507
 4449TIP3    H134982   6.654   1.496   1.564
 4449TIP3    H234983   6.557   1.452   1.455
 4450TIP3   OH234984   6.675   1.832   0.450
 4450TIP3    H134985   6.677   1.855   0.355
 4450TIP3    H234986   6.674   1.920   0.491
 4451TIP3   OH234987   6.035   1.697   0.670
 4451TIP3    H134988   6.059   1.664   0.760
 4451TIP3    H234989   5.947   1.656   0.655
 4452TIP3   OH234990   6.957   1.750   0.168
 4452TIP3    H134991   7.004   1.682   0.116
 4452TIP3    H234992   6.960   1.713   0.259
 4453TIP3   OH234993   6.913   1.710   0.437
 4453TIP3    H134994   6.819   1.738   0.447
 4453TIP3    H234995   6.928   1.661   0.519
 4454TIP3   OH234996   7.188   0.658   1.678
 4454TIP3    H134997   7.160   0.642   1.587
 4454TIP3    H234998   7.280   0.623   1.674
 4455TIP3   OH234999   5.932   1.278   1.406
 4455TIP3    H135000   5.942   1.298   1.500
 4455TIP3    H235001   5.847   1.228   1.402
 4456TIP3   OH235002   6.253   0.216   1.059
 4456TIP3    H135003   6.186   0.176   1.001
 4456TIP3    H235004   6.199   0.264   1.125
 4457TIP3   OH235005   6.695   0.113   1.454
 4457TIP3    H135006   6.730   0.031   1.489
 4457TIP3    H235007   6.608   0.085   1.419
 4458TIP3   OH235008   6.993   0.492   1.450
 4458TIP3    H135009   6.942   0.507   1.532
 4458TIP3    H235010   6.983   0.580   1.405
 4459TIP3   OH235011   7.081   1.023   0.100
 4459TIP3    H135012   7.112   1.040   0.010
 4459TIP3    H235013   7.129   1.092   0.150
 4460TIP3   OH235014   6.691   0.367   0.128
 4460TIP3    H135015   6.632   0.354   0.204
 4460TIP3    H235016   6.684   0.282   0.084
 4461TIP3   OH235017   6.230   0.623   1.186
 4461TIP3    H135018   6.169   0.644   1.259
 4461TIP3    H235019   6.242   0.714   1.150
 4462TIP3   OH235020   6.228   0.639   0.636
 4462TIP3    H135021   6.133   0.616   0.635
 4462TIP3    H235022   6.253   0.613   0.545
 4463TIP3   OH235023   6.792   0.757   0.560
 4463TIP3    H135024   6.746   0.816   0.496
 4463TIP3    H235025   6.841   0.698   0.499
 4464TIP3   OH235026   6.641   0.789   1.644
 4464TIP3    H135027   6.617   0.701   1.674
 4464TIP3    H235028   6.734   0.796   1.669
 4465TIP3   OH235029   6.875   0.671   0.837
 4465TIP3    H135030   6.849   0.756   0.797
 4465TIP3    H235031   6.858   0.611   0.762
 4466TIP3   OH235032   5.948   0.664   1.321
 4466TIP3    H135033   5.994   0.710   1.393
 4466TIP3    H235034   5.943   0.571   1.350
 4467TIP3   OH235035   6.335   0.394   0.072
 4467TIP3    H135036   6.283   0.373   0.153
 4467TIP3    H235037   6.328   0.489   0.060
 4468TIP3   OH235038   5.693   0.389   0.740
 4468TIP3    H135039   5.747   0.372   0.820
 4468TIP3    H235040   5.721   0.317   0.681
 4469TIP3   OH235041   5.804   0.465   0.304
 4469TIP3    H135042   5.826   0.441   0.212
 4469TIP3    H235043   5.715   0.506   0.293
 4470TIP3   OH235044   6.804   0.829   1.250
 4470TIP3    H135045   6.860   0.767   1.198
 4470TIP3    H235046   6.758   0.765   1.309
 4471TIP3   OH235047   6.496   0.423   0.773
 4471TIP3    H135048   6.413   0.384   0.804
 4471TIP3    H235049   6.561   0.375   0.829
 4472TIP3   OH235050   5.976   0.553   0.575
 4472TIP3    H135051   5.883   0.571   0.599
 4472TIP3    H235052   5.989   0.455   0.587
 4473TIP3   OH235053   6.307   0.585   0.385
 4473TIP3    H135054   6.401   0.601   0.401
 4473TIP3    H235055   6.286   0.645   0.311
 4474TIP3   OH235056   6.875   0.347   1.056
 4474TIP3    H135057   6.819   0.318   1.129
 4474TIP3    H235058   6.812   0.346   0.980
 4475TIP3   OH235059   6.181   0.709   0.167
 4475TIP3    H135060   6.125   0.685   0.090
 4475TIP3    H235061   6.268   0.729   0.126
 4476TIP3   OH235062   7.218   1.870   1.724
 4476TIP3    H135063   7.207   1.947   1.668
 4476TIP3    H235064   7.300   1.892   1.771
 4477TIP3   OH235065   6.557   0.708   0.914
 4477TIP3    H135066   6.635   0.662   0.877
 4477TIP3    H235067   6.528   0.645   0.984
 4478TIP3   OH235068   6.067   0.305   0.602
 4478TIP3    H135069   6.009   0.234   0.639
 4478TIP3    H235070   6.105   0.261   0.524
 4479TIP3   OH235071   6.500   0.525   1.156
 4479TIP3    H135072   6.418   0.574   1.172
 4479TIP3    H235073   6.556   0.555   1.229
 4480TIP3   OH235074   6.517   1.146   0.392
 4480TIP3    H135075   6.445   1.093   0.353
 4480TIP3    H235076   6.477   1.171   0.478
 4481TIP3   OH235077   7.225   1.094   1.267
 4481TIP3    H135078   7.284   1.073   1.191
 4481TIP3    H235079   7.140   1.076   1.225
 4482TIP3   OH235080   6.965   0.426   0.226
 4482TIP3    H135081   6.886   0.406   0.171
 4482TIP3    H235082   6.945   0.516   0.261
 4483TIP3   OH235083   6.673   1.159   1.491
 4483TIP3    H135084   6.660   1.117   1.577
 4483TIP3    H235085   6.646   1.253   1.506
 4484TIP3   OH235086   6.956   0.642   0.388
 4484TIP3    H135087   7.046   0.616   0.419
 4484TIP3    H235088   6.973   0.726   0.341
 4485TIP3   OH235089   6.033   1.072   0.935
 4485TIP3    H135090   6.073   1.068   0.844
 4485TIP3    H235091   6.076   0.999   0.983
 4486TIP3   OH235092   6.711   1.287   0.285
 4486TIP3    H135093   6.675   1.374   0.312
 4486TIP3    H235094   6.641   1.226   0.319
 4487TIP3   OH235095   5.747   0.889   1.464
 4487TIP3    H135096   5.722   0.859   1.554
 4487TIP3    H235097   5.681   0.841   1.412
 4488TIP3   OH235098   6.384   0.884   1.669
 4488TIP3    H135099   6.379   0.824   1.592
 4488TIP3    H235100   6.481   0.896   1.676
 4489TIP3   OH235101   6.916   1.409   1.484
 4489TIP3    H135102   6.824   1.421   1.453
 4489TIP3    H235103   6.910   1.453   1.572
 4490TIP3   OH235104   7.236   1.548   0.342
 4490TIP3    H135105   7.214   1.472   0.397
 4490TIP3    H235106   7.267   1.506   0.261
 4491TIP3   OH235107   7.011   1.000   1.056
 4491TIP3    H135108   6.925   0.985   1.011
 4491TIP3    H235109   7.064   0.927   1.017
 4492TIP3   OH235110   6.273   1.451   0.666
 4492TIP3    H135111   6.284   1.544   0.637
 4492TIP3    H235112   6.179   1.437   0.649
 4493TIP3   OH235113   5.814   0.945   0.160
 4493TIP3    H135114   5.854   1.026   0.196
 4493TIP3    H235115   5.719   0.958   0.178
 4494TIP3   OH235116   6.397   1.215   0.626
 4494TIP3    H135117   6.356   1.303   0.641
 4494TIP3    H235118   6.340   1.155   0.678
 4495TIP3   OH235119   6.457   1.650   1.266
 4495TIP3    H135120   6.531   1.706   1.239
 4495TIP3    H235121   6.473   1.637   1.360
 4496TIP3   OH235122   6.297   1.707   0.579
 4496TIP3    H135123   6.200   1.701   0.591
 4496TIP3    H235124   6.308   1.788   0.634
 4497TIP3   OH235125   6.788   1.214   1.219
 4497TIP3    H135126   6.784   1.195   1.315
 4497TIP3    H235127   6.836   1.136   1.186
 4498TIP3   OH235128   7.051   1.335   0.191
 4498TIP3    H135129   7.063   1.281   0.272
 4498TIP3    H235130   6.961   1.310   0.167
 4499TIP3   OH235131   7.145   1.623   1.473
 4499TIP3    H135132   7.065   1.568   1.468
 4499TIP3    H235133   7.123   1.699   1.415
 4500TIP3   OH235134   5.891   0.356   1.423
 4500TIP3    H135135   5.802   0.384   1.399
 4500TIP3    H235136   5.877   0.269   1.466
 4501TIP3   OH235137   7.173   1.192   0.378
 4501TIP3    H135138   7.166   1.113   0.437
 4501TIP3    H235139   7.265   1.221   0.400
 4502TIP3   OH235140   5.864   1.566   1.244
 4502TIP3    H135141   5.918   1.488   1.265
 4502TIP3    H235142   5.863   1.611   1.329
 4503TIP3   OH235143   6.326   1.390   0.249
 4503TIP3    H135144   6.387   1.352   0.314
 4503TIP3    H235145   6.334   1.486   0.269
 4504TIP3   OH235146   5.992   1.112   0.293
 4504TIP3    H135147   5.928   1.158   0.350
 4504TIP3    H235148   6.037   1.188   0.252
 4505TIP3   OH235149   6.783   0.338   1.328
 4505TIP3    H135150   6.876   0.349   1.355
 4505TIP3    H235151   6.754   0.264   1.386
 4506TIP3   OH235152   6.828   0.337   0.457
 4506TIP3    H135153   6.872   0.386   0.385
 4506TIP3    H235154   6.873   0.374   0.535
 4507TIP3   OH235155   6.613   1.531   0.348
 4507TIP3    H135156   6.545   1.599   0.359
 4507TIP3    H235157   6.664   1.566   0.272
 4508TIP3   OH235158   6.592   0.485   0.520
 4508TIP3    H135159   6.626   0.575   0.515
 4508TIP3    H235160   6.561   0.476   0.613
 4509TIP3   OH235161   6.699   0.617   1.400
 4509TIP3    H135162   6.733   0.637   1.489
 4509TIP3    H235163   6.741   0.531   1.380
 4510TIP3   OH235164   6.641   0.186   0.602
 4510TIP3    H135165   6.623   0.264   0.659
 4510TIP3    H235166   6.712   0.226   0.545
 4511TIP3   OH235167   6.338   1.645   0.322
 4511TIP3    H135168   6.380   1.725   0.283
 4511TIP3    H235169   6.325   1.677   0.414
 4512TIP3   OH235170   6.218   0.343   0.311
 4512TIP3    H135171   6.217   0.427   0.362
 4512TIP3    H235172   6.310   0.316   0.335
 4513TIP3   OH235173   7.240   0.360   1.521
 4513TIP3    H135174   7.171   0.428   1.529
 4513TIP3    H235175   7.222   0.329   1.431
 4514TIP3   OH235176   7.114   0.780   0.950
 4514TIP3    H135177   7.040   0.731   0.910
 4514TIP3    H235178   7.165   0.708   0.992
 4515TIP3   OH235179   6.048   1.360   0.157
 4515TIP3    H135180   6.122   1.403   0.202
 4515TIP3    H235181   6.097   1.316   0.086
 4516TIP3   OH235182   5.881   0.688   0.113
 4516TIP3    H135183   5.882   0.785   0.104
 4516TIP3    H235184   5.812   0.659   0.051
 4517TIP3   OH235185   7.257   1.680   1.073
 4517TIP3    H135186   7.227   1.762   1.028
 4517TIP3    H235187   7.342   1.671   1.030
 4518TIP3   OH235188   5.951   0.109   0.992
 4518TIP3    H135189   5.970   0.074   0.903
 4518TIP3    H235190   5.990   0.040   1.046
 4519TIP3   OH235191   5.814   1.496   0.572
 4519TIP3    H135192   5.733   1.538   0.605
 4519TIP3    H235193   5.831   1.552   0.493
 4520TIP3   OH235194   5.765   1.767   1.709
 4520TIP3    H135195   5.851   1.729   1.732
 4520TIP3    H235196   5.712   1.689   1.684
 4521TIP3   OH235197   6.691   1.635   0.105
 4521TIP3    H135198   6.640   1.574   0.047
 4521TIP3    H235199   6.757   1.665   0.040
 4522TIP3   OH235200   6.899   1.522   1.722
 4522TIP3    H135201   6.862   1.453   1.781
 4522TIP3    H235202   6.973   1.552   1.779
 4523TIP3   OH235203   7.139   1.598   0.040
 4523TIP3    H135204   7.117   1.527   0.104
 4523TIP3    H235205   7.228   1.625   0.066
 4524TIP3   OH235206   6.238   1.152   0.034
 4524TIP3    H135207   6.283   1.117   0.113
 4524TIP3    H235208   6.278   1.097  -0.036
 4525TIP3   OH235209   6.977   1.138   1.507
 4525TIP3    H135210   7.068   1.173   1.515
 4525TIP3    H235211   6.930   1.224   1.504
 4526TIP3   OH235212   6.349   0.962   0.250
 4526TIP3    H135213   6.303   0.897   0.304
 4526TIP3    H235214   6.396   0.906   0.186
 4527TIP3   OH235215   6.306   0.726   1.452
 4527TIP3    H135216   6.223   0.778   1.452
 4527TIP3    H235217   6.359   0.775   1.386
 4528TIP3   OH235218   6.472   0.786   0.056
 4528TIP3    H135219   6.486   0.783  -0.040
 4528TIP3    H235220   6.565   0.806   0.085
 4529TIP3   OH235221   6.756   1.058   1.804
 4529TIP3    H135222   6.811   1.029   1.729
 4529TIP3    H235223   6.809   1.029   1.879
 4530TIP3   OH235224   6.271   0.506   1.588
 4530TIP3    H135225   6.306   0.446   1.520
 4530TIP3    H235226   6.290   0.592   1.542
 4531TIP3   OH235227   6.357   0.357   1.358
 4531TIP3    H135228   6.407   0.393   1.282
 4531TIP3    H235229   6.263   0.367   1.326
 4532TIP3   OH235230   6.493   0.858   1.306
 4532TIP3    H135231   6.588   0.858   1.326
 4532TIP3    H235232   6.475   0.954   1.301
 4533TIP3   OH235233   6.983   0.928   1.667
 4533TIP3    H135234   6.982   1.004   1.606
 4533TIP3    H235235   7.080   0.913   1.676
 4534TIP3   OH235236   6.113   0.558   1.806
 4534TIP3    H135237   6.038   0.498   1.789
 4534TIP3    H235238   6.174   0.531   1.733
 4535TIP3   OH235239   6.414   0.092   1.362
 4535TIP3    H135240   6.416   0.190   1.376
 4535TIP3    H235241   6.320   0.085   1.340
 4536TIP3   OH235242   6.816   0.499   1.662
 4536TIP3    H135243   6.737   0.448   1.640
 4536TIP3    H235244   6.866   0.438   1.720
 4537TIP3   OH235245   6.925   0.314   1.865
 4537TIP3    H135246   6.892   0.223   1.874
 4537TIP3    H235247   7.005   0.299   1.918
 4538TIP3   OH235248   5.911   0.378   1.806
 4538TIP3    H135249   5.954   0.297   1.777
 4538TIP3    H235250   5.896   0.356   1.902
 4539TIP3   OH235251   6.410   7.400   1.650
 4539TIP3    H135252   6.376   7.320   1.696
 4539TIP3    H235253   6.423   7.371   1.559
 4540TIP3   OH235254   6.433   1.862   0.201
 4540TIP3    H135255   6.498   1.934   0.199
 4540TIP3    H235256   6.425   1.842   0.106
 4541TIP3   OH235257   5.764   1.307   0.136
 4541TIP3    H135258   5.859   1.332   0.135
 4541TIP3    H235259   5.746   1.296   0.041
 4542TIP3   OH235260   5.671   1.838   0.613
 4542TIP3    H135261   5.589   1.790   0.585
 4542TIP3    H235262   5.697   1.784   0.692
 4543TIP3   OH235263   5.752   1.678   0.815
 4543TIP3    H135264   5.704   1.602   0.854
 4543TIP3    H235265   5.806   1.709   0.891
 4544TIP3   OH235266   7.254   1.292   1.862
 4544TIP3    H135267   7.211   1.334   1.940
 4544TIP3    H235268   7.259   1.367   1.800
 4545TIP3   OH235269   7.303   1.456   1.313
 4545TIP3    H135270   7.245   1.518   1.360
 4545TIP3    H235271   7.249   1.438   1.232
 4546TIP3   OH235272   7.309   0.633   0.104
 4546TIP3    H135273   7.291   0.695   0.033
 4546TIP3    H235274   7.268   0.551   0.069
 4547TIP3   OH235275   7.216   0.796   0.675
 4547TIP3    H135276   7.184   0.720   0.724
 4547TIP3    H235277   7.249   0.849   0.751
 4548TIP3   OH235278   5.724   1.017   1.091
 4548TIP3    H135279   5.730   0.985   0.999
 4548TIP3    H235280   5.812   0.988   1.124
 4549TIP3   OH235281   7.256   0.967   1.663
 4549TIP3    H135282   7.333   0.910   1.683
 4549TIP3    H235283   7.291   1.027   1.596
 4550TIP3   OH235284   7.243   0.363   0.037
 4550TIP3    H135285   7.255   0.294   0.103
 4550TIP3    H235286   7.145   0.368   0.034
 4551TIP3   OH235287   7.196   0.531   0.488
 4551TIP3    H135288   7.217   0.454   0.545
 4551TIP3    H235289   7.246   0.508   0.407
 4552TIP3   OH235290   7.241   0.531   1.089
 4552TIP3    H135291   7.313   0.497   1.032
 4552TIP3    H235292   7.288   0.604   1.135
 4553TIP3   OH235293   7.288   0.660   1.379
 4553TIP3    H135294   7.199   0.689   1.349
 4553TIP3    H235295   7.346   0.680   1.303
 4554TIP3   OH235296   5.683   0.516   1.708
 4554TIP3    H135297   5.774   0.486   1.728
 4554TIP3    H235298   5.631   0.443   1.746
 4555TIP3   OH235299   7.177   0.241   0.547
 4555TIP3    H135300   7.178   0.234   0.644
 4555TIP3    H235301   7.128   0.161   0.519
 4556TIP3   OH235302   5.811   0.348   0.984
 4556TIP3    H135303   5.851   0.263   1.014
 4556TIP3    H235304   5.886   0.409   0.992
 4557TIP3   OH235305   5.670   0.627   1.109
 4557TIP3    H135306   5.724   0.610   1.029
 4557TIP3    H235307   5.713   0.707   1.142
 4558TIP3   OH235308   5.701   0.272   0.471
 4558TIP3    H135309   5.606   0.287   0.475
 4558TIP3    H235310   5.733   0.346   0.415
 4559TIP3   OH235311   7.140   1.764   0.659
 4559TIP3    H135312   7.219   1.708   0.654
 4559TIP3    H235313   7.149   1.806   0.746
 4560TIP3   OH235314   5.690   0.134   1.279
 4560TIP3    H135315   5.639   0.116   1.360
 4560TIP3    H235316   5.628   0.188   1.228
 4561TIP3   OH235317   5.903   1.428   1.677
 4561TIP3    H135318   5.809   1.439   1.652
 4561TIP3    H235319   5.894   1.419   1.772
 4562TIP3   OH235320   6.624   1.749   1.601
 4562TIP3    H135321   6.614   1.709   1.690
 4562TIP3    H235322   6.719   1.776   1.601
 4563TIP3   OH235323   6.865   1.860   1.577
 4563TIP3    H135324   6.947   1.854   1.527
 4563TIP3    H235325   6.895   1.882   1.668
 4564TIP3   OH235326   5.926   1.915   1.338
 4564TIP3    H135327   5.860   1.971   1.293
 4564TIP3    H235328   5.928   1.956   1.425
 4565TIP3   OH235329   6.187   1.850   1.248
 4565TIP3    H135330   6.099   1.848   1.290
 4565TIP3    H235331   6.166   1.878   1.158
 4566TIP3   OH235332   6.678   1.821   1.147
 4566TIP3    H135333   6.620   1.861   1.080
 4566TIP3    H235334   6.675   1.889   1.218
 4567TIP3   OH235335   6.853   1.680   1.304
 4567TIP3    H135336   6.794   1.731   1.243
 4567TIP3    H235337   6.931   1.738   1.298
 4568TIP3   OH235338   7.125   1.825   1.262
 4568TIP3    H135339   7.179   1.903   1.241
 4568TIP3    H235340   7.175   1.757   1.210
 4569TIP3   OH235341   5.906   1.744   1.033
 4569TIP3    H135342   5.875   1.685   1.104
 4569TIP3    H235343   5.991   1.700   1.008
 4570TIP3   OH235344   6.114   1.627   0.925
 4570TIP3    H135345   6.102   1.530   0.934
 4570TIP3    H235346   6.204   1.639   0.962
 4571TIP3   OH235347   6.355   1.644   1.026
 4571TIP3    H135348   6.384   1.551   1.030
 4571TIP3    H235349   6.364   1.668   1.121
 4572TIP3   OH235350   6.695   0.271   0.875
 4572TIP3    H135351   6.628   0.210   0.914
 4572TIP3    H235352   6.756   0.206   0.838
 4573TIP3   OH235353   7.186   0.051   0.986
 4573TIP3    H135354   7.233   0.069   0.903
 4573TIP3    H235355   7.094   0.059   0.960
 4574TIP3   OH235356   5.914   0.114   0.696
 4574TIP3    H135357   5.831   0.074   0.731
 4574TIP3    H235358   5.978   0.044   0.720
 4575TIP3   OH235359   5.749   0.119   0.184
 4575TIP3    H135360   5.828   0.175   0.171
 4575TIP3    H235361   5.747   0.107   0.281
 4576TIP3   OH235362   6.409   0.092   0.714
 4576TIP3    H135363   6.493   0.123   0.674
 4576TIP3    H235364   6.436   0.090   0.808
 4577TIP3   OH235365   6.959   0.098   0.795
 4577TIP3    H135366   6.936   0.122   0.704
 4577TIP3    H235367   6.915   0.012   0.805
 4578TIP3   OH235368   7.010   0.068   0.407
 4578TIP3    H135369   7.030   0.152   0.364
 4578TIP3    H235370   6.999   0.009   0.332
 4579TIP3   OH235371   5.806   1.677   0.364
 4579TIP3    H135372   5.713   1.675   0.334
 4579TIP3    H235373   5.823   1.771   0.346
 4580TIP3   OH235374   5.967   0.247   0.083
 4580TIP3    H135375   6.055   0.226   0.046
 4580TIP3    H235376   5.994   0.301   0.159
 4581TIP3   OH235377   6.484   0.272   0.372
 4581TIP3    H135378   6.519   0.203   0.431
 4581TIP3    H235379   6.536   0.349   0.402
 4582TIP3   OH235380   6.728   1.885   0.194
 4582TIP3    H135381   6.824   1.864   0.191
 4582TIP3    H235382   6.694   1.797   0.166
 4583TIP3   OH235383   5.895   0.077   1.552
 4583TIP3    H135384   5.827   0.049   1.615
 4583TIP3    H235385   5.969   0.093   1.614
 4584TIP3   OH235386   6.066   0.094   1.785
 4584TIP3    H135387   6.153   0.052   1.801
 4584TIP3    H235388   6.024   0.089   1.873
 4585TIP3   OH235389   5.981   1.800   0.082
 4585TIP3    H135390   5.908   1.820   0.141
 4585TIP3    H235391   6.010   1.712   0.111
 4586TIP3   OH235392   7.274   1.602   1.724
 4586TIP3    H135393   7.235   1.589   1.635
 4586TIP3    H235394   7.254   1.699   1.730
 4587TIP3   OH235395   1.206   2.905   0.670
 4587TIP3    H135396   1.187   3.000   0.655
 4587TIP3    H235397   1.123   2.866   0.636
 4588TIP3   OH235398   1.085   2.768   1.018
 4588TIP3    H135399   1.080   2.733   1.110
 4588TIP3    H235400   1.020   2.715   0.970
 4589TIP3   OH235401   0.325   2.807   1.219
 4589TIP3    H135402   0.336   2.712   1.215
 4589TIP3    H235403   0.411   2.839   1.184
 4590TIP3   OH235404   1.411   3.099   0.883
 4590TIP3    H135405   1.383   3.028   0.942
 4590TIP3    H235406   1.412   3.174   0.944
 4591TIP3   OH235407   0.384   3.230   1.000
 4591TIP3    H135408   0.361   3.140   0.971
 4591TIP3    H235409   0.480   3.220   0.999
 4592TIP3   OH235410   0.084   2.533   0.535
 4592TIP3    H135411   0.046   2.616   0.566
 4592TIP3    H235412   0.102   2.485   0.618
 4593TIP3   OH235413   0.110   2.764   0.776
 4593TIP3    H135414   0.142   2.673   0.800
 4593TIP3    H235415   0.169   2.793   0.706
 4594TIP3   OH235416   1.168   3.640   0.862
 4594TIP3    H135417   1.232   3.587   0.809
 4594TIP3    H235418   1.130   3.568   0.914
 4595TIP3   OH235419   0.899   3.024   1.109
 4595TIP3    H135420   0.945   3.012   1.024
 4595TIP3    H235421   0.976   3.044   1.168
 4596TIP3   OH235422   1.762   2.205   1.103
 4596TIP3    H135423   1.760   2.263   1.180
 4596TIP3    H235424   1.842   2.235   1.058
 4597TIP3   OH235425   1.253   2.510   1.120
 4597TIP3    H135426   1.276   2.420   1.146
 4597TIP3    H235427   1.221   2.495   1.029
 4598TIP3   OH235428   0.546   2.286   0.807
 4598TIP3    H135429   0.573   2.370   0.764
 4598TIP3    H235430   0.500   2.242   0.732
 4599TIP3   OH235431   1.303   2.312   0.657
 4599TIP3    H135432   1.359   2.280   0.732
 4599TIP3    H235433   1.361   2.379   0.619
 4600TIP3   OH235434   0.184   2.526   0.878
 4600TIP3    H135435   0.241   2.484   0.945
 4600TIP3    H235436   0.226   2.495   0.795
 4601TIP3   OH235437   0.655   2.714   0.837
 4601TIP3    H135438   0.735   2.672   0.873
 4601TIP3    H235439   0.634   2.645   0.769
 4602TIP3   OH235440   1.745   2.329   1.352
 4602TIP3    H135441   1.718   2.421   1.330
 4602TIP3    H235442   1.800   2.345   1.430
 4603TIP3   OH235443   0.421   2.213   1.236
 4603TIP3    H135444   0.379   2.255   1.159
 4603TIP3    H235445   0.350   2.224   1.305
 4604TIP3   OH235446   1.131   3.139   0.575
 4604TIP3    H135447   1.119   3.142   0.478
 4604TIP3    H235448   1.081   3.219   0.603
 4605TIP3   OH235449   0.661   2.972   1.221
 4605TIP3    H135450   0.621   3.051   1.263
 4605TIP3    H235451   0.740   3.013   1.177
 4606TIP3   OH235452   1.497   2.253   0.846
 4606TIP3    H135453   1.457   2.241   0.934
 4606TIP3    H235454   1.586   2.283   0.868
 4607TIP3   OH235455   0.371   2.383   1.020
 4607TIP3    H135456   0.439   2.439   1.066
 4607TIP3    H235457   0.425   2.348   0.946
 4608TIP3   OH235458   0.526   3.190   1.309
 4608TIP3    H135459   0.506   3.277   1.273
 4608TIP3    H235460   0.445   3.175   1.363
 4609TIP3   OH235461   0.078   3.148   0.418
 4609TIP3    H135462   0.094   3.182   0.326
 4609TIP3    H235463   0.137   3.201   0.475
 4610TIP3   OH235464   1.487   3.309   1.088
 4610TIP3    H135465   1.390   3.322   1.100
 4610TIP3    H235466   1.508   3.397   1.053
 4611TIP3   OH235467   1.491   2.107   1.188
 4611TIP3    H135468   1.432   2.129   1.113
 4611TIP3    H235469   1.572   2.152   1.160
 4612TIP3   OH235470   0.773   1.946   0.944
 4612TIP3    H135471   0.741   1.863   0.981
 4612TIP3    H235472   0.702   2.007   0.979
 4613TIP3   OH235473   1.326   3.486   0.723
 4613TIP3    H135474   1.357   3.403   0.682
 4613TIP3    H235475   1.402   3.547   0.705
 4614TIP3   OH235476   1.432   3.257   0.583
 4614TIP3    H135477   1.412   3.191   0.515
 4614TIP3    H235478   1.411   3.205   0.663
 4615TIP3   OH235479   1.579   3.122   1.453
 4615TIP3    H135480   1.594   3.051   1.387
 4615TIP3    H235481   1.595   3.201   1.399
 4616TIP3   OH235482   1.044   2.818   0.423
 4616TIP3    H135483   0.975   2.887   0.406
 4616TIP3    H235484   1.127   2.858   0.389
 4617TIP3   OH235485   1.046   2.732   0.145
 4617TIP3    H135486   1.095   2.754   0.227
 4617TIP3    H235487   1.092   2.653   0.117
 4618TIP3   OH235488   1.799   2.784   1.254
 4618TIP3    H135489   1.726   2.849   1.244
 4618TIP3    H235490   1.856   2.817   1.182
 4619TIP3   OH235491   1.439   2.845   0.543
 4619TIP3    H135492   1.362   2.867   0.601
 4619TIP3    H235493   1.493   2.791   0.606
 4620TIP3   OH235494   1.403   2.640   1.469
 4620TIP3    H135495   1.404   2.728   1.512
 4620TIP3    H235496   1.355   2.661   1.386
 4621TIP3   OH235497   0.530   2.901   0.698
 4621TIP3    H135498   0.522   2.847   0.616
 4621TIP3    H235499   0.574   2.838   0.758
 4622TIP3   OH235500   0.682   3.221   0.964
 4622TIP3    H135501   0.693   3.229   0.867
 4622TIP3    H235502   0.765   3.181   0.994
 4623TIP3   OH235503   0.559   2.777   1.087
 4623TIP3    H135504   0.591   2.771   0.994
 4623TIP3    H235505   0.623   2.840   1.128
 4624TIP3   OH235506   1.227   3.355   1.139
 4624TIP3    H135507   1.200   3.431   1.193
 4624TIP3    H235508   1.185   3.283   1.189
 4625TIP3   OH235509   0.667   3.201   1.535
 4625TIP3    H135510   0.606   3.267   1.574
 4625TIP3    H235511   0.626   3.190   1.446
 4626TIP3   OH235512   1.285   2.800   0.319
 4626TIP3    H135513   1.347   2.818   0.393
 4626TIP3    H235514   1.333   2.836   0.240
 4627TIP3   OH235515   0.415   2.821   1.507
 4627TIP3    H135516   0.407   2.894   1.570
 4627TIP3    H235517   0.320   2.798   1.500
 4628TIP3   OH235518   1.025   3.373   0.660
 4628TIP3    H135519   1.073   3.433   0.718
 4628TIP3    H235520   0.988   3.432   0.593
 4629TIP3   OH235521   0.522   3.403   1.632
 4629TIP3    H135522   0.514   3.466   1.558
 4629TIP3    H235523   0.432   3.402   1.670
 4630TIP3   OH235524   1.685   1.921   0.333
 4630TIP3    H135525   1.586   1.923   0.330
 4630TIP3    H235526   1.707   2.000   0.280
 4631TIP3   OH235527   0.439   2.774   0.470
 4631TIP3    H135528   0.406   2.857   0.430
 4631TIP3    H235529   0.374   2.710   0.440
 4632TIP3   OH235530   1.750   3.361   0.097
 4632TIP3    H135531   1.779   3.452   0.117
 4632TIP3    H235532   1.835   3.314   0.108
 4633TIP3   OH235533   0.108   3.124   1.329
 4633TIP3    H135534   0.065   3.195   1.277
 4633TIP3    H235535   0.042   3.120   1.400
 4634TIP3   OH235536   0.131   3.335   1.013
 4634TIP3    H135537   0.214   3.286   0.990
 4634TIP3    H235538   0.165   3.381   1.092
 4635TIP3   OH235539   1.854   3.377   1.596
 4635TIP3    H135540   1.839   3.283   1.574
 4635TIP3    H235541   1.772   3.395   1.645
 4636TIP3   OH235542   0.955   3.333   1.485
 4636TIP3    H135543   0.964   3.403   1.553
 4636TIP3    H235544   0.865   3.299   1.497
 4637TIP3   OH235545   1.001   3.712   0.447
 4637TIP3    H135546   0.997   3.726   0.350
 4637TIP3    H235547   1.003   3.804   0.481
 4638TIP3   OH235548   0.380   3.609   0.657
 4638TIP3    H135549   0.398   3.569   0.745
 4638TIP3    H235550   0.301   3.561   0.626
 4639TIP3   OH235551   1.310   3.661   0.172
 4639TIP3    H135552   1.365   3.586   0.144
 4639TIP3    H235553   1.319   3.655   0.269
 4640TIP3   OH235554   1.275   3.640   0.447
 4640TIP3    H135555   1.179   3.662   0.451
 4640TIP3    H235556   1.274   3.554   0.490
 4641TIP3   OH235557   1.592   2.515   1.614
 4641TIP3    H135558   1.506   2.549   1.583
 4641TIP3    H235559   1.567   2.428   1.650
 4642TIP3   OH235560   0.317   3.214   1.470
 4642TIP3    H135561   0.307   3.166   1.556
 4642TIP3    H235562   0.237   3.181   1.424
 4643TIP3   OH235563   0.563   2.069   1.048
 4643TIP3    H135564   0.481   2.074   0.996
 4643TIP3    H235565   0.549   2.141   1.111
 4644TIP3   OH235566   1.050   1.989   1.367
 4644TIP3    H135567   1.086   1.952   1.449
 4644TIP3    H235568   0.953   1.988   1.380
 4645TIP3   OH235569   1.317   2.382   1.456
 4645TIP3    H135570   1.259   2.360   1.533
 4645TIP3    H235571   1.349   2.472   1.480
 4646TIP3   OH235572   1.413   2.887   0.105
 4646TIP3    H135573   1.416   2.891   0.009
 4646TIP3    H235574   1.499   2.929   0.124
 4647TIP3   OH235575   1.002   2.287   0.142
 4647TIP3    H135576   0.941   2.292   0.218
 4647TIP3    H235577   0.974   2.202   0.104
 4648TIP3   OH235578   0.563   2.517   1.152
 4648TIP3    H135579   0.547   2.534   1.247
 4648TIP3    H235580   0.563   2.610   1.121
 4649TIP3   OH235581   0.587   2.513   0.666
 4649TIP3    H135582   0.490   2.515   0.650
 4649TIP3    H235583   0.618   2.477   0.580
 4650TIP3   OH235584   1.125   2.596   0.544
 4650TIP3    H135585   1.095   2.680   0.501
 4650TIP3    H235586   1.183   2.561   0.474
 4651TIP3   OH235587   1.024   2.612   1.690
 4651TIP3    H135588   0.976   2.538   1.732
 4651TIP3    H235589   1.105   2.615   1.743
 4652TIP3   OH235590   1.200   2.538   0.852
 4652TIP3    H135591   1.202   2.626   0.809
 4652TIP3    H235592   1.216   2.481   0.775
 4653TIP3   OH235593   0.266   2.526   1.297
 4653TIP3    H135594   0.300   2.560   1.381
 4653TIP3    H235595   0.275   2.430   1.311
 4654TIP3   OH235596   0.664   2.318   0.071
 4654TIP3    H135597   0.637   2.262   0.145
 4654TIP3    H235598   0.635   2.407   0.098
 4655TIP3   OH235599   0.057   2.306   0.736
 4655TIP3    H135600   0.091   2.277   0.823
 4655TIP3    H235601   0.058   2.225   0.684
 4656TIP3   OH235602   0.159   2.392   0.278
 4656TIP3    H135603   0.190   2.353   0.194
 4656TIP3    H235604   0.084   2.447   0.245
 4657TIP3   OH235605   1.115   2.677   1.289
 4657TIP3    H135606   1.174   2.617   1.239
 4657TIP3    H235607   1.056   2.616   1.337
 4658TIP3   OH235608   0.860   2.270   0.754
 4658TIP3    H135609   0.768   2.263   0.783
 4658TIP3    H235610   0.908   2.247   0.836
 4659TIP3   OH235611   0.322   2.459   0.640
 4659TIP3    H135612   0.275   2.473   0.555
 4659TIP3    H235613   0.347   2.364   0.634
 4660TIP3   OH235614   0.624   2.446   0.407
 4660TIP3    H135615   0.719   2.455   0.425
 4660TIP3    H235616   0.610   2.508   0.332
 4661TIP3   OH235617   1.294   2.212   1.036
 4661TIP3    H135618   1.231   2.215   1.110
 4661TIP3    H235619   1.261   2.137   0.983
 4662TIP3   OH235620   0.575   2.555   0.157
 4662TIP3    H135621   0.511   2.558   0.084
 4662TIP3    H235622   0.651   2.605   0.118
 4663TIP3   OH235623   1.554   3.759   1.745
 4663TIP3    H135624   1.578   3.823   1.676
 4663TIP3    H235625   1.618   3.780   1.814
 4664TIP3   OH235626   0.329   3.033   1.659
 4664TIP3    H135627   0.413   3.052   1.703
 4664TIP3    H235628   0.269   3.005   1.733
 4665TIP3   OH235629   0.913   2.529   0.921
 4665TIP3    H135630   1.006   2.519   0.895
 4665TIP3    H235631   0.897   2.453   0.978
 4666TIP3   OH235632   0.384   2.196   0.609
 4666TIP3    H135633   0.331   2.123   0.647
 4666TIP3    H235634   0.406   2.158   0.523
 4667TIP3   OH235635   0.780   2.377   1.217
 4667TIP3    H135636   0.712   2.443   1.193
 4667TIP3    H235637   0.854   2.431   1.249
 4668TIP3   OH235638   0.869   3.021   0.399
 4668TIP3    H135639   0.796   2.967   0.359
 4668TIP3    H235640   0.828   3.045   0.485
 4669TIP3   OH235641   1.608   2.975   1.228
 4669TIP3    H135642   1.655   3.040   1.170
 4669TIP3    H235643   1.528   2.960   1.176
 4670TIP3   OH235644   1.261   2.315   0.177
 4670TIP3    H135645   1.164   2.313   0.161
 4670TIP3    H235646   1.270   2.400   0.225
 4671TIP3   OH235647   0.968   3.054   1.484
 4671TIP3    H135648   0.925   3.011   1.559
 4671TIP3    H235649   0.973   3.147   1.514
 4672TIP3   OH235650   1.316   2.526   0.354
 4672TIP3    H135651   1.380   2.495   0.421
 4672TIP3    H235652   1.351   2.614   0.332
 4673TIP3   OH235653   0.367   2.974   0.916
 4673TIP3    H135654   0.402   2.974   0.825
 4673TIP3    H235655   0.414   2.899   0.954
 4674TIP3   OH235656   1.077   3.154   0.290
 4674TIP3    H135657   1.037   3.242   0.313
 4674TIP3    H235658   1.003   3.095   0.317
 4675TIP3   OH235659   0.148   2.746   1.523
 4675TIP3    H135660   0.156   2.748   1.623
 4675TIP3    H235661   0.111   2.656   1.511
 4676TIP3   OH235662   0.796   2.772   1.645
 4676TIP3    H135663   0.753   2.688   1.628
 4676TIP3    H235664   0.885   2.742   1.672
 4677TIP3   OH235665   1.259   3.289   1.511
 4677TIP3    H135666   1.175   3.315   1.471
 4677TIP3    H235667   1.245   3.328   1.599
 4678TIP3   OH235668   1.807   2.509   0.332
 4678TIP3    H135669   1.737   2.502   0.263
 4678TIP3    H235670   1.824   2.605   0.326
 4679TIP3   OH235671   1.823   3.097   1.570
 4679TIP3    H135672   1.731   3.100   1.534
 4679TIP3    H235673   1.876   3.098   1.486
 4680TIP3   OH235674   1.632   3.385   0.353
 4680TIP3    H135675   1.603   3.300   0.390
 4680TIP3    H235676   1.654   3.367   0.260
 4681TIP3   OH235677   1.364   2.884   1.066
 4681TIP3    H135678   1.273   2.858   1.042
 4681TIP3    H235679   1.413   2.810   1.025
 4682TIP3   OH235680   0.606   3.312   0.678
 4682TIP3    H135681   0.618   3.405   0.647
 4682TIP3    H235682   0.515   3.294   0.652
 4683TIP3   OH235683   0.149   2.778   0.168
 4683TIP3    H135684   0.221   2.843   0.174
 4683TIP3    H235685   0.101   2.796   0.249
 4684TIP3   OH235686   0.751   3.090   0.640
 4684TIP3    H135687   0.713   3.180   0.647
 4684TIP3    H235688   0.683   3.037   0.685
 4685TIP3   OH235689   0.817   3.502   1.316
 4685TIP3    H135690   0.878   3.569   1.281
 4685TIP3    H235691   0.874   3.456   1.381
 4686TIP3   OH235692   0.645   3.569   0.589
 4686TIP3    H135693   0.550   3.586   0.603
 4686TIP3    H235694   0.677   3.654   0.627
 4687TIP3   OH235695   1.124   3.086   1.236
 4687TIP3    H135696   1.086   3.055   1.322
 4687TIP3    H235697   1.202   3.029   1.224
 4688TIP3   OH235698   1.389   3.224   0.190
 4688TIP3    H135699   1.412   3.164   0.264
 4688TIP3    H235700   1.294   3.202   0.185
 4689TIP3   OH235701   1.457   3.528   1.468
 4689TIP3    H135702   1.368   3.491   1.454
 4689TIP3    H235703   1.464   3.596   1.397
 4690TIP3   OH235704   1.827   3.633   0.188
 4690TIP3    H135705   1.869   3.702   0.134
 4690TIP3    H235706   1.757   3.685   0.233
 4691TIP3   OH235707   0.237   2.252   1.434
 4691TIP3    H135708   0.196   2.304   1.504
 4691TIP3    H235709   0.215   2.160   1.460
 4692TIP3   OH235710   1.468   3.059   0.388
 4692TIP3    H135711   1.454   2.976   0.440
 4692TIP3    H235712   1.565   3.065   0.394
 4693TIP3   OH235713   0.223   3.460   1.238
 4693TIP3    H135714   0.285   3.395   1.276
 4693TIP3    H235715   0.157   3.472   1.308
 4694TIP3   OH235716   0.675   3.254   0.237
 4694TIP3    H135717   0.732   3.193   0.287
 4694TIP3    H235718   0.698   3.342   0.276
 4695TIP3   OH235719   0.300   2.976   0.294
 4695TIP3    H135720   0.225   3.029   0.326
 4695TIP3    H235721   0.353   3.043   0.247
 4696TIP3   OH235722   1.118   2.272   1.310
 4696TIP3    H135723   1.196   2.306   1.358
 4696TIP3    H235724   1.093   2.192   1.361
 4697TIP3   OH235725   1.178   2.212   0.426
 4697TIP3    H135726   1.230   2.244   0.350
 4697TIP3    H235727   1.238   2.228   0.501
 4698TIP3   OH235728   0.984   3.402   0.343
 4698TIP3    H135729   0.900   3.451   0.342
 4698TIP3    H235730   1.031   3.438   0.265
 4699TIP3   OH235731   0.909   2.412   0.527
 4699TIP3    H135732   0.978   2.479   0.548
 4699TIP3    H235733   0.886   2.372   0.614
 4700TIP3   OH235734   0.957   2.500   1.452
 4700TIP3    H135735   0.980   2.554   1.531
 4700TIP3    H235736   1.023   2.429   1.451
 4701TIP3   OH235737   0.983   2.074   0.567
 4701TIP3    H135738   0.945   2.137   0.631
 4701TIP3    H235739   1.055   2.129   0.528
 4702TIP3   OH235740   0.725   3.497   0.330
 4702TIP3    H135741   0.750   3.581   0.285
 4702TIP3    H235742   0.676   3.537   0.405
 4703TIP3   OH235743   0.537   2.187   0.292
 4703TIP3    H135744   0.532   2.275   0.332
 4703TIP3    H235745   0.625   2.161   0.324
 4704TIP3   OH235746   1.559   2.247   1.547
 4704TIP3    H135747   1.468   2.270   1.520
 4704TIP3    H235748   1.610   2.272   1.467
 4705TIP3   OH235749   1.459   2.640   0.930
 4705TIP3    H135750   1.386   2.588   0.966
 4705TIP3    H235751   1.535   2.596   0.973
 4706TIP3   OH235752   0.389   3.227   0.167
 4706TIP3    H135753   0.462   3.277   0.207
 4706TIP3    H235754   0.441   3.163   0.113
 4707TIP3   OH235755   0.246   2.512   0.045
 4707TIP3    H135756   0.253   2.592   0.098
 4707TIP3    H235757   0.156   2.484   0.068
 4708TIP3   OH235758   1.550   3.581   1.075
 4708TIP3    H135759   1.553   3.655   1.012
 4708TIP3    H235760   1.646   3.565   1.082
 4709TIP3   OH235761   0.315   1.996   0.965
 4709TIP3    H135762   0.294   1.967   0.873
 4709TIP3    H235763   0.312   1.911   1.014
 4710TIP3   OH235764   0.229   3.396   0.593
 4710TIP3    H135765   0.136   3.388   0.612
 4710TIP3    H235766   0.226   3.433   0.502
 4711TIP3   OH235767   0.126   3.676   1.765
 4711TIP3    H135768   0.173   3.652   1.847
 4711TIP3    H235769   0.133   3.590   1.719
 4712TIP3   OH235770   0.581   3.539   1.861
 4712TIP3    H135771   0.667   3.503   1.888
 4712TIP3    H235772   0.574   3.511   1.768
 4713TIP3   OH235773   1.074   3.504   0.105
 4713TIP3    H135774   1.012   3.467   0.039
 4713TIP3    H235775   1.149   3.527   0.048
 4714TIP3   OH235776   1.209   3.427   1.737
 4714TIP3    H135777   1.191   3.336   1.773
 4714TIP3    H235778   1.297   3.445   1.776
 4715TIP3   OH235779   1.485   3.465   0.023
 4715TIP3    H135780   1.463   3.387   0.078
 4715TIP3    H235781   1.581   3.458   0.019
 4716TIP3   OH235782   0.119   3.011   1.825
 4716TIP3    H135783   0.078   2.933   1.782
 4716TIP3    H235784   0.038   3.062   1.849
 4717TIP3   OH235785   0.548   3.030   0.062
 4717TIP3    H135786   0.620   3.027   0.129
 4717TIP3    H235787   0.600   3.018  -0.019
 4718TIP3   OH235788   0.781   3.040   1.707
 4718TIP3    H135789   0.741   3.091   1.633
 4718TIP3    H235790   0.751   2.948   1.692
 4719TIP3   OH235791   1.335   3.010   1.508
 4719TIP3    H135792   1.417   3.062   1.492
 4719TIP3    H235793   1.274   3.084   1.520
 4720TIP3   OH235794   0.217   2.711   1.776
 4720TIP3    H135795   0.300   2.659   1.764
 4720TIP3    H235796   0.176   2.648   1.840
 4721TIP3   OH235797   0.685   2.883   0.260
 4721TIP3    H135798   0.621   2.824   0.304
 4721TIP3    H235799   0.717   2.824   0.189
 4722TIP3   OH235800   0.557   2.627   1.394
 4722TIP3    H135801   0.499   2.703   1.421
 4722TIP3    H235802   0.641   2.677   1.386
 4723TIP3   OH235803   0.783   2.699   0.062
 4723TIP3    H135804   0.799   2.705  -0.034
 4723TIP3    H235805   0.875   2.704   0.100
 4724TIP3   OH235806   1.122   2.939   1.825
 4724TIP3    H135807   1.194   2.910   1.767
 4724TIP3    H235808   1.109   2.867   1.887
 4725TIP3   OH235809   1.686   2.957   8.500
 4725TIP3    H135810   1.652   2.965   8.409
 4725TIP3    H235811   1.713   3.048   8.519
 4726TIP3   OH235812   0.658   2.406   1.548
 4726TIP3    H135813   0.664   2.325   1.493
 4726TIP3    H235814   0.657   2.477   1.481
 4727TIP3   OH235815   0.665   2.191   1.359
 4727TIP3    H135816   0.708   2.251   1.293
 4727TIP3    H235817   0.572   2.195   1.331
 4728TIP3   OH235818   0.800   2.779   1.344
 4728TIP3    H135819   0.886   2.815   1.322
 4728TIP3    H235820   0.744   2.855   1.321
 4729TIP3   OH235821   1.300   2.506   1.832
 4729TIP3    H135822   1.297   2.460   1.919
 4729TIP3    H235823   1.373   2.569   1.845
 4730TIP3   OH235824   1.399   2.824   1.700
 4730TIP3    H135825   1.382   2.894   1.633
 4730TIP3    H235826   1.497   2.823   1.699
 4731TIP3   OH235827   0.437   2.532   1.738
 4731TIP3    H135828   0.383   2.451   1.734
 4731TIP3    H235829   0.500   2.517   1.665
 4732TIP3   OH235830   0.741   1.931   1.389
 4732TIP3    H135831   0.721   2.028   1.382
 4732TIP3    H235832   0.681   1.900   1.319
 4733TIP3   OH235833   0.897   2.342   1.750
 4733TIP3    H135834   0.855   2.342   1.837
 4733TIP3    H235835   0.823   2.357   1.689
 4734TIP3   OH235836   1.160   2.283   1.662
 4734TIP3    H135837   1.065   2.277   1.684
 4734TIP3    H235838   1.197   2.323   1.743
 4735TIP3   OH235839   0.282   2.280   1.810
 4735TIP3    H135840   0.282   2.192   1.769
 4735TIP3    H235841   0.272   2.254   1.903
 4736TIP3   OH235842   0.761   1.948   1.666
 4736TIP3    H135843   0.849   1.905   1.671
 4736TIP3    H235844   0.764   1.985   1.575
 4737TIP3   OH235845   0.753   2.055   1.908
 4737TIP3    H135846   0.749   2.012   1.820
 4737TIP3    H235847   0.723   2.145   1.885
 4738TIP3   OH235848   0.770   3.727   0.228
 4738TIP3    H135849   0.851   3.768   0.196
 4738TIP3    H235850   0.704   3.759   0.167
 4739TIP3   OH235851   0.097   3.229   0.143
 4739TIP3    H135852   0.194   3.237   0.130
 4739TIP3    H235853   0.072   3.196   0.055
 4740TIP3   OH235854   0.027   3.750   0.592
 4740TIP3    H135855  -0.069   3.761   0.604
 4740TIP3    H235856   0.052   3.701   0.672
 4741TIP3   OH235857   0.093   3.591   0.814
 4741TIP3    H135858   0.093   3.497   0.837
 4741TIP3    H235859   0.134   3.630   0.895
 4742TIP3   OH235860   1.821   3.627   1.070
 4742TIP3    H135861   1.852   3.640   1.161
 4742TIP3    H235862   1.898   3.655   1.017
 4743TIP3   OH235863   1.767   3.604   1.372
 4743TIP3    H135864   1.719   3.536   1.320
 4743TIP3    H235865   1.801   3.550   1.444
 4744TIP3   OH235866   1.643   3.172   1.873
 4744TIP3    H135867   1.555   3.196   1.907
 4744TIP3    H235868   1.679   3.258   1.853
 4745TIP3   OH235869   1.747   3.011   0.394
 4745TIP3    H135870   1.833   3.056   0.407
 4745TIP3    H235871   1.746   2.947   0.468
 4746TIP3   OH235872   1.793   2.806   0.587
 4746TIP3    H135873   1.716   2.771   0.637
 4746TIP3    H235874   1.856   2.822   0.661
 4747TIP3   OH235875   1.772   3.111   1.077
 4747TIP3    H135876   1.833   3.040   1.050
 4747TIP3    H235877   1.823   3.192   1.054
 4748TIP3   OH235878   1.640   3.359   1.308
 4748TIP3    H135879   1.565   3.396   1.359
 4748TIP3    H235880   1.596   3.328   1.225
 4749TIP3   OH235881   1.793   2.781   0.226
 4749TIP3    H135882   1.743   2.810   0.147
 4749TIP3    H235883   1.772   2.853   0.290
 4750TIP3   OH235884   1.600   2.502   0.124
 4750TIP3    H135885   1.650   2.553   0.059
 4750TIP3    H235886   1.603   2.413   0.082
 4751TIP3   OH235887   1.587   2.689   0.702
 4751TIP3    H135888   1.567   2.606   0.658
 4751TIP3    H235889   1.548   2.673   0.791
 4752TIP3   OH235890   0.102   2.896   1.010
 4752TIP3    H135891   0.108   2.858   0.920
 4752TIP3    H235892   0.182   2.952   1.013
 4753TIP3   OH235893   1.682   2.858   1.643
 4753TIP3    H135894   1.744   2.786   1.668
 4753TIP3    H235895   1.739   2.936   1.633
 4754TIP3   OH235896   1.834   2.625   1.659
 4754TIP3    H135897   1.740   2.605   1.639
 4754TIP3    H235898   1.866   2.533   1.674
 4755TIP3   OH235899   1.586   2.270  -0.011
 4755TIP3    H135900   1.638   2.210   0.047
 4755TIP3    H235901   1.494   2.256   0.016
 4756TIP3   OH235902   1.520   2.438   0.499
 4756TIP3    H135903   1.559   2.363   0.548
 4756TIP3    H235904   1.559   2.421   0.412
 4757TIP3   OH235905   1.640   2.488   1.069
 4757TIP3    H135906   1.736   2.499   1.082
 4757TIP3    H235907   1.611   2.498   1.162
 4758TIP3   OH235908   1.639   2.574   1.328
 4758TIP3    H135909   1.587   2.592   1.409
 4758TIP3    H235910   1.682   2.659   1.310
 4759TIP3   OH235911   0.073   2.418   1.679
 4759TIP3    H135912   0.149   2.374   1.722
 4759TIP3    H235913   0.000   2.358   1.708
 4760TIP3   OH235914   1.611   2.173   0.538
 4760TIP3    H135915   1.648   2.121   0.612
 4760TIP3    H235916   1.574   2.103   0.482
 4761TIP3   OH235917   0.154   2.212   0.975
 4761TIP3    H135918   0.210   2.131   0.980
 4761TIP3    H235919   0.217   2.281   1.001
 4762TIP3   OH235920   0.027   2.652   1.127
 4762TIP3    H135921   0.119   2.622   1.120
 4762TIP3    H235922   0.020   2.705   1.044
 4763TIP3   OH235923   1.739   2.121   1.697
 4763TIP3    H135924   1.665   2.164   1.647
 4763TIP3    H235925   1.786   2.081   1.623
 4764TIP3   OH235926   1.764   2.168   0.162
 4764TIP3    H135927   1.840   2.130   0.114
 4764TIP3    H235928   1.805   2.241   0.211
 4765TIP3   OH235929   0.078   2.219   0.466
 4765TIP3    H135930  -0.007   2.223   0.421
 4765TIP3    H235931   0.123   2.297   0.425
 4766TIP3   OH235932   1.520   3.675   0.703
 4766TIP3    H135933   1.589   3.652   0.638
 4766TIP3    H235934   1.570   3.723   0.771
 4767TIP3   OH235935   0.049   1.968   1.310
 4767TIP3    H135936   0.030   2.006   1.397
 4767TIP3    H235937   0.016   2.037   1.251
 4768TIP3   OH235938   0.269   3.356   1.770
 4768TIP3    H135939   0.210   3.341   1.694
 4768TIP3    H235940   0.214   3.326   1.845
 4769TIP3   OH235941   0.556   3.519   1.384
 4769TIP3    H135942   0.542   3.594   1.322
 4769TIP3    H235943   0.652   3.502   1.370
 4770TIP3   OH235944   0.943   3.609   1.604
 4770TIP3    H135945   0.950   3.604   1.701
 4770TIP3    H235946   1.034   3.638   1.581
 4771TIP3   OH235947   1.178   3.733   1.547
 4771TIP3    H135948   1.259   3.708   1.501
 4771TIP3    H235949   1.213   3.755   1.637
 4772TIP3   OH235950   1.702   1.943   1.475
 4772TIP3    H135951   1.639   1.982   1.414
 4772TIP3    H235952   1.730   1.861   1.426
 4773TIP3   OH235953   0.297   3.795   1.360
 4773TIP3    H135954   0.212   3.828   1.323
 4773TIP3    H235955   0.278   3.792   1.455
 4774TIP3   OH235956   0.514   3.732   1.228
 4774TIP3    H135957   0.428   3.750   1.274
 4774TIP3    H235958   0.525   3.809   1.169
 4775TIP3   OH235959   0.988   3.691   1.174
 4775TIP3    H135960   0.947   3.742   1.103
 4775TIP3    H235961   1.008   3.763   1.238
 4776TIP3   OH235962   1.197   3.563   1.305
 4776TIP3    H135963   1.127   3.609   1.256
 4776TIP3    H235964   1.272   3.619   1.281
 4777TIP3   OH235965   1.464   3.728   1.291
 4777TIP3    H135966   1.469   3.822   1.270
 4777TIP3    H235967   1.496   3.691   1.206
 4778TIP3   OH235968   0.243   3.624   1.031
 4778TIP3    H135969   0.233   3.569   1.112
 4778TIP3    H235970   0.332   3.595   0.999
 4779TIP3   OH235971   0.463   3.526   0.907
 4779TIP3    H135972   0.445   3.433   0.928
 4779TIP3    H235973   0.543   3.539   0.963
 4780TIP3   OH235974   0.683   3.515   1.058
 4780TIP3    H135975   0.708   3.422   1.045
 4780TIP3    H235976   0.723   3.535   1.144
 4781TIP3   OH235977   0.988   2.092   0.930
 4781TIP3    H135978   0.903   2.045   0.950
 4781TIP3    H235979   1.026   2.040   0.858
 4782TIP3   OH235980   1.569   1.919   0.899
 4782TIP3    H135981   1.637   1.973   0.853
 4782TIP3    H235982   1.487   1.958   0.863
 4783TIP3   OH235983   1.748   2.009   0.716
 4783TIP3    H135984   1.816   1.961   0.663
 4783TIP3    H235985   1.799   2.086   0.749
 4784TIP3   OH235986   0.273   1.962   0.679
 4784TIP3    H135987   0.203   1.949   0.612
 4784TIP3    H235988   0.327   1.881   0.663
 4785TIP3   OH235989   0.235   1.969   0.302
 4785TIP3    H135990   0.235   2.066   0.291
 4785TIP3    H235991   0.138   1.951   0.303
 4786TIP3   OH235992   0.714   1.927   0.675
 4786TIP3    H135993   0.795   1.960   0.633
 4786TIP3    H235994   0.736   1.934   0.769
 4787TIP3   OH235995   1.305   1.978   0.819
 4787TIP3    H135996   1.275   1.994   0.729
 4787TIP3    H235997   1.259   1.894   0.839
 4788TIP3   OH235998   1.433   1.946   0.383
 4788TIP3    H135999   1.355   2.001   0.374
 4788TIP3    H236000   1.398   1.873   0.439
 4789TIP3   OH236001   0.173   3.558   0.370
 4789TIP3    H136002   0.078   3.554   0.346
 4789TIP3    H236003   0.194   3.648   0.338
 4790TIP3   OH236004   0.267   2.170   0.115
 4790TIP3    H136005   0.303   2.085   0.088
 4790TIP3    H236006   0.346   2.208   0.154
 4791TIP3   OH236007   0.819   2.207   0.366
 4791TIP3    H136008   0.871   2.143   0.418
 4791TIP3    H236009   0.851   2.289   0.410
 4792TIP3   OH236010   1.047   3.760   0.184
 4792TIP3    H136011   1.142   3.775   0.164
 4792TIP3    H236012   1.045   3.664   0.165
 4793TIP3   OH236013   1.678   3.591   0.511
 4793TIP3    H136014   1.663   3.513   0.451
 4793TIP3    H236015   1.677   3.663   0.443
 4794TIP3   OH236016   0.208   2.031   1.631
 4794TIP3    H136017   0.183   1.940   1.652
 4794TIP3    H236018   0.286   2.037   1.690
 4795TIP3   OH236019   0.410   1.968   1.790
 4795TIP3    H136020   0.495   1.938   1.758
 4795TIP3    H236021   0.386   1.905   1.860
 4796TIP3   OH236022   0.355   3.726   0.088
 4796TIP3    H136023   0.340   3.749   0.182
 4796TIP3    H236024   0.358   3.629   0.089
 4797TIP3   OH236025   1.628   3.502   1.664
 4797TIP3    H136026   1.562   3.491   1.590
 4797TIP3    H236027   1.608   3.595   1.686
 4798TIP3   OH236028   3.080   2.902   0.672
 4798TIP3    H136029   3.065   3.000   0.666
 4798TIP3    H236030   2.996   2.868   0.637
 4799TIP3   OH236031   2.954   2.757   1.002
 4799TIP3    H136032   2.954   2.723   1.094
 4799TIP3    H236033   2.865   2.737   0.968
 4800TIP3   OH236034   2.178   2.795   1.188
 4800TIP3    H136035   2.174   2.716   1.244
 4800TIP3    H236036   2.260   2.837   1.219
 4801TIP3   OH236037   3.277   3.098   0.825
 4801TIP3    H136038   3.250   3.021   0.877
 4801TIP3    H236039   3.301   3.157   0.899
 4802TIP3   OH236040   2.280   3.233   1.019
 4802TIP3    H136041   2.251   3.144   0.988
 4802TIP3    H236042   2.375   3.226   0.999
 4803TIP3   OH236043   1.943   2.552   0.579
 4803TIP3    H136044   1.921   2.646   0.587
 4803TIP3    H236045   1.882   2.526   0.508
 4804TIP3   OH236046   2.004   2.814   0.808
 4804TIP3    H136047   2.046   2.727   0.828
 4804TIP3    H236048   2.077   2.877   0.820
 4805TIP3   OH236049   3.052   3.648   0.877
 4805TIP3    H136050   3.126   3.593   0.842
 4805TIP3    H236051   2.997   3.576   0.910
 4806TIP3   OH236052   2.771   3.050   1.124
 4806TIP3    H136053   2.805   3.035   1.036
 4806TIP3    H236054   2.853   3.075   1.172
 4807TIP3   OH236055   3.628   2.226   1.100
 4807TIP3    H136056   3.630   2.274   1.185
 4807TIP3    H236057   3.718   2.243   1.068
 4808TIP3   OH236058   3.152   2.523   1.131
 4808TIP3    H136059   3.155   2.429   1.157
 4808TIP3    H236060   3.150   2.512   1.034
 4809TIP3   OH236061   2.435   2.286   0.797
 4809TIP3    H136062   2.452   2.366   0.742
 4809TIP3    H236063   2.390   2.230   0.732
 4810TIP3   OH236064   3.190   2.305   0.654
 4810TIP3    H136065   3.245   2.280   0.732
 4810TIP3    H236066   3.236   2.384   0.623
 4811TIP3   OH236067   2.067   2.554   0.890
 4811TIP3    H136068   2.136   2.518   0.949
 4811TIP3    H236069   2.094   2.512   0.806
 4812TIP3   OH236070   2.563   2.704   0.837
 4812TIP3    H136071   2.647   2.660   0.861
 4812TIP3    H236072   2.529   2.637   0.773
 4813TIP3   OH236073   3.652   2.329   1.353
 4813TIP3    H136074   3.612   2.418   1.336
 4813TIP3    H236075   3.704   2.347   1.433
 4814TIP3   OH236076   2.315   2.208   1.209
 4814TIP3    H136077   2.283   2.260   1.133
 4814TIP3    H236078   2.248   2.230   1.275
 4815TIP3   OH236079   3.003   3.141   0.574
 4815TIP3    H136080   2.987   3.152   0.479
 4815TIP3    H236081   2.987   3.232   0.608
 4816TIP3   OH236082   2.532   2.962   1.207
 4816TIP3    H136083   2.485   3.039   1.245
 4816TIP3    H236084   2.613   3.006   1.172
 4817TIP3   OH236085   3.369   2.257   0.861
 4817TIP3    H136086   3.376   2.174   0.909
 4817TIP3    H236087   3.442   2.307   0.901
 4818TIP3   OH236088   2.278   2.399   1.016
 4818TIP3    H136089   2.339   2.460   1.063
 4818TIP3    H236090   2.332   2.372   0.938
 4819TIP3   OH236091   2.424   3.192   1.305
 4819TIP3    H136092   2.403   3.267   1.247
 4819TIP3    H236093   2.339   3.188   1.357
 4820TIP3   OH236094   2.003   3.125   0.402
 4820TIP3    H136095   2.006   3.176   0.318
 4820TIP3    H236096   2.007   3.198   0.468
 4821TIP3   OH236097   3.363   3.240   1.048
 4821TIP3    H136098   3.298   3.303   1.085
 4821TIP3    H236099   3.443   3.296   1.035
 4822TIP3   OH236100   3.377   2.112   1.188
 4822TIP3    H136101   3.296   2.123   1.134
 4822TIP3    H236102   3.439   2.172   1.143
 4823TIP3   OH236103   2.664   1.943   0.958
 4823TIP3    H136104   2.634   1.852   0.949
 4823TIP3    H236105   2.580   1.987   0.987
 4824TIP3   OH236106   3.204   3.487   0.721
 4824TIP3    H136107   3.244   3.404   0.689
 4824TIP3    H236108   3.277   3.551   0.705
 4825TIP3   OH236109   3.307   3.273   0.592
 4825TIP3    H136110   3.298   3.203   0.525
 4825TIP3    H236111   3.306   3.219   0.673
 4826TIP3   OH236112   3.432   3.085   1.405
 4826TIP3    H136113   3.519   3.073   1.365
 4826TIP3    H236114   3.442   3.172   1.448
 4827TIP3   OH236115   2.924   2.819   0.412
 4827TIP3    H136116   2.865   2.898   0.405
 4827TIP3    H236117   3.012   2.856   0.389
 4828TIP3   OH236118   2.933   2.734   0.137
 4828TIP3    H136119   2.985   2.753   0.218
 4828TIP3    H236120   2.975   2.654   0.103
 4829TIP3   OH236121   3.696   2.761   1.233
 4829TIP3    H136122   3.606   2.788   1.205
 4829TIP3    H236123   3.747   2.810   1.165
 4830TIP3   OH236124   3.312   2.857   0.538
 4830TIP3    H136125   3.232   2.868   0.594
 4830TIP3    H236126   3.365   2.795   0.593
 4831TIP3   OH236127   3.281   2.633   1.465
 4831TIP3    H136128   3.261   2.699   1.536
 4831TIP3    H236129   3.231   2.671   1.390
 4832TIP3   OH236130   2.428   2.886   0.700
 4832TIP3    H136131   2.408   2.841   0.614
 4832TIP3    H236132   2.491   2.823   0.741
 4833TIP3   OH236133   2.570   3.220   0.980
 4833TIP3    H136134   2.594   3.215   0.887
 4833TIP3    H236135   2.641   3.173   1.028
 4834TIP3   OH236136   2.458   2.743   1.084
 4834TIP3    H136137   2.487   2.749   0.991
 4834TIP3    H236138   2.500   2.822   1.127
 4835TIP3   OH236139   3.133   3.346   1.154
 4835TIP3    H136140   3.111   3.418   1.216
 4835TIP3    H236141   3.108   3.266   1.203
 4836TIP3   OH236142   2.573   3.201   1.541
 4836TIP3    H136143   2.513   3.258   1.594
 4836TIP3    H236144   2.527   3.200   1.454
 4837TIP3   OH236145   3.170   2.797   0.311
 4837TIP3    H136146   3.232   2.824   0.383
 4837TIP3    H236147   3.214   2.834   0.231
 4838TIP3   OH236148   2.251   2.826   1.492
 4838TIP3    H136149   2.254   2.897   1.561
 4838TIP3    H236150   2.168   2.784   1.520
 4839TIP3   OH236151   2.940   3.403   0.668
 4839TIP3    H136152   3.014   3.463   0.685
 4839TIP3    H236153   2.880   3.456   0.615
 4840TIP3   OH236154   2.402   3.391   1.624
 4840TIP3    H136155   2.381   3.427   1.535
 4840TIP3    H236156   2.315   3.357   1.655
 4841TIP3   OH236157   3.570   1.918   0.336
 4841TIP3    H136158   3.476   1.934   0.359
 4841TIP3    H236159   3.586   1.994   0.278
 4842TIP3   OH236160   2.316   2.782   0.468
 4842TIP3    H136161   2.271   2.861   0.434
 4842TIP3    H236162   2.255   2.712   0.444
 4843TIP3   OH236163   3.637   3.321   0.102
 4843TIP3    H136164   3.665   3.414   0.095
 4843TIP3    H236165   3.721   3.281   0.131
 4844TIP3   OH236166   1.975   3.070   1.349
 4844TIP3    H136167   1.926   3.051   1.268
 4844TIP3    H236168   2.015   2.982   1.364
 4845TIP3   OH236169   1.951   3.323   1.027
 4845TIP3    H136170   2.044   3.301   1.011
 4845TIP3    H236171   1.959   3.389   1.098
 4846TIP3   OH236172   3.822   3.355   1.660
 4846TIP3    H136173   3.836   3.264   1.627
 4846TIP3    H236174   3.724   3.351   1.673
 4847TIP3   OH236175   2.808   3.337   1.518
 4847TIP3    H136176   2.827   3.412   1.578
 4847TIP3    H236177   2.715   3.312   1.542
 4848TIP3   OH236178   2.888   3.716   0.448
 4848TIP3    H136179   2.896   3.742   0.353
 4848TIP3    H236180   2.886   3.805   0.491
 4849TIP3   OH236181   2.258   3.586   0.662
 4849TIP3    H136182   2.281   3.551   0.751
 4849TIP3    H236183   2.171   3.546   0.644
 4850TIP3   OH236184   3.188   3.659   0.170
 4850TIP3    H136185   3.234   3.577   0.141
 4850TIP3    H236186   3.188   3.646   0.267
 4851TIP3   OH236187   3.155   3.636   0.436
 4851TIP3    H136188   3.060   3.656   0.454
 4851TIP3    H236189   3.170   3.559   0.494
 4852TIP3   OH236190   3.436   2.492   1.648
 4852TIP3    H136191   3.399   2.545   1.574
 4852TIP3    H236192   3.428   2.401   1.613
 4853TIP3   OH236193   2.197   3.194   1.449
 4853TIP3    H136194   2.207   3.149   1.536
 4853TIP3    H236195   2.110   3.158   1.420
 4854TIP3   OH236196   2.438   2.039   1.044
 4854TIP3    H136197   2.347   2.030   1.010
 4854TIP3    H236198   2.421   2.093   1.124
 4855TIP3   OH236199   2.928   1.996   1.364
 4855TIP3    H136200   2.971   1.949   1.439
 4855TIP3    H236201   2.833   1.994   1.387
 4856TIP3   OH236202   3.197   2.372   1.489
 4856TIP3    H136203   3.139   2.335   1.561
 4856TIP3    H236204   3.209   2.466   1.512
 4857TIP3   OH236205   3.299   2.892   0.100
 4857TIP3    H136206   3.289   2.931   0.012
 4857TIP3    H236207   3.394   2.905   0.111
 4858TIP3   OH236208   2.888   2.302   0.123
 4858TIP3    H136209   2.831   2.292   0.201
 4858TIP3    H236210   2.863   2.225   0.069
 4859TIP3   OH236211   2.457   2.508   1.191
 4859TIP3    H136212   2.376   2.525   1.243
 4859TIP3    H236213   2.467   2.597   1.150
 4860TIP3   OH236214   2.449   2.511   0.654
 4860TIP3    H136215   2.352   2.506   0.646
 4860TIP3    H236216   2.477   2.487   0.563
 4861TIP3   OH236217   3.010   2.607   0.550
 4861TIP3    H136218   2.975   2.679   0.493
 4861TIP3    H236219   3.074   2.566   0.488
 4862TIP3   OH236220   3.119   2.552   0.843
 4862TIP3    H136221   3.100   2.636   0.797
 4862TIP3    H236222   3.088   2.488   0.777
 4863TIP3   OH236223   2.203   2.529   1.296
 4863TIP3    H136224   2.232   2.552   1.386
 4863TIP3    H236225   2.171   2.438   1.304
 4864TIP3   OH236226   2.531   2.309   0.077
 4864TIP3    H136227   2.500   2.249   0.148
 4864TIP3    H236228   2.512   2.397   0.116
 4865TIP3   OH236229   1.889   2.241   0.763
 4865TIP3    H136230   1.949   2.256   0.838
 4865TIP3    H236231   1.938   2.280   0.689
 4866TIP3   OH236232   1.989   2.318   0.265
 4866TIP3    H136233   2.058   2.348   0.203
 4866TIP3    H236234   1.939   2.401   0.274
 4867TIP3   OH236235   2.991   2.690   1.286
 4867TIP3    H136236   3.057   2.630   1.248
 4867TIP3    H236237   2.938   2.628   1.341
 4868TIP3   OH236238   2.744   2.265   0.771
 4868TIP3    H136239   2.651   2.271   0.801
 4868TIP3    H236240   2.790   2.229   0.849
 4869TIP3   OH236241   2.175   2.427   0.668
 4869TIP3    H136242   2.102   2.461   0.610
 4869TIP3    H236243   2.205   2.345   0.624
 4870TIP3   OH236244   2.506   2.448   0.399
 4870TIP3    H136245   2.599   2.460   0.426
 4870TIP3    H236246   2.497   2.504   0.319
 4871TIP3   OH236247   3.149   2.192   1.074
 4871TIP3    H136248   3.066   2.196   1.125
 4871TIP3    H236249   3.126   2.146   0.992
 4872TIP3   OH236250   2.450   2.558   0.154
 4872TIP3    H136251   2.388   2.550   0.078
 4872TIP3    H236252   2.524   2.606   0.112
 4873TIP3   OH236253   3.433   3.821   1.704
 4873TIP3    H136254   3.474   3.829   1.616
 4873TIP3    H236255   3.513   3.802   1.757
 4874TIP3   OH236256   2.215   3.038   1.670
 4874TIP3    H136257   2.285   3.034   1.741
 4874TIP3    H236258   2.135   3.016   1.722
 4875TIP3   OH236259   2.790   2.560   0.907
 4875TIP3    H136260   2.887   2.549   0.899
 4875TIP3    H236261   2.769   2.506   0.984
 4876TIP3   OH236262   2.281   2.177   0.603
 4876TIP3    H136263   2.236   2.106   0.655
 4876TIP3    H236264   2.307   2.129   0.523
 4877TIP3   OH236265   2.690   2.373   1.172
 4877TIP3    H136266   2.610   2.428   1.179
 4877TIP3    H236267   2.755   2.423   1.223
 4878TIP3   OH236268   2.753   3.018   0.392
 4878TIP3    H136269   2.681   2.967   0.349
 4878TIP3    H236270   2.709   3.047   0.476
 4879TIP3   OH236271   3.468   2.882   1.191
 4879TIP3    H136272   3.516   2.966   1.175
 4879TIP3    H236273   3.377   2.907   1.166
 4880TIP3   OH236274   3.148   2.314   0.178
 4880TIP3    H136275   3.067   2.324   0.125
 4880TIP3    H236276   3.153   2.401   0.223
 4881TIP3   OH236277   2.871   3.078   1.480
 4881TIP3    H136278   2.834   3.062   1.568
 4881TIP3    H236279   2.858   3.176   1.475
 4882TIP3   OH236280   3.206   2.526   0.363
 4882TIP3    H136281   3.277   2.503   0.426
 4882TIP3    H236282   3.235   2.611   0.326
 4883TIP3   OH236283   2.263   2.970   0.910
 4883TIP3    H136284   2.322   2.959   0.832
 4883TIP3    H236285   2.299   2.905   0.972
 4884TIP3   OH236286   2.953   3.159   0.287
 4884TIP3    H136287   2.912   3.246   0.308
 4884TIP3    H236288   2.883   3.098   0.321
 4885TIP3   OH236289   1.981   2.788   1.469
 4885TIP3    H136290   1.948   2.739   1.548
 4885TIP3    H236291   1.924   2.756   1.397
 4886TIP3   OH236292   2.680   2.766   1.641
 4886TIP3    H136293   2.602   2.714   1.616
 4886TIP3    H236294   2.748   2.701   1.656
 4887TIP3   OH236295   3.167   3.283   1.511
 4887TIP3    H136296   3.100   3.326   1.456
 4887TIP3    H236297   3.144   3.323   1.598
 4888TIP3   OH236298   3.694   2.506   0.333
 4888TIP3    H136299   3.624   2.497   0.265
 4888TIP3    H236300   3.710   2.602   0.325
 4889TIP3   OH236301   3.718   3.068   1.616
 4889TIP3    H136302   3.642   3.129   1.621
 4889TIP3    H236303   3.746   3.069   1.522
 4890TIP3   OH236304   3.498   3.401   0.355
 4890TIP3    H136305   3.494   3.316   0.399
 4890TIP3    H236306   3.529   3.382   0.266
 4891TIP3   OH236307   3.237   2.885   1.046
 4891TIP3    H136308   3.146   2.852   1.036
 4891TIP3    H236309   3.288   2.807   1.016
 4892TIP3   OH236310   2.485   3.321   0.700
 4892TIP3    H136311   2.512   3.413   0.677
 4892TIP3    H236312   2.403   3.314   0.649
 4893TIP3   OH236313   2.099   2.794   0.143
 4893TIP3    H136314   2.150   2.856   0.199
 4893TIP3    H236315   2.009   2.802   0.176
 4894TIP3   OH236316   2.628   3.093   0.630
 4894TIP3    H136317   2.577   3.175   0.648
 4894TIP3    H236318   2.591   3.031   0.695
 4895TIP3   OH236319   2.701   3.517   1.338
 4895TIP3    H136320   2.769   3.572   1.294
 4895TIP3    H236321   2.754   3.469   1.405
 4896TIP3   OH236322   2.528   3.573   0.592
 4896TIP3    H136323   2.432   3.587   0.605
 4896TIP3    H236324   2.562   3.656   0.634
 4897TIP3   OH236325   3.012   3.101   1.234
 4897TIP3    H136326   2.979   3.069   1.322
 4897TIP3    H236327   3.083   3.038   1.212
 4898TIP3   OH236328   3.277   3.224   0.186
 4898TIP3    H136329   3.302   3.171   0.264
 4898TIP3    H236330   3.184   3.196   0.177
 4899TIP3   OH236331   3.289   3.583   1.503
 4899TIP3    H136332   3.249   3.493   1.505
 4899TIP3    H236333   3.350   3.574   1.427
 4900TIP3   OH236334   3.715   3.634   0.187
 4900TIP3    H136335   3.767   3.705   0.146
 4900TIP3    H236336   3.648   3.689   0.235
 4901TIP3   OH236337   2.146   2.273   1.426
 4901TIP3    H136338   2.098   2.326   1.492
 4901TIP3    H236339   2.129   2.183   1.459
 4902TIP3   OH236340   3.354   3.073   0.395
 4902TIP3    H136341   3.328   2.994   0.448
 4902TIP3    H236342   3.451   3.068   0.404
 4903TIP3   OH236343   2.110   3.453   1.251
 4903TIP3    H136344   2.164   3.373   1.263
 4903TIP3    H236345   2.107   3.486   1.342
 4904TIP3   OH236346   2.556   3.263   0.253
 4904TIP3    H136347   2.618   3.226   0.317
 4904TIP3    H236348   2.572   3.360   0.266
 4905TIP3   OH236349   2.219   2.990   0.289
 4905TIP3    H136350   2.151   3.032   0.347
 4905TIP3    H236351   2.268   3.068   0.255
 4906TIP3   OH236352   2.994   2.259   1.334
 4906TIP3    H136353   3.067   2.283   1.393
 4906TIP3    H236354   2.975   2.166   1.360
 4907TIP3   OH236355   3.060   2.220   0.429
 4907TIP3    H136356   3.108   2.244   0.348
 4907TIP3    H236357   3.125   2.244   0.498
 4908TIP3   OH236358   2.861   3.406   0.350
 4908TIP3    H136359   2.791   3.474   0.352
 4908TIP3    H236360   2.921   3.441   0.280
 4909TIP3   OH236361   2.768   2.416   0.537
 4909TIP3    H136362   2.851   2.469   0.542
 4909TIP3    H236363   2.763   2.372   0.624
 4910TIP3   OH236364   2.869   2.508   1.461
 4910TIP3    H136365   2.841   2.509   1.554
 4910TIP3    H236366   2.906   2.418   1.456
 4911TIP3   OH236367   2.872   2.076   0.568
 4911TIP3    H136368   2.837   2.139   0.634
 4911TIP3    H236369   2.949   2.128   0.535
 4912TIP3   OH236370   2.581   3.519   0.319
 4912TIP3    H136371   2.608   3.605   0.280
 4912TIP3    H236372   2.549   3.550   0.406
 4913TIP3   OH236373   2.436   2.198   0.305
 4913TIP3    H136374   2.437   2.288   0.346
 4913TIP3    H236375   2.520   2.162   0.338
 4914TIP3   OH236376   3.444   2.248   1.525
 4914TIP3    H136377   3.351   2.267   1.498
 4914TIP3    H236378   3.491   2.257   1.439
 4915TIP3   OH236379   3.353   2.652   0.928
 4915TIP3    H136380   3.272   2.599   0.923
 4915TIP3    H236381   3.415   2.595   0.978
 4916TIP3   OH236382   2.286   3.246   0.163
 4916TIP3    H136383   2.368   3.273   0.208
 4916TIP3    H236384   2.323   3.194   0.090
 4917TIP3   OH236385   2.107   2.529   0.080
 4917TIP3    H136386   2.123   2.622   0.104
 4917TIP3    H236387   2.027   2.533   0.027
 4918TIP3   OH236388   3.396   3.628   1.078
 4918TIP3    H136389   3.433   3.702   1.026
 4918TIP3    H236390   3.463   3.560   1.052
 4919TIP3   OH236391   2.177   1.983   0.976
 4919TIP3    H136392   2.178   1.968   0.879
 4919TIP3    H236393   2.159   1.891   1.006
 4920TIP3   OH236394   2.051   3.392   0.568
 4920TIP3    H136395   1.967   3.428   0.599
 4920TIP3    H236396   2.062   3.443   0.484
 4921TIP3   OH236397   2.001   3.664   1.703
 4921TIP3    H136398   2.090   3.627   1.714
 4921TIP3    H236399   1.946   3.584   1.701
 4922TIP3   OH236400   2.446   3.552   1.867
 4922TIP3    H136401   2.517   3.503   1.911
 4922TIP3    H236402   2.438   3.503   1.783
 4923TIP3   OH236403   2.960   3.508   0.114
 4923TIP3    H136404   2.901   3.450   0.060
 4923TIP3    H236405   3.030   3.527   0.049
 4924TIP3   OH236406   3.120   3.378   1.756
 4924TIP3    H136407   3.069   3.304   1.797
 4924TIP3    H236408   3.207   3.362   1.793
 4925TIP3   OH236409   3.364   3.464   0.027
 4925TIP3    H136410   3.345   3.382   0.078
 4925TIP3    H236411   3.461   3.464   0.028
 4926TIP3   OH236412   1.972   3.004   1.781
 4926TIP3    H136413   1.919   2.924   1.793
 4926TIP3    H236414   1.928   3.048   1.706
 4927TIP3   OH236415   2.466   3.051   0.027
 4927TIP3    H136416   2.529   3.045   0.100
 4927TIP3    H236417   2.502   2.982  -0.033
 4928TIP3   OH236418   2.676   3.027   1.716
 4928TIP3    H136419   2.651   3.087   1.641
 4928TIP3    H236420   2.671   2.938   1.675
 4929TIP3   OH236421   3.202   3.013   1.525
 4929TIP3    H136422   3.287   3.043   1.485
 4929TIP3    H236423   3.156   3.099   1.527
 4930TIP3   OH236424   2.105   2.740   1.784
 4930TIP3    H136425   2.105   2.663   1.844
 4930TIP3    H236426   2.090   2.812   1.848
 4931TIP3   OH236427   2.559   2.881   0.259
 4931TIP3    H136428   2.485   2.833   0.300
 4931TIP3    H236429   2.597   2.814   0.199
 4932TIP3   OH236430   2.439   2.642   1.448
 4932TIP3    H136431   2.375   2.712   1.476
 4932TIP3    H236432   2.512   2.695   1.410
 4933TIP3   OH236433   2.675   2.685   0.046
 4933TIP3    H136434   2.717   2.684  -0.043
 4933TIP3    H236435   2.756   2.695   0.102
 4934TIP3   OH236436   3.562   2.968   8.497
 4934TIP3    H136437   3.514   2.994   8.416
 4934TIP3    H236438   3.593   3.052   8.533
 4935TIP3   OH236439   2.540   2.411   1.556
 4935TIP3    H136440   2.535   2.335   1.493
 4935TIP3    H236441   2.527   2.488   1.496
 4936TIP3   OH236442   2.559   2.209   1.340
 4936TIP3    H136443   2.618   2.255   1.276
 4936TIP3    H236444   2.472   2.224   1.295
 4937TIP3   OH236445   2.671   2.798   1.361
 4937TIP3    H136446   2.759   2.838   1.356
 4937TIP3    H236447   2.615   2.868   1.321
 4938TIP3   OH236448   3.180   2.507   1.847
 4938TIP3    H136449   3.201   2.414   1.830
 4938TIP3    H236450   3.264   2.552   1.827
 4939TIP3   OH236451   3.271   2.804   1.662
 4939TIP3    H136452   3.234   2.887   1.621
 4939TIP3    H236453   3.368   2.822   1.653
 4940TIP3   OH236454   2.400   2.502   1.810
 4940TIP3    H136455   2.304   2.486   1.816
 4940TIP3    H236456   2.428   2.461   1.726
 4941TIP3   OH236457   2.653   1.961   1.340
 4941TIP3    H136458   2.620   2.053   1.350
 4941TIP3    H236459   2.570   1.913   1.329
 4942TIP3   OH236460   2.758   2.358   1.731
 4942TIP3    H136461   2.704   2.339   1.812
 4942TIP3    H236462   2.686   2.362   1.665
 4943TIP3   OH236463   3.027   2.280   1.663
 4943TIP3    H136464   2.942   2.307   1.704
 4943TIP3    H236465   3.066   2.222   1.732
 4944TIP3   OH236466   3.189   2.170   1.840
 4944TIP3    H136467   3.177   2.072   1.845
 4944TIP3    H236468   3.185   2.194   1.935
 4945TIP3   OH236469   2.164   2.300   1.780
 4945TIP3    H136470   2.224   2.234   1.742
 4945TIP3    H236471   2.170   2.278   1.877
 4946TIP3   OH236472   2.670   1.960   1.623
 4946TIP3    H136473   2.733   1.885   1.633
 4946TIP3    H236474   2.650   1.952   1.528
 4947TIP3   OH236475   2.619   1.998   1.904
 4947TIP3    H136476   2.629   1.983   1.808
 4947TIP3    H236477   2.611   2.095   1.907
 4948TIP3   OH236478   2.633   3.757   0.206
 4948TIP3    H136479   2.716   3.807   0.216
 4948TIP3    H236480   2.630   3.749   0.109
 4949TIP3   OH236481   1.991   3.214   0.138
 4949TIP3    H136482   2.089   3.218   0.144
 4949TIP3    H236483   1.981   3.178   0.049
 4950TIP3   OH236484   1.894   3.709   0.616
 4950TIP3    H136485   1.809   3.665   0.593
 4950TIP3    H236486   1.921   3.658   0.695
 4951TIP3   OH236487   1.972   3.552   0.821
 4951TIP3    H136488   1.920   3.481   0.862
 4951TIP3    H236489   2.035   3.576   0.893
 4952TIP3   OH236490   3.719   3.718   1.103
 4952TIP3    H136491   3.720   3.632   1.149
 4952TIP3    H236492   3.809   3.753   1.113
 4953TIP3   OH236493   3.654   3.612   1.386
 4953TIP3    H136494   3.597   3.562   1.322
 4953TIP3    H236495   3.673   3.539   1.447
 4954TIP3   OH236496   3.479   3.097   1.849
 4954TIP3    H136497   3.459   3.119   1.942
 4954TIP3    H236498   3.573   3.114   1.842
 4955TIP3   OH236499   3.637   3.007   0.394
 4955TIP3    H136500   3.722   3.057   0.404
 4955TIP3    H236501   3.643   2.950   0.474
 4956TIP3   OH236502   3.675   2.832   0.634
 4956TIP3    H136503   3.591   2.794   0.668
 4956TIP3    H236504   3.732   2.830   0.713
 4957TIP3   OH236505   3.665   3.084   1.150
 4957TIP3    H136506   3.713   3.034   1.081
 4957TIP3    H236507   3.678   3.176   1.122
 4958TIP3   OH236508   3.491   3.409   1.291
 4958TIP3    H136509   3.495   3.374   1.383
 4958TIP3    H236510   3.438   3.344   1.244
 4959TIP3   OH236511   3.684   2.783   0.238
 4959TIP3    H136512   3.614   2.787   0.171
 4959TIP3    H236513   3.662   2.859   0.296
 4960TIP3   OH236514   3.488   2.505   0.127
 4960TIP3    H136515   3.556   2.544   0.070
 4960TIP3    H236516   3.492   2.411   0.095
 4961TIP3   OH236517   3.456   2.694   0.690
 4961TIP3    H136518   3.443   2.604   0.658
 4961TIP3    H236519   3.431   2.682   0.785
 4962TIP3   OH236520   1.955   2.899   1.070
 4962TIP3    H136521   1.956   2.860   0.979
 4962TIP3    H236522   2.044   2.872   1.104
 4963TIP3   OH236523   3.542   2.825   1.672
 4963TIP3    H136524   3.605   2.779   1.729
 4963TIP3    H236525   3.584   2.913   1.668
 4964TIP3   OH236526   3.704   2.592   1.660
 4964TIP3    H136527   3.607   2.599   1.659
 4964TIP3    H236528   3.719   2.496   1.664
 4965TIP3   OH236529   3.476   2.276   0.000
 4965TIP3    H136530   3.521   2.201   0.042
 4965TIP3    H236531   3.381   2.252   0.003
 4966TIP3   OH236532   3.410   2.446   0.525
 4966TIP3    H136533   3.440   2.358   0.557
 4966TIP3    H236534   3.453   2.445   0.438
 4967TIP3   OH236535   3.512   2.492   1.067
 4967TIP3    H136536   3.611   2.501   1.061
 4967TIP3    H236537   3.501   2.499   1.164
 4968TIP3   OH236538   3.504   2.549   1.333
 4968TIP3    H136539   3.416   2.567   1.374
 4968TIP3    H236540   3.539   2.640   1.323
 4969TIP3   OH236541   1.925   2.357   1.676
 4969TIP3    H136542   2.022   2.350   1.694
 4969TIP3    H236543   1.892   2.300   1.748
 4970TIP3   OH236544   3.776   1.994   1.849
 4970TIP3    H136545   3.806   1.919   1.794
 4970TIP3    H236546   3.729   2.051   1.784
 4971TIP3   OH236547   3.472   2.175   0.553
 4971TIP3    H136548   3.520   2.128   0.625
 4971TIP3    H236549   3.443   2.105   0.492
 4972TIP3   OH236550   2.054   2.231   1.015
 4972TIP3    H136551   2.094   2.141   1.010
 4972TIP3    H236552   2.132   2.289   1.016
 4973TIP3   OH236553   1.903   2.529   1.101
 4973TIP3    H136554   1.950   2.493   1.025
 4973TIP3    H236555   1.943   2.617   1.104
 4974TIP3   OH236556   3.608   2.134   1.692
 4974TIP3    H136557   3.530   2.178   1.652
 4974TIP3    H236558   3.636   2.084   1.612
 4975TIP3   OH236559   3.685   2.165   0.161
 4975TIP3    H136560   3.725   2.103   0.098
 4975TIP3    H236561   3.763   2.222   0.181
 4976TIP3   OH236562   1.909   2.134   0.454
 4976TIP3    H136563   1.824   2.164   0.488
 4976TIP3    H236564   1.922   2.193   0.377
 4977TIP3   OH236565   3.379   3.672   0.683
 4977TIP3    H136566   3.460   3.629   0.647
 4977TIP3    H236567   3.409   3.708   0.769
 4978TIP3   OH236568   1.922   2.017   1.309
 4978TIP3    H136569   1.856   1.985   1.373
 4978TIP3    H236570   1.876   2.091   1.266
 4979TIP3   OH236571   2.160   3.331   1.733
 4979TIP3    H136572   2.074   3.353   1.696
 4979TIP3    H236573   2.142   3.254   1.789
 4980TIP3   OH236574   2.433   3.482   1.367
 4980TIP3    H136575   2.429   3.576   1.341
 4980TIP3    H236576   2.529   3.468   1.362
 4981TIP3   OH236577   2.852   3.570   1.637
 4981TIP3    H136578   2.871   3.549   1.732
 4981TIP3    H236579   2.931   3.625   1.615
 4982TIP3   OH236580   3.061   3.712   1.581
 4982TIP3    H136581   3.140   3.686   1.529
 4982TIP3    H236582   3.092   3.782   1.640
 4983TIP3   OH236583   3.579   1.943   1.484
 4983TIP3    H136584   3.495   1.967   1.443
 4983TIP3    H236585   3.589   1.850   1.454
 4984TIP3   OH236586   2.167   3.786   1.358
 4984TIP3    H136587   2.086   3.819   1.314
 4984TIP3    H236588   2.155   3.815   1.449
 4985TIP3   OH236589   2.415   3.728   1.258
 4985TIP3    H136590   2.324   3.744   1.291
 4985TIP3    H236591   2.418   3.788   1.181
 4986TIP3   OH236592   2.859   3.682   1.189
 4986TIP3    H136593   2.839   3.730   1.109
 4986TIP3    H236594   2.881   3.754   1.252
 4987TIP3   OH236595   3.070   3.563   1.301
 4987TIP3    H136596   3.003   3.604   1.243
 4987TIP3    H236597   3.142   3.629   1.296
 4988TIP3   OH236598   3.279   3.790   1.259
 4988TIP3    H136599   3.304   3.875   1.217
 4988TIP3    H236600   3.315   3.727   1.191
 4989TIP3   OH236601   2.125   3.619   1.034
 4989TIP3    H136602   2.107   3.564   1.114
 4989TIP3    H236603   2.217   3.590   1.014
 4990TIP3   OH236604   2.347   3.521   0.911
 4990TIP3    H136605   2.337   3.427   0.933
 4990TIP3    H236606   2.435   3.536   0.954
 4991TIP3   OH236607   2.571   3.522   1.046
 4991TIP3    H136608   2.611   3.434   1.034
 4991TIP3    H236609   2.594   3.541   1.138
 4992TIP3   OH236610   2.876   2.083   0.937
 4992TIP3    H136611   2.790   2.039   0.960
 4992TIP3    H236612   2.916   2.017   0.879
 4993TIP3   OH236613   3.462   1.922   0.920
 4993TIP3    H136614   3.522   1.979   0.865
 4993TIP3    H236615   3.373   1.949   0.888
 4994TIP3   OH236616   3.615   2.033   0.734
 4994TIP3    H136617   3.666   1.967   0.681
 4994TIP3    H236618   3.681   2.106   0.748
 4995TIP3   OH236619   2.167   1.946   0.701
 4995TIP3    H136620   2.081   1.930   0.656
 4995TIP3    H236621   2.211   1.859   0.687
 4996TIP3   OH236622   2.021   1.953   0.262
 4996TIP3    H136623   2.078   2.012   0.208
 4996TIP3    H236624   1.987   2.012   0.333
 4997TIP3   OH236625   2.601   1.931   0.683
 4997TIP3    H136626   2.679   1.943   0.627
 4997TIP3    H236627   2.627   1.973   0.767
 4998TIP3   OH236628   3.199   1.976   0.831
 4998TIP3    H136629   3.180   1.991   0.739
 4998TIP3    H236630   3.141   1.898   0.851
 4999TIP3   OH236631   3.325   1.965   0.384
 4999TIP3    H136632   3.262   1.972   0.310
 4999TIP3    H236633   3.283   1.892   0.437
 5000TIP3   OH236634   2.029   3.561   0.353
 5000TIP3    H136635   1.940   3.565   0.313
 5000TIP3    H236636   2.048   3.657   0.341
 5001TIP3   OH236637   2.205   2.086   0.119
 5001TIP3    H136638   2.292   2.041   0.121
 5001TIP3    H236639   2.227   2.172   0.157
 5002TIP3   OH236640   2.733   2.205   0.365
 5002TIP3    H136641   2.782   2.142   0.420
 5002TIP3    H236642   2.753   2.287   0.415
 5003TIP3   OH236643   2.930   3.767   0.190
 5003TIP3    H136644   3.015   3.783   0.144
 5003TIP3    H236645   2.923   3.672   0.169
 5004TIP3   OH236646   3.585   3.592   0.517
 5004TIP3    H136647   3.563   3.514   0.461
 5004TIP3    H236648   3.572   3.661   0.450
 5005TIP3   OH236649   2.113   2.038   1.615
 5005TIP3    H136650   2.053   1.967   1.643
 5005TIP3    H236651   2.185   2.030   1.680
 5006TIP3   OH236652   2.314   1.969   1.832
 5006TIP3    H136653   2.411   1.963   1.826
 5006TIP3    H236654   2.297   1.882   1.872
 5007TIP3   OH236655   2.223   3.677   0.087
 5007TIP3    H136656   2.146   3.693   0.144
 5007TIP3    H236657   2.253   3.589   0.110
 5008TIP3   OH236658   3.171   1.907   1.840
 5008TIP3    H136659   3.160   1.858   1.925
 5008TIP3    H236660   3.259   1.877   1.813
 5009TIP3   OH236661   3.432   3.540   1.762
 5009TIP3    H136662   3.458   3.463   1.707
 5009TIP3    H236663   3.400   3.597   1.691
 5010TIP3   OH236664   4.980   2.903   0.669
 5010TIP3    H136665   4.956   2.999   0.667
 5010TIP3    H236666   4.899   2.863   0.634
 5011TIP3   OH236667   4.851   2.777   1.007
 5011TIP3    H136668   4.847   2.744   1.099
 5011TIP3    H236669   4.774   2.735   0.965
 5012TIP3   OH236670   4.039   2.755   1.177
 5012TIP3    H136671   4.064   2.682   1.237
 5012TIP3    H236672   4.103   2.823   1.201
 5013TIP3   OH236673   5.168   3.064   0.861
 5013TIP3    H136674   5.154   3.005   0.936
 5013TIP3    H236675   5.220   3.135   0.901
 5014TIP3   OH236676   4.178   3.273   0.961
 5014TIP3    H136677   4.127   3.190   0.959
 5014TIP3    H236678   4.268   3.236   0.972
 5015TIP3   OH236679   3.821   2.550   0.574
 5015TIP3    H136680   3.793   2.642   0.593
 5015TIP3    H236681   3.771   2.533   0.491
 5016TIP3   OH236682   3.902   2.800   0.812
 5016TIP3    H136683   3.936   2.709   0.827
 5016TIP3    H236684   3.981   2.855   0.803
 5017TIP3   OH236685   4.939   3.624   0.853
 5017TIP3    H136686   5.020   3.577   0.819
 5017TIP3    H236687   4.897   3.552   0.902
 5018TIP3   OH236688   4.633   3.049   1.136
 5018TIP3    H136689   4.659   3.017   1.049
 5018TIP3    H236690   4.720   3.073   1.173
 5019TIP3   OH236691   5.536   2.209   1.121
 5019TIP3    H136692   5.530   2.270   1.198
 5019TIP3    H236693   5.623   2.233   1.088
 5020TIP3   OH236694   5.019   2.508   1.126
 5020TIP3    H136695   5.051   2.421   1.154
 5020TIP3    H236696   4.999   2.493   1.033
 5021TIP3   OH236697   4.312   2.289   0.800
 5021TIP3    H136698   4.325   2.368   0.744
 5021TIP3    H236699   4.274   2.227   0.735
 5022TIP3   OH236700   5.073   2.335   0.682
 5022TIP3    H136701   5.131   2.291   0.749
 5022TIP3    H236702   5.137   2.390   0.634
 5023TIP3   OH236703   3.960   2.551   0.887
 5023TIP3    H136704   4.018   2.514   0.956
 5023TIP3    H236705   3.993   2.505   0.807
 5024TIP3   OH236706   4.447   2.702   0.839
 5024TIP3    H136707   4.536   2.665   0.855
 5024TIP3    H236708   4.414   2.636   0.774
 5025TIP3   OH236709   5.550   2.347   1.356
 5025TIP3    H136710   5.513   2.430   1.316
 5025TIP3    H236711   5.573   2.378   1.445
 5026TIP3   OH236712   4.213   2.186   1.214
 5026TIP3    H136713   4.168   2.245   1.150
 5026TIP3    H236714   4.158   2.201   1.293
 5027TIP3   OH236715   4.882   3.131   0.581
 5027TIP3    H136716   4.870   3.137   0.484
 5027TIP3    H236717   4.857   3.221   0.611
 5028TIP3   OH236718   4.396   2.960   1.220
 5028TIP3    H136719   4.336   3.029   1.258
 5028TIP3    H236720   4.472   3.015   1.190
 5029TIP3   OH236721   5.249   2.252   0.868
 5029TIP3    H136722   5.207   2.226   0.952
 5029TIP3    H236723   5.333   2.290   0.899
 5030TIP3   OH236724   4.166   2.398   1.028
 5030TIP3    H136725   4.231   2.460   1.068
 5030TIP3    H236726   4.210   2.372   0.944
 5031TIP3   OH236727   4.287   3.199   1.322
 5031TIP3    H136728   4.278   3.284   1.277
 5031TIP3    H236729   4.200   3.195   1.368
 5032TIP3   OH236730   3.888   3.093   0.395
 5032TIP3    H136731   3.870   3.138   0.309
 5032TIP3    H236732   3.915   3.171   0.449
 5033TIP3   OH236733   5.259   3.279   1.088
 5033TIP3    H136734   5.171   3.321   1.101
 5033TIP3    H236735   5.293   3.337   1.018
 5034TIP3   OH236736   5.274   2.108   1.200
 5034TIP3    H136737   5.192   2.116   1.146
 5034TIP3    H236738   5.343   2.145   1.141
 5035TIP3   OH236739   4.562   1.951   0.964
 5035TIP3    H136740   4.525   1.862   0.949
 5035TIP3    H236741   4.476   1.995   0.991
 5036TIP3   OH236742   5.114   3.466   0.734
 5036TIP3    H136743   5.134   3.389   0.674
 5036TIP3    H236744   5.193   3.523   0.720
 5037TIP3   OH236745   5.166   3.253   0.577
 5037TIP3    H136746   5.167   3.184   0.510
 5037TIP3    H236747   5.202   3.206   0.654
 5038TIP3   OH236748   5.340   3.135   1.454
 5038TIP3    H136749   5.346   3.065   1.384
 5038TIP3    H236750   5.347   3.214   1.397
 5039TIP3   OH236751   4.816   2.812   0.411
 5039TIP3    H136752   4.756   2.890   0.412
 5039TIP3    H236753   4.903   2.854   0.392
 5040TIP3   OH236754   4.797   2.741   0.137
 5040TIP3    H136755   4.839   2.764   0.223
 5040TIP3    H236756   4.853   2.666   0.109
 5041TIP3   OH236757   5.554   2.772   1.253
 5041TIP3    H136758   5.510   2.858   1.259
 5041TIP3    H236759   5.626   2.794   1.191
 5042TIP3   OH236760   5.211   2.847   0.538
 5042TIP3    H136761   5.131   2.871   0.592
 5042TIP3    H236762   5.260   2.791   0.602
 5043TIP3   OH236763   5.165   2.648   1.455
 5043TIP3    H136764   5.163   2.734   1.501
 5043TIP3    H236765   5.104   2.666   1.381
 5044TIP3   OH236766   4.305   2.881   0.702
 5044TIP3    H136767   4.303   2.846   0.610
 5044TIP3    H236768   4.368   2.820   0.746
 5045TIP3   OH236769   4.456   3.224   0.988
 5045TIP3    H136770   4.466   3.204   0.893
 5045TIP3    H236771   4.522   3.168   1.033
 5046TIP3   OH236772   4.323   2.753   1.077
 5046TIP3    H136773   4.372   2.759   0.991
 5046TIP3    H236774   4.359   2.829   1.127
 5047TIP3   OH236775   5.006   3.348   1.141
 5047TIP3    H136776   4.945   3.389   1.204
 5047TIP3    H236777   4.999   3.254   1.168
 5048TIP3   OH236778   4.474   3.220   1.529
 5048TIP3    H136779   4.403   3.263   1.584
 5048TIP3    H236780   4.421   3.208   1.447
 5049TIP3   OH236781   5.067   2.798   0.316
 5049TIP3    H136782   5.132   2.824   0.385
 5049TIP3    H236783   5.106   2.837   0.235
 5050TIP3   OH236784   4.131   2.824   1.471
 5050TIP3    H136785   4.140   2.884   1.546
 5050TIP3    H236786   4.041   2.790   1.490
 5051TIP3   OH236787   4.841   3.374   0.680
 5051TIP3    H136788   4.900   3.438   0.723
 5051TIP3    H236789   4.784   3.432   0.628
 5052TIP3   OH236790   4.293   3.375   1.643
 5052TIP3    H136791   4.310   3.446   1.577
 5052TIP3    H236792   4.205   3.404   1.676
 5053TIP3   OH236793   5.451   1.915   0.341
 5053TIP3    H136794   5.352   1.921   0.338
 5053TIP3    H236795   5.477   1.992   0.289
 5054TIP3   OH236796   4.216   2.789   0.439
 5054TIP3    H136797   4.171   2.869   0.405
 5054TIP3    H236798   4.147   2.721   0.441
 5055TIP3   OH236799   5.519   3.324   0.104
 5055TIP3    H136800   5.543   3.418   0.097
 5055TIP3    H236801   5.606   3.287   0.132
 5056TIP3   OH236802   3.831   3.050   1.370
 5056TIP3    H136803   3.780   3.049   1.286
 5056TIP3    H236804   3.870   2.959   1.369
 5057TIP3   OH236805   3.872   3.320   1.087
 5057TIP3    H136806   3.924   3.373   1.027
 5057TIP3    H236807   3.783   3.339   1.051
 5058TIP3   OH236808   5.632   3.386   1.606
 5058TIP3    H136809   5.619   3.291   1.594
 5058TIP3    H236810   5.541   3.411   1.636
 5059TIP3   OH236811   4.730   3.323   1.513
 5059TIP3    H136812   4.723   3.387   1.585
 5059TIP3    H236813   4.641   3.280   1.515
 5060TIP3   OH236814   4.760   3.707   0.454
 5060TIP3    H136815   4.766   3.730   0.359
 5060TIP3    H236816   4.770   3.795   0.496
 5061TIP3   OH236817   4.120   3.566   0.677
 5061TIP3    H136818   4.154   3.541   0.766
 5061TIP3    H236819   4.024   3.558   0.692
 5062TIP3   OH236820   5.080   3.661   0.164
 5062TIP3    H136821   5.130   3.583   0.134
 5062TIP3    H236822   5.076   3.646   0.261
 5063TIP3   OH236823   5.056   3.636   0.434
 5063TIP3    H136824   4.960   3.651   0.443
 5063TIP3    H236825   5.072   3.564   0.497
 5064TIP3   OH236826   5.310   2.530   1.646
 5064TIP3    H136827   5.251   2.580   1.585
 5064TIP3    H236828   5.299   2.437   1.617
 5065TIP3   OH236829   4.040   3.204   1.445
 5065TIP3    H136830   4.053   3.165   1.534
 5065TIP3    H236831   3.961   3.155   1.416
 5066TIP3   OH236832   4.328   2.041   1.031
 5066TIP3    H136833   4.240   2.029   0.993
 5066TIP3    H236834   4.305   2.084   1.116
 5067TIP3   OH236835   4.822   1.995   1.367
 5067TIP3    H136836   4.864   1.947   1.441
 5067TIP3    H236837   4.728   1.994   1.393
 5068TIP3   OH236838   5.111   2.370   1.491
 5068TIP3    H136839   5.057   2.352   1.571
 5068TIP3    H236840   5.114   2.468   1.487
 5069TIP3   OH236841   5.185   2.885   0.096
 5069TIP3    H136842   5.189   2.906   0.002
 5069TIP3    H236843   5.267   2.928   0.125
 5070TIP3   OH236844   4.772   2.304   0.111
 5070TIP3    H136845   4.724   2.310   0.196
 5070TIP3    H236846   4.752   2.213   0.084
 5071TIP3   OH236847   4.348   2.516   1.188
 5071TIP3    H136848   4.270   2.527   1.246
 5071TIP3    H236849   4.345   2.603   1.143
 5072TIP3   OH236850   4.331   2.510   0.656
 5072TIP3    H136851   4.234   2.517   0.650
 5072TIP3    H236852   4.355   2.490   0.563
 5073TIP3   OH236853   4.895   2.592   0.535
 5073TIP3    H136854   4.862   2.672   0.488
 5073TIP3    H236855   4.955   2.556   0.468
 5074TIP3   OH236856   4.754   2.612   1.678
 5074TIP3    H136857   4.712   2.529   1.706
 5074TIP3    H236858   4.766   2.657   1.763
 5075TIP3   OH236859   4.974   2.542   0.846
 5075TIP3    H136860   4.976   2.627   0.797
 5075TIP3    H236861   4.981   2.479   0.772
 5076TIP3   OH236862   4.103   2.526   1.309
 5076TIP3    H136863   4.109   2.559   1.400
 5076TIP3    H236864   4.075   2.433   1.324
 5077TIP3   OH236865   4.423   2.317   0.085
 5077TIP3    H136866   4.395   2.246   0.146
 5077TIP3    H236867   4.391   2.396   0.133
 5078TIP3   OH236868   3.777   2.256   0.769
 5078TIP3    H136869   3.842   2.266   0.841
 5078TIP3    H236870   3.812   2.312   0.698
 5079TIP3   OH236871   3.881   2.320   0.277
 5079TIP3    H136872   3.934   2.358   0.204
 5079TIP3    H236873   3.825   2.397   0.299
 5080TIP3   OH236874   4.890   2.725   1.270
 5080TIP3    H136875   4.954   2.666   1.225
 5080TIP3    H236876   4.839   2.659   1.323
 5081TIP3   OH236877   4.621   2.265   0.767
 5081TIP3    H136878   4.527   2.275   0.789
 5081TIP3    H236879   4.661   2.231   0.851
 5082TIP3   OH236880   4.055   2.437   0.669
 5082TIP3    H136881   3.983   2.470   0.610
 5082TIP3    H236882   4.079   2.351   0.627
 5083TIP3   OH236883   4.387   2.461   0.401
 5083TIP3    H136884   4.481   2.480   0.420
 5083TIP3    H236885   4.371   2.511   0.317
 5084TIP3   OH236886   5.053   2.192   1.074
 5084TIP3    H136887   4.977   2.195   1.136
 5084TIP3    H236888   5.012   2.155   0.994
 5085TIP3   OH236889   4.334   2.559   0.158
 5085TIP3    H136890   4.270   2.546   0.086
 5085TIP3    H236891   4.408   2.604   0.110
 5086TIP3   OH236892   5.332   3.778   1.727
 5086TIP3    H136893   5.380   3.799   1.645
 5086TIP3    H236894   5.400   3.808   1.791
 5087TIP3   OH236895   4.057   3.068   1.689
 5087TIP3    H136896   4.140   3.057   1.736
 5087TIP3    H236897   4.004   2.994   1.726
 5088TIP3   OH236898   4.689   2.569   0.908
 5088TIP3    H136899   4.781   2.537   0.893
 5088TIP3    H236900   4.662   2.511   0.981
 5089TIP3   OH236901   4.158   2.177   0.600
 5089TIP3    H136902   4.111   2.105   0.648
 5089TIP3    H236903   4.192   2.128   0.523
 5090TIP3   OH236904   4.575   2.379   1.187
 5090TIP3    H136905   4.495   2.436   1.178
 5090TIP3    H236906   4.634   2.437   1.237
 5091TIP3   OH236907   4.643   3.014   0.398
 5091TIP3    H136908   4.571   2.963   0.354
 5091TIP3    H236909   4.595   3.043   0.479
 5092TIP3   OH236910   5.363   2.984   1.245
 5092TIP3    H136911   5.419   3.038   1.182
 5092TIP3    H236912   5.286   2.964   1.189
 5093TIP3   OH236913   5.037   2.310   0.169
 5093TIP3    H136914   4.958   2.337   0.119
 5093TIP3    H236915   5.053   2.388   0.225
 5094TIP3   OH236916   4.794   3.057   1.535
 5094TIP3    H136917   4.722   3.027   1.594
 5094TIP3    H236918   4.779   3.153   1.531
 5095TIP3   OH236919   5.093   2.514   0.351
 5095TIP3    H136920   5.154   2.493   0.424
 5095TIP3    H236921   5.123   2.604   0.328
 5096TIP3   OH236922   4.157   2.981   0.920
 5096TIP3    H136923   4.202   2.962   0.835
 5096TIP3    H236924   4.180   2.903   0.973
 5097TIP3   OH236925   4.849   3.152   0.293
 5097TIP3    H136926   4.812   3.241   0.312
 5097TIP3    H236927   4.774   3.094   0.321
 5098TIP3   OH236928   3.870   2.786   1.433
 5098TIP3    H136929   3.824   2.739   1.503
 5098TIP3    H236930   3.815   2.764   1.354
 5099TIP3   OH236931   4.539   2.766   1.645
 5099TIP3    H136932   4.474   2.715   1.597
 5099TIP3    H236933   4.618   2.708   1.643
 5100TIP3   OH236934   5.048   3.282   1.501
 5100TIP3    H136935   4.965   3.291   1.454
 5100TIP3    H236936   5.024   3.320   1.588
 5101TIP3   OH236937   5.588   2.499   0.319
 5101TIP3    H136938   5.509   2.486   0.262
 5101TIP3    H236939   5.589   2.597   0.321
 5102TIP3   OH236940   5.585   3.067   1.570
 5102TIP3    H136941   5.504   3.095   1.521
 5102TIP3    H236942   5.648   3.060   1.494
 5103TIP3   OH236943   5.370   3.393   0.348
 5103TIP3    H136944   5.385   3.335   0.424
 5103TIP3    H236945   5.401   3.342   0.272
 5104TIP3   OH236946   5.125   2.875   1.067
 5104TIP3    H136947   5.035   2.851   1.039
 5104TIP3    H236948   5.177   2.805   1.022
 5105TIP3   OH236949   4.368   3.307   0.703
 5105TIP3    H136950   4.392   3.401   0.708
 5105TIP3    H236951   4.289   3.314   0.648
 5106TIP3   OH236952   3.959   2.805   0.124
 5106TIP3    H136953   4.010   2.863   0.184
 5106TIP3    H236954   3.867   2.814   0.154
 5107TIP3   OH236955   4.508   3.082   0.620
 5107TIP3    H136956   4.464   3.167   0.642
 5107TIP3    H236957   4.475   3.020   0.686
 5108TIP3   OH236958   4.602   3.490   1.327
 5108TIP3    H136959   4.666   3.557   1.297
 5108TIP3    H236960   4.658   3.436   1.386
 5109TIP3   OH236961   4.394   3.575   0.596
 5109TIP3    H136962   4.297   3.570   0.611
 5109TIP3    H236963   4.412   3.665   0.629
 5110TIP3   OH236964   4.883   3.083   1.234
 5110TIP3    H136965   4.855   3.055   1.323
 5110TIP3    H236966   4.928   3.003   1.201
 5111TIP3   OH236967   5.159   3.229   0.185
 5111TIP3    H136968   5.192   3.183   0.265
 5111TIP3    H236969   5.070   3.190   0.183
 5112TIP3   OH236970   5.227   3.527   1.444
 5112TIP3    H136971   5.137   3.490   1.449
 5112TIP3    H236972   5.216   3.604   1.384
 5113TIP3   OH236973   5.605   3.631   0.174
 5113TIP3    H136974   5.653   3.689   0.114
 5113TIP3    H236975   5.543   3.698   0.212
 5114TIP3   OH236976   4.034   2.286   1.421
 5114TIP3    H136977   3.958   2.324   1.470
 5114TIP3    H236978   4.029   2.196   1.458
 5115TIP3   OH236979   5.241   3.057   0.380
 5115TIP3    H136980   5.222   2.985   0.444
 5115TIP3    H236981   5.335   3.073   0.400
 5116TIP3   OH236982   4.004   3.489   1.269
 5116TIP3    H136983   4.007   3.396   1.242
 5116TIP3    H236984   3.945   3.484   1.344
 5117TIP3   OH236985   4.449   3.252   0.253
 5117TIP3    H136986   4.513   3.200   0.305
 5117TIP3    H236987   4.470   3.344   0.280
 5118TIP3   OH236988   4.103   2.991   0.285
 5118TIP3    H136989   4.026   3.032   0.332
 5118TIP3    H236990   4.149   3.070   0.252
 5119TIP3   OH236991   4.879   2.267   1.371
 5119TIP3    H136992   4.966   2.274   1.414
 5119TIP3    H236993   4.861   2.171   1.378
 5120TIP3   OH236994   4.941   2.233   0.474
 5120TIP3    H136995   4.984   2.271   0.396
 5120TIP3    H236996   4.989   2.278   0.546
 5121TIP3   OH236997   4.754   3.400   0.354
 5121TIP3    H136998   4.688   3.470   0.361
 5121TIP3    H236999   4.811   3.435   0.282
 5122TIP3   OH237000   4.666   2.416   0.516
 5122TIP3    H137001   4.747   2.471   0.527
 5122TIP3    H237002   4.661   2.366   0.600
 5123TIP3   OH237003   4.761   2.520   1.404
 5123TIP3    H137004   4.773   2.548   1.497
 5123TIP3    H237005   4.797   2.428   1.400
 5124TIP3   OH237006   4.750   2.074   0.572
 5124TIP3    H137007   4.712   2.133   0.641
 5124TIP3    H237008   4.829   2.128   0.544
 5125TIP3   OH237009   4.478   3.514   0.326
 5125TIP3    H137010   4.499   3.599   0.282
 5125TIP3    H237011   4.441   3.546   0.410
 5126TIP3   OH237012   4.316   2.203   0.298
 5126TIP3    H137013   4.318   2.286   0.350
 5126TIP3    H237014   4.398   2.162   0.331
 5127TIP3   OH237015   5.359   2.277   1.538
 5127TIP3    H137016   5.262   2.271   1.525
 5127TIP3    H237017   5.387   2.302   1.447
 5128TIP3   OH237018   5.218   2.642   0.923
 5128TIP3    H137019   5.145   2.578   0.926
 5128TIP3    H237020   5.292   2.595   0.969
 5129TIP3   OH237021   4.169   3.242   0.150
 5129TIP3    H137022   4.245   3.275   0.200
 5129TIP3    H237023   4.216   3.187   0.084
 5130TIP3   OH237024   4.000   2.528   0.090
 5130TIP3    H137025   4.005   2.623   0.111
 5130TIP3    H237026   3.928   2.528   0.025
 5131TIP3   OH237027   5.318   3.589   1.061
 5131TIP3    H137028   5.327   3.667   1.002
 5131TIP3    H237029   5.412   3.577   1.084
 5132TIP3   OH237030   4.059   1.988   0.984
 5132TIP3    H137031   4.051   1.974   0.887
 5132TIP3    H237032   4.033   1.899   1.017
 5133TIP3   OH237033   3.931   3.328   0.496
 5133TIP3    H137034   3.898   3.358   0.582
 5133TIP3    H237035   3.940   3.413   0.448
 5134TIP3   OH237036   3.858   3.647   1.684
 5134TIP3    H137037   3.919   3.615   1.751
 5134TIP3    H237038   3.819   3.561   1.658
 5135TIP3   OH237039   4.842   3.501   0.110
 5135TIP3    H137040   4.783   3.442   0.058
 5135TIP3    H237041   4.909   3.525   0.044
 5136TIP3   OH237042   5.003   3.414   1.739
 5136TIP3    H137043   4.959   3.342   1.789
 5136TIP3    H237044   5.086   3.416   1.790
 5137TIP3   OH237045   5.261   3.461   0.023
 5137TIP3    H137046   5.229   3.390   0.083
 5137TIP3    H237047   5.357   3.447   0.036
 5138TIP3   OH237048   4.341   3.050   0.032
 5138TIP3    H137049   4.404   3.039   0.106
 5138TIP3    H237050   4.385   2.997  -0.038
 5139TIP3   OH237051   4.545   3.036   1.715
 5139TIP3    H137052   4.517   3.092   1.639
 5139TIP3    H237053   4.534   2.944   1.683
 5140TIP3   OH237054   5.105   2.996   1.504
 5140TIP3    H137055   5.193   3.038   1.494
 5140TIP3    H237056   5.052   3.077   1.517
 5141TIP3   OH237057   4.005   2.783   1.755
 5141TIP3    H137058   4.031   2.707   1.809
 5141TIP3    H237059   3.919   2.803   1.801
 5142TIP3   OH237060   4.443   2.888   0.261
 5142TIP3    H137061   4.377   2.834   0.309
 5142TIP3    H237062   4.472   2.824   0.194
 5143TIP3   OH237063   4.341   2.656   1.459
 5143TIP3    H137064   4.273   2.724   1.442
 5143TIP3    H237065   4.415   2.693   1.408
 5144TIP3   OH237066   4.544   2.699   0.047
 5144TIP3    H137067   4.576   2.700  -0.045
 5144TIP3    H237068   4.631   2.709   0.096
 5145TIP3   OH237069   4.879   2.897   1.844
 5145TIP3    H137070   4.943   2.864   1.779
 5145TIP3    H237071   4.860   2.818   1.897
 5146TIP3   OH237072   5.462   2.979   8.481
 5146TIP3    H137073   5.429   3.001   8.393
 5146TIP3    H237074   5.470   3.066   8.523
 5147TIP3   OH237075   4.448   2.421   1.562
 5147TIP3    H137076   4.438   2.347   1.499
 5147TIP3    H237077   4.433   2.500   1.506
 5148TIP3   OH237078   4.449   2.213   1.350
 5148TIP3    H137079   4.512   2.267   1.297
 5148TIP3    H237080   4.370   2.219   1.293
 5149TIP3   OH237081   4.564   2.791   1.345
 5149TIP3    H137082   4.651   2.832   1.332
 5149TIP3    H237083   4.504   2.860   1.309
 5150TIP3   OH237084   5.035   2.500   1.903
 5150TIP3    H137085   5.080   2.418   1.926
 5150TIP3    H237086   5.110   2.561   1.895
 5151TIP3   OH237087   5.170   2.840   1.704
 5151TIP3    H137088   5.136   2.893   1.629
 5151TIP3    H237089   5.266   2.836   1.683
 5152TIP3   OH237090   4.290   2.502   1.793
 5152TIP3    H137091   4.193   2.511   1.786
 5152TIP3    H237092   4.318   2.470   1.706
 5153TIP3   OH237093   4.540   1.965   1.341
 5153TIP3    H137094   4.511   2.059   1.348
 5153TIP3    H237095   4.456   1.921   1.325
 5154TIP3   OH237096   4.630   2.374   1.771
 5154TIP3    H137097   4.560   2.353   1.837
 5154TIP3    H237098   4.574   2.374   1.691
 5155TIP3   OH237099   4.927   2.294   1.666
 5155TIP3    H137100   4.831   2.283   1.672
 5155TIP3    H237101   4.958   2.248   1.745
 5156TIP3   OH237102   4.036   2.313   1.773
 5156TIP3    H137103   4.074   2.235   1.730
 5156TIP3    H237104   4.079   2.307   1.860
 5157TIP3   OH237105   4.529   1.949   1.612
 5157TIP3    H137106   4.599   1.882   1.625
 5157TIP3    H237107   4.529   1.951   1.514
 5158TIP3   OH237108   4.531   2.031   1.905
 5158TIP3    H137109   4.521   1.990   1.817
 5158TIP3    H237110   4.480   2.114   1.892
 5159TIP3   OH237111   4.534   3.739   0.185
 5159TIP3    H137112   4.624   3.774   0.201
 5159TIP3    H237113   4.534   3.741   0.088
 5160TIP3   OH237114   3.877   3.186   0.135
 5160TIP3    H137115   3.974   3.204   0.138
 5160TIP3    H237116   3.867   3.168   0.040
 5161TIP3   OH237117   3.748   3.750   0.661
 5161TIP3    H137118   3.691   3.693   0.605
 5161TIP3    H237119   3.774   3.684   0.729
 5162TIP3   OH237120   3.840   3.559   0.826
 5162TIP3    H137121   3.755   3.518   0.857
 5162TIP3    H237122   3.872   3.593   0.913
 5163TIP3   OH237123   5.585   3.651   1.103
 5163TIP3    H137124   5.607   3.665   1.197
 5163TIP3    H237125   5.638   3.721   1.063
 5164TIP3   OH237126   5.544   3.600   1.380
 5164TIP3    H137127   5.514   3.517   1.336
 5164TIP3    H237128   5.588   3.560   1.457
 5165TIP3   OH237129   5.407   3.174   1.894
 5165TIP3    H137130   5.323   3.180   1.942
 5165TIP3    H237131   5.411   3.264   1.860
 5166TIP3   OH237132   5.527   3.006   0.382
 5166TIP3    H137133   5.614   3.051   0.395
 5166TIP3    H237134   5.522   2.952   0.464
 5167TIP3   OH237135   5.565   2.805   0.575
 5167TIP3    H137136   5.483   2.776   0.621
 5167TIP3    H237137   5.621   2.824   0.652
 5168TIP3   OH237138   5.545   3.091   1.094
 5168TIP3    H137139   5.606   3.023   1.057
 5168TIP3    H237140   5.589   3.176   1.072
 5169TIP3   OH237141   5.412   3.361   1.304
 5169TIP3    H137142   5.338   3.403   1.351
 5169TIP3    H237143   5.371   3.328   1.220
 5170TIP3   OH237144   5.561   2.782   0.222
 5170TIP3    H137145   5.498   2.808   0.153
 5170TIP3    H237146   5.544   2.850   0.291
 5171TIP3   OH237147   5.342   2.499   0.125
 5171TIP3    H137148   5.407   2.550   0.075
 5171TIP3    H237149   5.353   2.409   0.088
 5172TIP3   OH237150   5.357   2.685   0.693
 5172TIP3    H137151   5.341   2.595   0.662
 5172TIP3    H237152   5.332   2.678   0.788
 5173TIP3   OH237153   3.849   2.889   1.058
 5173TIP3    H137154   3.845   2.856   0.966
 5173TIP3    H237155   3.933   2.843   1.084
 5174TIP3   OH237156   5.442   2.850   1.633
 5174TIP3    H137157   5.500   2.770   1.638
 5174TIP3    H237158   5.504   2.922   1.608
 5175TIP3   OH237159   5.561   2.606   1.641
 5175TIP3    H137160   5.469   2.575   1.658
 5175TIP3    H237161   5.611   2.523   1.658
 5176TIP3   OH237162   5.372   2.269  -0.011
 5176TIP3    H137163   5.433   2.219   0.047
 5176TIP3    H237164   5.284   2.258   0.031
 5177TIP3   OH237165   5.295   2.446   0.520
 5177TIP3    H137166   5.331   2.361   0.553
 5177TIP3    H237167   5.331   2.443   0.430
 5178TIP3   OH237168   5.409   2.508   1.048
 5178TIP3    H137169   5.507   2.511   1.046
 5178TIP3    H237170   5.396   2.517   1.145
 5179TIP3   OH237171   5.400   2.561   1.319
 5179TIP3    H137172   5.329   2.588   1.381
 5179TIP3    H237173   5.445   2.648   1.303
 5180TIP3   OH237174   3.806   2.338   1.626
 5180TIP3    H137175   3.889   2.356   1.676
 5180TIP3    H237176   3.766   2.273   1.686
 5181TIP3   OH237177   5.685   1.955   1.897
 5181TIP3    H137178   5.709   1.902   1.819
 5181TIP3    H237179   5.656   2.040   1.861
 5182TIP3   OH237180   5.344   2.158   0.547
 5182TIP3    H137181   5.408   2.115   0.608
 5182TIP3    H237182   5.323   2.086   0.485
 5183TIP3   OH237183   3.943   2.231   1.028
 5183TIP3    H137184   3.980   2.140   1.013
 5183TIP3    H237185   4.022   2.287   1.030
 5184TIP3   OH237186   3.773   2.533   1.071
 5184TIP3    H137187   3.828   2.520   0.991
 5184TIP3    H237188   3.826   2.598   1.120
 5185TIP3   OH237189   5.513   2.134   1.713
 5185TIP3    H137190   5.450   2.193   1.664
 5185TIP3    H237191   5.547   2.085   1.637
 5186TIP3   OH237192   5.574   2.182   0.146
 5186TIP3    H137193   5.618   2.115   0.092
 5186TIP3    H237194   5.650   2.240   0.169
 5187TIP3   OH237195   3.800   2.125   0.463
 5187TIP3    H137196   3.708   2.098   0.469
 5187TIP3    H237197   3.800   2.193   0.392
 5188TIP3   OH237198   5.286   3.667   0.688
 5188TIP3    H137199   5.354   3.629   0.629
 5188TIP3    H237200   5.337   3.685   0.769
 5189TIP3   OH237201   3.795   2.018   1.306
 5189TIP3    H137202   3.723   1.976   1.357
 5189TIP3    H237203   3.751   2.082   1.249
 5190TIP3   OH237204   4.062   3.399   1.784
 5190TIP3    H137205   3.972   3.390   1.745
 5190TIP3    H237206   4.081   3.307   1.808
 5191TIP3   OH237207   4.343   3.510   1.408
 5191TIP3    H137208   4.325   3.584   1.346
 5191TIP3    H237209   4.436   3.490   1.384
 5192TIP3   OH237210   4.732   3.602   1.633
 5192TIP3    H137211   4.770   3.547   1.702
 5192TIP3    H237212   4.811   3.639   1.590
 5193TIP3   OH237213   4.949   3.760   1.572
 5193TIP3    H137214   5.023   3.703   1.546
 5193TIP3    H237215   4.962   3.767   1.669
 5194TIP3   OH237216   5.462   1.961   1.499
 5194TIP3    H137217   5.388   2.011   1.462
 5194TIP3    H237218   5.448   1.874   1.457
 5195TIP3   OH237219   4.072   3.808   1.349
 5195TIP3    H137220   4.003   3.877   1.337
 5195TIP3    H237221   4.032   3.753   1.416
 5196TIP3   OH237222   4.297   3.721   1.249
 5196TIP3    H137223   4.205   3.734   1.284
 5196TIP3    H237224   4.298   3.790   1.181
 5197TIP3   OH237225   4.739   3.686   1.182
 5197TIP3    H137226   4.693   3.727   1.108
 5197TIP3    H237227   4.748   3.761   1.245
 5198TIP3   OH237228   4.946   3.568   1.320
 5198TIP3    H137229   4.876   3.604   1.261
 5198TIP3    H237230   5.022   3.624   1.294
 5199TIP3   OH237231   5.205   3.715   1.263
 5199TIP3    H137232   5.243   3.795   1.225
 5199TIP3    H237233   5.232   3.652   1.191
 5200TIP3   OH237234   3.988   3.627   1.035
 5200TIP3    H137235   3.977   3.587   1.124
 5200TIP3    H237236   4.072   3.585   1.005
 5201TIP3   OH237237   4.211   3.530   0.926
 5201TIP3    H137238   4.191   3.434   0.941
 5201TIP3    H237239   4.296   3.534   0.976
 5202TIP3   OH237240   4.442   3.502   1.050
 5202TIP3    H137241   4.470   3.409   1.039
 5202TIP3    H237242   4.491   3.525   1.131
 5203TIP3   OH237243   4.773   2.109   0.930
 5203TIP3    H137244   4.690   2.062   0.957
 5203TIP3    H237245   4.814   2.041   0.875
 5204TIP3   OH237246   5.350   1.931   0.919
 5204TIP3    H137247   5.411   1.987   0.864
 5204TIP3    H237248   5.262   1.964   0.890
 5205TIP3   OH237249   5.511   2.033   0.720
 5205TIP3    H137250   5.580   1.981   0.674
 5205TIP3    H237251   5.566   2.109   0.752
 5206TIP3   OH237252   4.042   1.939   0.705
 5206TIP3    H137253   3.960   1.922   0.653
 5206TIP3    H237254   4.094   1.858   0.683
 5207TIP3   OH237255   3.916   1.949   0.276
 5207TIP3    H137256   3.974   2.004   0.220
 5207TIP3    H237257   3.879   2.012   0.341
 5208TIP3   OH237258   4.480   1.923   0.688
 5208TIP3    H137259   4.564   1.924   0.639
 5208TIP3    H237260   4.503   1.973   0.768
 5209TIP3   OH237261   5.087   1.973   0.826
 5209TIP3    H137262   5.058   1.995   0.737
 5209TIP3    H237263   5.036   1.890   0.845
 5210TIP3   OH237264   5.197   1.966   0.355
 5210TIP3    H137265   5.127   1.991   0.293
 5210TIP3    H237266   5.154   1.896   0.410
 5211TIP3   OH237267   3.898   3.565   0.371
 5211TIP3    H137268   3.813   3.563   0.322
 5211TIP3    H237269   3.927   3.654   0.344
 5212TIP3   OH237270   4.086   2.082   0.124
 5212TIP3    H137271   4.172   2.038   0.113
 5212TIP3    H237272   4.113   2.167   0.162
 5213TIP3   OH237273   4.618   2.200   0.357
 5213TIP3    H137274   4.658   2.141   0.423
 5213TIP3    H237275   4.634   2.286   0.402
 5214TIP3   OH237276   4.815   3.753   0.196
 5214TIP3    H137277   4.902   3.774   0.156
 5214TIP3    H237278   4.813   3.659   0.168
 5215TIP3   OH237279   5.454   3.607   0.488
 5215TIP3    H137280   5.438   3.525   0.436
 5215TIP3    H237281   5.452   3.673   0.417
 5216TIP3   OH237282   4.005   2.036   1.637
 5216TIP3    H137283   3.957   1.952   1.651
 5216TIP3    H237284   4.087   2.019   1.687
 5217TIP3   OH237285   4.199   1.963   1.834
 5217TIP3    H137286   4.289   1.934   1.812
 5217TIP3    H237287   4.163   1.883   1.878
 5218TIP3   OH237288   4.129   3.681   0.067
 5218TIP3    H137289   4.049   3.704   0.116
 5218TIP3    H237290   4.153   3.592   0.097
 5219TIP3   OH237291   5.081   1.890   1.840
 5219TIP3    H137292   5.098   1.858   1.930
 5219TIP3    H237293   5.169   1.877   1.800
 5220TIP3   OH237294   5.399   3.499   1.651
 5220TIP3    H137295   5.347   3.511   1.569
 5220TIP3    H237296   5.363   3.569   1.707
 5221TIP3   OH237297   6.860   2.896   0.686
 5221TIP3    H137298   6.845   2.991   0.667
 5221TIP3    H237299   6.783   2.858   0.641
 5222TIP3   OH237300   6.717   2.786   1.020
 5222TIP3    H137301   6.729   2.750   1.110
 5222TIP3    H237302   6.651   2.727   0.979
 5223TIP3   OH237303   5.938   2.785   1.175
 5223TIP3    H137304   5.940   2.712   1.240
 5223TIP3    H237305   6.019   2.833   1.201
 5224TIP3   OH237306   7.079   3.075   0.859
 5224TIP3    H137307   7.036   2.999   0.900
 5224TIP3    H237308   7.081   3.136   0.933
 5225TIP3   OH237309   6.042   3.222   1.014
 5225TIP3    H137310   6.018   3.131   0.990
 5225TIP3    H237311   6.137   3.220   0.992
 5226TIP3   OH237312   5.731   2.568   0.563
 5226TIP3    H137313   5.701   2.656   0.593
 5226TIP3    H237314   5.678   2.558   0.482
 5227TIP3   OH237315   5.757   2.808   0.814
 5227TIP3    H137316   5.809   2.725   0.835
 5227TIP3    H237317   5.825   2.878   0.823
 5228TIP3   OH237318   6.811   3.605   0.838
 5228TIP3    H137319   6.888   3.549   0.813
 5228TIP3    H237320   6.789   3.564   0.922
 5229TIP3   OH237321   6.554   3.070   1.125
 5229TIP3    H137322   6.585   3.050   1.036
 5229TIP3    H237323   6.639   3.083   1.173
 5230TIP3   OH237324   6.901   2.495   1.132
 5230TIP3    H137325   6.901   2.399   1.146
 5230TIP3    H237326   6.903   2.497   1.035
 5231TIP3   OH237327   6.204   2.289   0.803
 5231TIP3    H137328   6.215   2.368   0.745
 5231TIP3    H237329   6.152   2.233   0.742
 5232TIP3   OH237330   6.951   2.332   0.694
 5232TIP3    H137331   7.025   2.300   0.750
 5232TIP3    H237332   6.993   2.385   0.625
 5233TIP3   OH237333   5.848   2.568   0.897
 5233TIP3    H137334   5.915   2.532   0.959
 5233TIP3    H237335   5.871   2.516   0.817
 5234TIP3   OH237336   6.311   2.696   0.837
 5234TIP3    H137337   6.399   2.662   0.863
 5234TIP3    H237338   6.286   2.632   0.766
 5235TIP3   OH237339   6.116   2.213   1.213
 5235TIP3    H137340   6.066   2.259   1.143
 5235TIP3    H237341   6.053   2.212   1.287
 5236TIP3   OH237342   6.782   3.135   0.573
 5236TIP3    H137343   6.760   3.144   0.478
 5236TIP3    H237344   6.746   3.221   0.605
 5237TIP3   OH237345   6.302   2.979   1.185
 5237TIP3    H137346   6.248   3.050   1.226
 5237TIP3    H237347   6.383   3.027   1.158
 5238TIP3   OH237348   7.116   2.285   0.902
 5238TIP3    H137349   7.102   2.193   0.929
 5238TIP3    H237350   7.153   2.325   0.983
 5239TIP3   OH237351   6.055   2.404   1.014
 5239TIP3    H137352   6.115   2.465   1.063
 5239TIP3    H237353   6.114   2.373   0.942
 5240TIP3   OH237354   6.181   3.183   1.321
 5240TIP3    H137355   6.149   3.265   1.280
 5240TIP3    H237356   6.100   3.158   1.371
 5241TIP3   OH237357   5.776   3.117   0.394
 5241TIP3    H137358   5.771   3.164   0.307
 5241TIP3    H237359   5.771   3.190   0.457
 5242TIP3   OH237360   7.136   3.218   1.105
 5242TIP3    H137361   7.048   3.260   1.121
 5242TIP3    H237362   7.178   3.280   1.043
 5243TIP3   OH237363   7.167   2.163   1.193
 5243TIP3    H137364   7.074   2.193   1.185
 5243TIP3    H237365   7.215   2.240   1.158
 5244TIP3   OH237366   6.458   1.955   0.953
 5244TIP3    H137367   6.425   1.864   0.946
 5244TIP3    H237368   6.378   1.997   0.994
 5245TIP3   OH237369   6.994   3.438   0.752
 5245TIP3    H137370   7.002   3.355   0.700
 5245TIP3    H237371   7.044   3.499   0.695
 5246TIP3   OH237372   7.065   3.234   0.601
 5246TIP3    H137373   7.045   3.175   0.527
 5246TIP3    H237374   7.085   3.171   0.673
 5247TIP3   OH237375   7.225   3.110   1.489
 5247TIP3    H137376   7.194   3.060   1.411
 5247TIP3    H237377   7.212   3.201   1.457
 5248TIP3   OH237378   6.682   2.819   0.428
 5248TIP3    H137379   6.629   2.898   0.404
 5248TIP3    H237380   6.767   2.840   0.384
 5249TIP3   OH237381   6.720   2.708   0.160
 5249TIP3    H137382   6.795   2.741   0.213
 5249TIP3    H237383   6.759   2.634   0.112
 5250TIP3   OH237384   7.083   2.856   0.531
 5250TIP3    H137385   7.008   2.876   0.592
 5250TIP3    H237386   7.122   2.778   0.578
 5251TIP3   OH237387   7.008   2.649   1.425
 5251TIP3    H137388   7.021   2.733   1.471
 5251TIP3    H237389   6.927   2.671   1.375
 5252TIP3   OH237390   6.202   2.910   0.713
 5252TIP3    H137391   6.181   2.866   0.627
 5252TIP3    H237392   6.253   2.839   0.756
 5253TIP3   OH237393   6.320   3.232   0.947
 5253TIP3    H137394   6.310   3.241   0.850
 5253TIP3    H237395   6.408   3.195   0.960
 5254TIP3   OH237396   6.223   2.749   1.086
 5254TIP3    H137397   6.247   2.748   0.992
 5254TIP3    H237398   6.269   2.830   1.119
 5255TIP3   OH237399   6.885   3.313   1.167
 5255TIP3    H137400   6.868   3.377   1.239
 5255TIP3    H237401   6.853   3.230   1.209
 5256TIP3   OH237402   6.374   3.223   1.510
 5256TIP3    H137403   6.303   3.263   1.564
 5256TIP3    H237404   6.316   3.192   1.436
 5257TIP3   OH237405   6.935   2.797   0.314
 5257TIP3    H137406   6.997   2.822   0.386
 5257TIP3    H237407   6.978   2.838   0.235
 5258TIP3   OH237408   6.027   2.820   1.477
 5258TIP3    H137409   6.044   2.890   1.543
 5258TIP3    H237410   5.952   2.776   1.519
 5259TIP3   OH237411   6.675   3.381   0.629
 5259TIP3    H137412   6.708   3.448   0.689
 5259TIP3    H237413   6.618   3.429   0.568
 5260TIP3   OH237414   6.174   3.371   1.624
 5260TIP3    H137415   6.156   3.411   1.536
 5260TIP3    H237416   6.082   3.351   1.651
 5261TIP3   OH237417   7.310   1.907   0.287
 5261TIP3    H137418   7.234   1.911   0.348
 5261TIP3    H237419   7.269   1.927   0.202
 5262TIP3   OH237420   6.086   2.785   0.481
 5262TIP3    H137421   6.036   2.862   0.446
 5262TIP3    H237422   6.030   2.711   0.457
 5263TIP3   OH237423   5.743   3.059   1.357
 5263TIP3    H137424   5.699   3.048   1.272
 5263TIP3    H237425   5.773   2.966   1.372
 5264TIP3   OH237426   5.685   3.323   1.053
 5264TIP3    H137427   5.776   3.325   1.020
 5264TIP3    H237428   5.677   3.409   1.096
 5265TIP3   OH237429   6.608   3.352   1.464
 5265TIP3    H137430   6.609   3.443   1.496
 5265TIP3    H237431   6.514   3.324   1.476
 5266TIP3   OH237432   6.669   3.711   0.451
 5266TIP3    H137433   6.667   3.732   0.356
 5266TIP3    H237434   6.668   3.801   0.491
 5267TIP3   OH237435   6.020   3.596   0.661
 5267TIP3    H137436   6.031   3.563   0.754
 5267TIP3    H237437   5.944   3.539   0.632
 5268TIP3   OH237438   6.984   3.647   0.188
 5268TIP3    H137439   7.012   3.568   0.136
 5268TIP3    H237440   6.970   3.608   0.278
 5269TIP3   OH237441   6.907   3.598   0.438
 5269TIP3    H137442   6.814   3.623   0.460
 5269TIP3    H237443   6.940   3.561   0.521
 5270TIP3   OH237444   7.171   2.568   1.672
 5270TIP3    H137445   7.173   2.544   1.578
 5270TIP3    H237446   7.252   2.525   1.703
 5271TIP3   OH237447   5.959   3.173   1.466
 5271TIP3    H137448   5.947   3.144   1.557
 5271TIP3    H237449   5.874   3.142   1.424
 5272TIP3   OH237450   6.226   2.041   1.048
 5272TIP3    H137451   6.136   2.031   1.014
 5272TIP3    H237452   6.207   2.091   1.130
 5273TIP3   OH237453   6.702   1.985   1.378
 5273TIP3    H137454   6.740   1.934   1.453
 5273TIP3    H237455   6.605   1.976   1.392
 5274TIP3   OH237456   6.994   2.371   1.482
 5274TIP3    H137457   6.932   2.355   1.557
 5274TIP3    H237458   6.994   2.468   1.471
 5275TIP3   OH237459   7.080   2.895   0.107
 5275TIP3    H137460   7.095   2.912   0.013
 5275TIP3    H237461   7.122   2.975   0.144
 5276TIP3   OH237462   6.643   2.292   0.151
 5276TIP3    H137463   6.594   2.279   0.234
 5276TIP3    H237464   6.634   2.204   0.112
 5277TIP3   OH237465   6.233   2.506   1.192
 5277TIP3    H137466   6.157   2.521   1.253
 5277TIP3    H237467   6.245   2.597   1.158
 5278TIP3   OH237468   6.213   2.505   0.645
 5278TIP3    H137469   6.117   2.492   0.637
 5278TIP3    H237470   6.245   2.495   0.552
 5279TIP3   OH237471   6.796   2.625   0.565
 5279TIP3    H137472   6.746   2.688   0.508
 5279TIP3    H237473   6.855   2.582   0.499
 5280TIP3   OH237474   6.714   2.633   1.673
 5280TIP3    H137475   6.640   2.571   1.687
 5280TIP3    H237476   6.776   2.601   1.741
 5281TIP3   OH237477   6.854   2.547   0.854
 5281TIP3    H137478   6.826   2.613   0.788
 5281TIP3    H237479   6.865   2.468   0.796
 5282TIP3   OH237480   5.983   2.523   1.309
 5282TIP3    H137481   6.004   2.547   1.401
 5282TIP3    H237482   5.957   2.429   1.317
 5283TIP3   OH237483   6.315   2.302   0.081
 5283TIP3    H137484   6.272   2.251   0.154
 5283TIP3    H237485   6.303   2.395   0.105
 5284TIP3   OH237486   5.669   2.248   0.769
 5284TIP3    H137487   5.737   2.257   0.838
 5284TIP3    H237488   5.699   2.309   0.700
 5285TIP3   OH237489   5.779   2.314   0.268
 5285TIP3    H137490   5.859   2.356   0.233
 5285TIP3    H237491   5.725   2.387   0.306
 5286TIP3   OH237492   6.789   2.710   1.279
 5286TIP3    H137493   6.839   2.640   1.230
 5286TIP3    H237494   6.729   2.655   1.335
 5287TIP3   OH237495   6.519   2.272   0.772
 5287TIP3    H137496   6.429   2.286   0.809
 5287TIP3    H237497   6.570   2.246   0.851
 5288TIP3   OH237498   5.942   2.418   0.676
 5288TIP3    H137499   5.873   2.459   0.617
 5288TIP3    H237500   5.955   2.329   0.637
 5289TIP3   OH237501   6.299   2.468   0.395
 5289TIP3    H137502   6.394   2.486   0.398
 5289TIP3    H237503   6.268   2.515   0.315
 5290TIP3   OH237504   6.896   2.221   1.101
 5290TIP3    H137505   6.835   2.194   1.171
 5290TIP3    H237506   6.848   2.184   1.024
 5291TIP3   OH237507   6.211   2.578   0.163
 5291TIP3    H137508   6.158   2.547   0.088
 5291TIP3    H237509   6.290   2.618   0.120
 5292TIP3   OH237510   7.225   3.808   1.687
 5292TIP3    H137511   7.284   3.801   1.611
 5292TIP3    H237512   7.283   3.775   1.759
 5293TIP3   OH237513   5.999   3.020   1.709
 5293TIP3    H137514   6.036   3.094   1.759
 5293TIP3    H237515   5.912   3.008   1.754
 5294TIP3   OH237516   6.565   2.567   0.926
 5294TIP3    H137517   6.656   2.542   0.902
 5294TIP3    H237518   6.536   2.493   0.982
 5295TIP3   OH237519   6.052   2.164   0.615
 5295TIP3    H137520   5.994   2.102   0.663
 5295TIP3    H237521   6.083   2.108   0.542
 5296TIP3   OH237522   6.483   2.381   1.167
 5296TIP3    H137523   6.394   2.422   1.164
 5296TIP3    H237524   6.525   2.433   1.237
 5297TIP3   OH237525   6.523   3.031   0.397
 5297TIP3    H137526   6.450   2.980   0.356
 5297TIP3    H237527   6.480   3.057   0.482
 5298TIP3   OH237528   7.203   2.991   1.239
 5298TIP3    H137529   7.195   3.079   1.195
 5298TIP3    H237530   7.142   2.941   1.180
 5299TIP3   OH237531   6.907   2.320   0.190
 5299TIP3    H137532   6.809   2.319   0.185
 5299TIP3    H237533   6.923   2.407   0.232
 5300TIP3   OH237534   6.708   3.074   1.557
 5300TIP3    H137535   6.654   3.022   1.496
 5300TIP3    H237536   6.660   3.159   1.553
 5301TIP3   OH237537   6.975   2.522   0.369
 5301TIP3    H137538   7.056   2.485   0.412
 5301TIP3    H237539   7.008   2.608   0.340
 5302TIP3   OH237540   6.031   2.970   0.914
 5302TIP3    H137541   6.096   2.958   0.841
 5302TIP3    H237542   6.057   2.900   0.976
 5303TIP3   OH237543   6.720   3.168   0.291
 5303TIP3    H137544   6.674   3.252   0.312
 5303TIP3    H237545   6.654   3.102   0.321
 5304TIP3   OH237546   5.737   2.806   1.443
 5304TIP3    H137547   5.735   2.772   1.535
 5304TIP3    H237548   5.674   2.746   1.398
 5305TIP3   OH237549   6.940   3.309   1.517
 5305TIP3    H137550   6.856   3.319   1.470
 5305TIP3    H237551   6.911   3.339   1.605
 5306TIP3   OH237552   7.260   3.423   0.330
 5306TIP3    H137553   7.224   3.351   0.384
 5306TIP3    H237554   7.294   3.375   0.253
 5307TIP3   OH237555   7.008   2.856   1.076
 5307TIP3    H137556   6.915   2.846   1.047
 5307TIP3    H237557   7.048   2.777   1.033
 5308TIP3   OH237558   6.249   3.323   0.692
 5308TIP3    H137559   6.279   3.413   0.666
 5308TIP3    H237560   6.163   3.324   0.648
 5309TIP3   OH237561   5.831   2.786   0.123
 5309TIP3    H137562   5.886   2.834   0.187
 5309TIP3    H237563   5.739   2.807   0.151
 5310TIP3   OH237564   6.389   3.094   0.624
 5310TIP3    H137565   6.342   3.178   0.644
 5310TIP3    H237566   6.338   3.031   0.677
 5311TIP3   OH237567   6.457   3.505   1.285
 5311TIP3    H137568   6.520   3.572   1.253
 5311TIP3    H237569   6.518   3.446   1.332
 5312TIP3   OH237570   6.272   3.568   0.581
 5312TIP3    H137571   6.176   3.580   0.603
 5312TIP3    H237572   6.306   3.650   0.622
 5313TIP3   OH237573   6.800   3.069   1.261
 5313TIP3    H137574   6.818   3.056   1.355
 5313TIP3    H237575   6.833   2.984   1.226
 5314TIP3   OH237576   7.053   3.223   0.194
 5314TIP3    H137577   7.062   3.179   0.282
 5314TIP3    H237578   6.966   3.192   0.167
 5315TIP3   OH237579   7.137   3.530   1.462
 5315TIP3    H137580   7.064   3.464   1.472
 5315TIP3    H237581   7.103   3.591   1.395
 5316TIP3   OH237582   5.944   2.263   1.424
 5316TIP3    H137583   5.873   2.315   1.467
 5316TIP3    H237584   5.936   2.182   1.476
 5317TIP3   OH237585   7.160   3.066   0.382
 5317TIP3    H137586   7.149   2.985   0.436
 5317TIP3    H237587   7.254   3.088   0.401
 5318TIP3   OH237588   5.865   3.442   1.257
 5318TIP3    H137589   5.926   3.368   1.271
 5318TIP3    H237590   5.882   3.497   1.334
 5319TIP3   OH237591   6.335   3.269   0.244
 5319TIP3    H137592   6.405   3.234   0.302
 5319TIP3    H237593   6.336   3.365   0.269
 5320TIP3   OH237594   5.977   2.976   0.287
 5320TIP3    H137595   5.914   3.022   0.347
 5320TIP3    H237596   6.033   3.050   0.256
 5321TIP3   OH237597   6.756   2.268   1.359
 5321TIP3    H137598   6.847   2.294   1.382
 5321TIP3    H237599   6.750   2.173   1.386
 5322TIP3   OH237600   6.838   2.211   0.474
 5322TIP3    H137601   6.878   2.275   0.414
 5322TIP3    H237602   6.907   2.203   0.542
 5323TIP3   OH237603   6.600   3.411   0.341
 5323TIP3    H137604   6.528   3.475   0.350
 5323TIP3    H237605   6.658   3.457   0.277
 5324TIP3   OH237606   6.580   2.392   0.517
 5324TIP3    H137607   6.636   2.472   0.523
 5324TIP3    H237608   6.561   2.367   0.609
 5325TIP3   OH237609   6.649   2.509   1.410
 5325TIP3    H137610   6.688   2.518   1.499
 5325TIP3    H237611   6.677   2.419   1.383
 5326TIP3   OH237612   6.635   2.079   0.588
 5326TIP3    H137613   6.603   2.136   0.660
 5326TIP3    H237614   6.708   2.135   0.551
 5327TIP3   OH237615   6.348   3.530   0.316
 5327TIP3    H137616   6.378   3.613   0.273
 5327TIP3    H237617   6.305   3.563   0.398
 5328TIP3   OH237618   6.204   2.198   0.316
 5328TIP3    H137619   6.210   2.278   0.372
 5328TIP3    H237620   6.285   2.151   0.343
 5329TIP3   OH237621   7.236   2.213   1.518
 5329TIP3    H137622   7.147   2.253   1.527
 5329TIP3    H237623   7.260   2.244   1.429
 5330TIP3   OH237624   7.107   2.640   0.942
 5330TIP3    H137625   7.018   2.630   0.905
 5330TIP3    H237626   7.126   2.549   0.969
 5331TIP3   OH237627   6.050   3.243   0.155
 5331TIP3    H137628   6.128   3.281   0.199
 5331TIP3    H237629   6.094   3.188   0.088
 5332TIP3   OH237630   5.906   2.509   0.115
 5332TIP3    H137631   5.901   2.584   0.177
 5332TIP3    H237632   5.819   2.469   0.116
 5333TIP3   OH237633   7.257   3.590   1.112
 5333TIP3    H137634   7.230   3.655   1.044
 5333TIP3    H237635   7.337   3.557   1.070
 5334TIP3   OH237636   5.966   1.998   0.988
 5334TIP3    H137637   5.951   1.975   0.893
 5334TIP3    H237638   5.934   1.914   1.028
 5335TIP3   OH237639   5.851   3.394   0.576
 5335TIP3    H137640   5.767   3.382   0.622
 5335TIP3    H237641   5.821   3.436   0.492
 5336TIP3   OH237642   5.742   3.667   1.700
 5336TIP3    H137643   5.832   3.652   1.734
 5336TIP3    H237644   5.705   3.577   1.701
 5337TIP3   OH237645   6.230   3.559   1.835
 5337TIP3    H137646   6.313   3.529   1.877
 5337TIP3    H237647   6.218   3.499   1.760
 5338TIP3   OH237648   6.726   3.522   0.118
 5338TIP3    H137649   6.664   3.464   0.070
 5338TIP3    H237650   6.782   3.553   0.044
 5339TIP3   OH237651   6.856   3.414   1.755
 5339TIP3    H137652   6.829   3.331   1.800
 5339TIP3    H237653   6.939   3.432   1.805
 5340TIP3   OH237654   7.118   3.460   0.032
 5340TIP3    H137655   7.110   3.409   0.115
 5340TIP3    H237656   7.208   3.495   0.037
 5341TIP3   OH237657   5.735   3.026   1.792
 5341TIP3    H137658   5.670   2.963   1.828
 5341TIP3    H237659   5.688   3.061   1.713
 5342TIP3   OH237660   6.220   3.024   0.037
 5342TIP3    H137661   6.288   3.039   0.105
 5342TIP3    H237662   6.276   2.995  -0.038
 5343TIP3   OH237663   6.969   3.003   1.496
 5343TIP3    H137664   7.040   3.060   1.530
 5343TIP3    H237665   6.892   3.054   1.528
 5344TIP3   OH237666   5.823   2.760   1.696
 5344TIP3    H137667   5.802   2.674   1.736
 5344TIP3    H237668   5.860   2.806   1.773
 5345TIP3   OH237669   6.346   2.874   0.257
 5345TIP3    H137670   6.265   2.830   0.287
 5345TIP3    H237671   6.383   2.806   0.197
 5346TIP3   OH237672   6.220   2.633   1.455
 5346TIP3    H137673   6.162   2.709   1.474
 5346TIP3    H237674   6.299   2.679   1.420
 5347TIP3   OH237675   6.451   2.689   0.076
 5347TIP3    H137676   6.463   2.700  -0.019
 5347TIP3    H237677   6.544   2.698   0.111
 5348TIP3   OH237678   6.708   2.904   1.855
 5348TIP3    H137679   6.734   2.925   1.764
 5348TIP3    H237680   6.695   2.808   1.842
 5349TIP3   OH237681   6.267   2.375   1.574
 5349TIP3    H137682   6.305   2.315   1.507
 5349TIP3    H237683   6.253   2.456   1.521
 5350TIP3   OH237684   6.352   2.229   1.360
 5350TIP3    H137685   6.404   2.265   1.286
 5350TIP3    H237686   6.260   2.244   1.329
 5351TIP3   OH237687   6.434   2.810   1.359
 5351TIP3    H137688   6.518   2.846   1.326
 5351TIP3    H237689   6.368   2.867   1.314
 5352TIP3   OH237690   6.902   2.520   1.842
 5352TIP3    H137691   6.874   2.437   1.797
 5352TIP3    H237692   6.986   2.532   1.792
 5353TIP3   OH237693   6.135   2.544   1.805
 5353TIP3    H137694   6.057   2.490   1.785
 5353TIP3    H237695   6.206   2.491   1.765
 5354TIP3   OH237696   6.433   1.952   1.361
 5354TIP3    H137697   6.402   2.045   1.355
 5354TIP3    H237698   6.357   1.904   1.323
 5355TIP3   OH237699   6.534   2.382   1.765
 5355TIP3    H137700   6.501   2.336   1.845
 5355TIP3    H237701   6.475   2.343   1.699
 5356TIP3   OH237702   6.832   2.304   1.690
 5356TIP3    H137703   6.736   2.293   1.685
 5356TIP3    H237704   6.854   2.236   1.758
 5357TIP3   OH237705   6.899   2.140   1.894
 5357TIP3    H137706   6.878   2.047   1.869
 5357TIP3    H237707   6.981   2.125   1.943
 5358TIP3   OH237708   5.939   2.300   1.762
 5358TIP3    H137709   5.939   2.211   1.723
 5358TIP3    H237710   5.983   2.286   1.848
 5359TIP3   OH237711   6.407   1.914   1.631
 5359TIP3    H137712   6.502   1.893   1.641
 5359TIP3    H237713   6.403   1.926   1.534
 5360TIP3   OH237714   6.462   2.115   1.798
 5360TIP3    H137715   6.419   2.046   1.745
 5360TIP3    H237716   6.396   2.144   1.865
 5361TIP3   OH237717   6.397   3.770   0.173
 5361TIP3    H137718   6.483   3.815   0.171
 5361TIP3    H237719   6.339   3.830   0.126
 5362TIP3   OH237720   5.761   3.206   0.134
 5362TIP3    H137721   5.858   3.217   0.135
 5362TIP3    H237722   5.750   3.171   0.044
 5363TIP3   OH237723   5.642   3.733   0.638
 5363TIP3    H137724   5.579   3.679   0.585
 5363TIP3    H237725   5.667   3.664   0.704
 5364TIP3   OH237726   5.704   3.542   0.813
 5364TIP3    H137727   5.639   3.476   0.777
 5364TIP3    H237728   5.680   3.536   0.906
 5365TIP3   OH237729   7.252   3.148   1.914
 5365TIP3    H137730   7.164   3.141   1.955
 5365TIP3    H237731   7.300   3.209   1.975
 5366TIP3   OH237732   7.270   3.331   1.329
 5366TIP3    H137733   7.229   3.416   1.358
 5366TIP3    H237734   7.242   3.328   1.235
 5367TIP3   OH237735   7.321   2.480   0.108
 5367TIP3    H137736   7.313   2.538   0.032
 5367TIP3    H237737   7.273   2.402   0.073
 5368TIP3   OH237738   7.190   2.655   0.672
 5368TIP3    H137739   7.198   2.567   0.710
 5368TIP3    H237740   7.205   2.711   0.750
 5369TIP3   OH237741   5.720   2.890   1.071
 5369TIP3    H137742   5.721   2.856   0.979
 5369TIP3    H237743   5.809   2.860   1.102
 5370TIP3   OH237744   7.285   2.861   1.677
 5370TIP3    H137745   7.281   2.777   1.629
 5370TIP3    H237746   7.313   2.924   1.610
 5371TIP3   OH237747   7.151   2.291  -0.001
 5371TIP3    H137748   7.209   2.218   0.024
 5371TIP3    H237749   7.068   2.268   0.044
 5372TIP3   OH237750   7.177   2.377   0.487
 5372TIP3    H137751   7.199   2.305   0.550
 5372TIP3    H237752   7.266   2.410   0.465
 5373TIP3   OH237753   7.261   2.409   1.098
 5373TIP3    H137754   7.321   2.391   1.024
 5373TIP3    H237755   7.291   2.498   1.128
 5374TIP3   OH237756   7.279   2.580   1.393
 5374TIP3    H137757   7.181   2.579   1.392
 5374TIP3    H237758   7.296   2.608   1.302
 5375TIP3   OH237759   5.679   2.372   1.682
 5375TIP3    H137760   5.767   2.374   1.727
 5375TIP3    H237761   5.635   2.301   1.731
 5376TIP3   OH237762   7.186   2.119   0.578
 5376TIP3    H137763   7.281   2.099   0.573
 5376TIP3    H237764   7.147   2.046   0.524
 5377TIP3   OH237765   5.839   2.230   1.031
 5377TIP3    H137766   5.882   2.142   1.016
 5377TIP3    H237767   5.911   2.293   1.016
 5378TIP3   OH237768   5.673   2.525   1.093
 5378TIP3    H137769   5.724   2.496   1.016
 5378TIP3    H237770   5.717   2.608   1.111
 5379TIP3   OH237771   5.697   2.165   0.477
 5379TIP3    H137772   5.605   2.178   0.502
 5379TIP3    H237773   5.699   2.193   0.384
 5380TIP3   OH237774   7.122   3.626   0.629
 5380TIP3    H137775   7.206   3.580   0.613
 5380TIP3    H237776   7.134   3.671   0.714
 5381TIP3   OH237777   5.667   2.023   1.299
 5381TIP3    H137778   5.604   1.990   1.365
 5381TIP3    H237779   5.615   2.089   1.248
 5382TIP3   OH237780   5.874   3.342   1.740
 5382TIP3    H137781   5.796   3.376   1.694
 5382TIP3    H237782   5.845   3.339   1.833
 5383TIP3   OH237783   6.178   3.475   1.361
 5383TIP3    H137784   6.181   3.570   1.335
 5383TIP3    H237785   6.271   3.454   1.344
 5384TIP3   OH237786   6.653   3.643   1.614
 5384TIP3    H137787   6.656   3.561   1.665
 5384TIP3    H237788   6.747   3.658   1.594
 5385TIP3   OH237789   6.906   3.753   1.585
 5385TIP3    H137790   6.978   3.697   1.551
 5385TIP3    H237791   6.950   3.804   1.653
 5386TIP3   OH237792   5.936   3.784   1.349
 5386TIP3    H137793   5.870   3.853   1.327
 5386TIP3    H237794   5.947   3.807   1.444
 5387TIP3   OH237795   6.186   3.727   1.258
 5387TIP3    H137796   6.094   3.747   1.291
 5387TIP3    H237797   6.189   3.782   1.178
 5388TIP3   OH237798   6.664   3.654   1.177
 5388TIP3    H137799   6.621   3.686   1.096
 5388TIP3    H237800   6.662   3.735   1.232
 5389TIP3   OH237801   6.877   3.549   1.318
 5389TIP3    H137802   6.795   3.565   1.265
 5389TIP3    H237803   6.933   3.616   1.276
 5390TIP3   OH237804   7.125   3.751   1.273
 5390TIP3    H137805   7.206   3.804   1.281
 5390TIP3    H237806   7.149   3.695   1.196
 5391TIP3   OH237807   5.888   3.634   1.057
 5391TIP3    H137808   5.871   3.570   1.129
 5391TIP3    H237809   5.969   3.596   1.016
 5392TIP3   OH237810   6.098   3.521   0.920
 5392TIP3    H137811   6.082   3.427   0.939
 5392TIP3    H237812   6.183   3.532   0.968
 5393TIP3   OH237813   6.322   3.501   1.059
 5393TIP3    H137814   6.340   3.410   1.033
 5393TIP3    H237815   6.363   3.506   1.149
 5394TIP3   OH237816   6.699   2.080   0.925
 5394TIP3    H137817   6.610   2.037   0.920
 5394TIP3    H237818   6.754   2.018   0.875
 5395TIP3   OH237819   7.235   1.893   0.909
 5395TIP3    H137820   7.280   1.976   0.889
 5395TIP3    H237821   7.142   1.925   0.901
 5396TIP3   OH237822   5.915   1.936   0.720
 5396TIP3    H137823   5.835   1.919   0.665
 5396TIP3    H237824   5.968   1.855   0.704
 5397TIP3   OH237825   5.793   1.940   0.267
 5397TIP3    H137826   5.851   1.999   0.213
 5397TIP3    H237827   5.759   2.000   0.336
 5398TIP3   OH237828   6.319   1.951   0.685
 5398TIP3    H137829   6.410   1.952   0.653
 5398TIP3    H237830   6.317   2.029   0.741
 5399TIP3   OH237831   6.999   1.965   0.825
 5399TIP3    H137832   6.972   1.998   0.739
 5399TIP3    H237833   6.932   1.893   0.843
 5400TIP3   OH237834   7.050   1.939   0.415
 5400TIP3    H137835   6.970   1.973   0.371
 5400TIP3    H237836   7.030   1.844   0.423
 5401TIP3   OH237837   5.783   3.549   0.365
 5401TIP3    H137838   5.698   3.544   0.318
 5401TIP3    H237839   5.807   3.640   0.345
 5402TIP3   OH237840   5.971   2.078   0.123
 5402TIP3    H137841   6.051   2.023   0.117
 5402TIP3    H237842   6.001   2.150   0.179
 5403TIP3   OH237843   6.503   2.181   0.369
 5403TIP3    H137844   6.549   2.124   0.433
 5403TIP3    H237845   6.517   2.267   0.416
 5404TIP3   OH237846   6.730   3.776   0.193
 5404TIP3    H137847   6.827   3.781   0.204
 5404TIP3    H237848   6.723   3.682   0.164
 5405TIP3   OH237849   5.899   2.025   1.607
 5405TIP3    H137850   5.836   1.954   1.627
 5405TIP3    H237851   5.969   2.006   1.676
 5406TIP3   OH237852   6.092   1.971   1.794
 5406TIP3    H137853   6.183   1.946   1.776
 5406TIP3    H237854   6.072   1.915   1.872
 5407TIP3   OH237855   6.001   3.667   0.060
 5407TIP3    H137856   5.937   3.696   0.127
 5407TIP3    H237857   6.043   3.589   0.100
 5408TIP3   OH237858   6.972   1.890   1.841
 5408TIP3    H137859   7.002   1.879   1.935
 5408TIP3    H237860   7.058   1.877   1.796
 5409TIP3   OH237861   7.235   3.524   1.706
 5409TIP3    H137862   7.221   3.477   1.622
 5409TIP3    H237863   7.232   3.614   1.670
 5410TIP3   OH237864   1.221   4.800   0.683
 5410TIP3    H137865   1.219   4.899   0.687
 5410TIP3    H237866   1.142   4.788   0.627
 5411TIP3   OH237867   1.079   4.654   1.014
 5411TIP3    H137868   1.066   4.610   1.100
 5411TIP3    H237869   1.011   4.615   0.958
 5412TIP3   OH237870   0.306   4.698   1.132
 5412TIP3    H137871   0.326   4.617   1.181
 5412TIP3    H237872   0.382   4.753   1.155
 5413TIP3   OH237873   1.404   4.985   0.877
 5413TIP3    H137874   1.375   4.918   0.941
 5413TIP3    H237875   1.436   5.054   0.938
 5414TIP3   OH237876   0.381   5.117   1.006
 5414TIP3    H137877   0.362   5.026   0.976
 5414TIP3    H237878   0.478   5.113   1.006
 5415TIP3   OH237879   0.097   4.460   0.557
 5415TIP3    H137880   0.022   4.518   0.579
 5415TIP3    H237881   0.046   4.378   0.560
 5416TIP3   OH237882   0.080   4.683   0.823
 5416TIP3    H137883   0.092   4.586   0.828
 5416TIP3    H237884   0.137   4.709   0.750
 5417TIP3   OH237885   1.161   5.534   0.866
 5417TIP3    H137886   1.224   5.478   0.813
 5417TIP3    H237887   1.125   5.465   0.923
 5418TIP3   OH237888   0.903   4.924   1.121
 5418TIP3    H137889   0.942   4.910   1.034
 5418TIP3    H237890   0.982   4.946   1.174
 5419TIP3   OH237891   1.757   4.083   1.133
 5419TIP3    H137892   1.761   4.138   1.214
 5419TIP3    H237893   1.840   4.108   1.090
 5420TIP3   OH237894   1.266   4.401   1.139
 5420TIP3    H137895   1.280   4.311   1.173
 5420TIP3    H237896   1.245   4.383   1.046
 5421TIP3   OH237897   0.572   4.159   0.795
 5421TIP3    H137898   0.573   4.246   0.750
 5421TIP3    H237899   0.521   4.106   0.730
 5422TIP3   OH237900   1.298   4.201   0.666
 5422TIP3    H137901   1.357   4.170   0.738
 5422TIP3    H237902   1.353   4.270   0.626
 5423TIP3   OH237903   0.155   4.426   0.863
 5423TIP3    H137904   0.206   4.363   0.915
 5423TIP3    H237905   0.195   4.411   0.775
 5424TIP3   OH237906   0.682   4.581   0.850
 5424TIP3    H137907   0.769   4.544   0.877
 5424TIP3    H237908   0.655   4.510   0.788
 5425TIP3   OH237909   1.781   4.230   1.368
 5425TIP3    H137910   1.744   4.311   1.326
 5425TIP3    H237911   1.814   4.272   1.449
 5426TIP3   OH237912   0.423   4.108   1.216
 5426TIP3    H137913   0.403   4.162   1.136
 5426TIP3    H237914   0.351   4.140   1.274
 5427TIP3   OH237915   1.129   5.023   0.571
 5427TIP3    H137916   1.103   5.026   0.478
 5427TIP3    H237917   1.098   5.112   0.602
 5428TIP3   OH237918   0.665   4.845   1.206
 5428TIP3    H137919   0.610   4.917   1.243
 5428TIP3    H237920   0.742   4.897   1.173
 5429TIP3   OH237921   1.501   4.134   0.849
 5429TIP3    H137922   1.494   4.076   0.926
 5429TIP3    H237923   1.576   4.189   0.875
 5430TIP3   OH237924   0.380   4.278   1.015
 5430TIP3    H137925   0.431   4.354   1.050
 5430TIP3    H237926   0.437   4.248   0.941
 5431TIP3   OH237927   0.538   5.061   1.292
 5431TIP3    H137928   0.521   5.154   1.269
 5431TIP3    H237929   0.455   5.043   1.342
 5432TIP3   OH237930   0.103   5.024   0.395
 5432TIP3    H137931   0.106   5.072   0.309
 5432TIP3    H237932   0.143   5.084   0.461
 5433TIP3   OH237933   1.485   5.184   1.067
 5433TIP3    H137934   1.391   5.207   1.090
 5433TIP3    H237935   1.513   5.270   1.031
 5434TIP3   OH237936   1.495   4.011   1.203
 5434TIP3    H137937   1.416   4.026   1.148
 5434TIP3    H237938   1.564   4.053   1.148
 5435TIP3   OH237939   0.768   3.823   0.961
 5435TIP3    H137940   0.722   3.738   0.968
 5435TIP3    H237941   0.692   3.882   0.988
 5436TIP3   OH237942   1.316   5.379   0.714
 5436TIP3    H137943   1.344   5.292   0.678
 5436TIP3    H237944   1.397   5.434   0.701
 5437TIP3   OH237945   1.409   5.143   0.584
 5437TIP3    H137946   1.408   5.069   0.521
 5437TIP3    H237947   1.403   5.096   0.668
 5438TIP3   OH237948   1.595   5.026   1.458
 5438TIP3    H137949   1.610   4.952   1.394
 5438TIP3    H237950   1.610   5.101   1.397
 5439TIP3   OH237951   1.043   4.696   0.417
 5439TIP3    H137952   0.981   4.772   0.412
 5439TIP3    H237953   1.126   4.736   0.381
 5440TIP3   OH237954   1.023   4.630   0.148
 5440TIP3    H137955   1.048   4.634   0.243
 5440TIP3    H237956   1.073   4.552   0.118
 5441TIP3   OH237957   1.791   4.669   1.256
 5441TIP3    H137958   1.716   4.730   1.239
 5441TIP3    H237959   1.854   4.705   1.190
 5442TIP3   OH237960   1.436   4.694   0.533
 5442TIP3    H137961   1.367   4.734   0.591
 5442TIP3    H237962   1.499   4.662   0.601
 5443TIP3   OH237963   1.421   4.540   1.450
 5443TIP3    H137964   1.385   4.618   1.496
 5443TIP3    H237965   1.367   4.541   1.370
 5444TIP3   OH237966   0.547   4.762   0.703
 5444TIP3    H137967   0.534   4.714   0.619
 5444TIP3    H237968   0.602   4.699   0.754
 5445TIP3   OH237969   0.691   5.124   0.966
 5445TIP3    H137970   0.694   5.115   0.869
 5445TIP3    H237971   0.766   5.072   0.999
 5446TIP3   OH237972   0.582   4.632   1.088
 5446TIP3    H137973   0.620   4.632   0.997
 5446TIP3    H237974   0.630   4.710   1.129
 5447TIP3   OH237975   1.234   5.230   1.138
 5447TIP3    H137976   1.183   5.291   1.194
 5447TIP3    H237977   1.218   5.145   1.182
 5448TIP3   OH237978   0.680   5.070   1.525
 5448TIP3    H137979   0.611   5.125   1.570
 5448TIP3    H237980   0.636   5.052   1.438
 5449TIP3   OH237981   1.286   4.686   0.313
 5449TIP3    H137982   1.342   4.677   0.394
 5449TIP3    H237983   1.349   4.724   0.249
 5450TIP3   OH237984   0.401   4.684   1.458
 5450TIP3    H137985   0.403   4.763   1.513
 5450TIP3    H237986   0.305   4.679   1.437
 5451TIP3   OH237987   1.035   5.263   0.649
 5451TIP3    H137988   1.064   5.326   0.716
 5451TIP3    H237989   0.994   5.318   0.581
 5452TIP3   OH237990   0.507   5.253   1.615
 5452TIP3    H137991   0.474   5.299   1.535
 5452TIP3    H237992   0.422   5.229   1.658
 5453TIP3   OH237993   1.685   3.799   0.333
 5453TIP3    H137994   1.589   3.816   0.338
 5453TIP3    H237995   1.714   3.878   0.286
 5454TIP3   OH237996   0.451   4.663   0.443
 5454TIP3    H137997   0.397   4.740   0.413
 5454TIP3    H237998   0.382   4.596   0.452
 5455TIP3   OH237999   1.773   5.236   0.142
 5455TIP3    H138000   1.806   5.327   0.135
 5455TIP3    H238001   1.857   5.185   0.142
 5456TIP3   OH238002   0.132   4.957   1.311
 5456TIP3    H138003   0.046   4.985   1.276
 5456TIP3    H238004   0.118   4.863   1.329
 5457TIP3   OH238005   0.105   5.238   0.971
 5457TIP3    H138006   0.188   5.186   0.974
 5457TIP3    H238007   0.083   5.239   1.065
 5458TIP3   OH238008   1.863   5.264   1.600
 5458TIP3    H138009   1.842   5.170   1.603
 5458TIP3    H238010   1.782   5.299   1.645
 5459TIP3   OH238011   0.944   5.201   1.488
 5459TIP3    H138012   0.952   5.289   1.532
 5459TIP3    H238013   0.849   5.180   1.495
 5460TIP3   OH238014   1.003   5.593   0.424
 5460TIP3    H138015   1.000   5.624   0.331
 5460TIP3    H238016   1.006   5.678   0.472
 5461TIP3   OH238017   0.393   5.483   0.658
 5461TIP3    H138018   0.417   5.461   0.751
 5461TIP3    H238019   0.326   5.413   0.640
 5462TIP3   OH238020   1.323   5.518   0.134
 5462TIP3    H138021   1.389   5.446   0.143
 5462TIP3    H238022   1.296   5.528   0.227
 5463TIP3   OH238023   1.276   5.522   0.456
 5463TIP3    H138024   1.182   5.545   0.464
 5463TIP3    H238025   1.280   5.437   0.504
 5464TIP3   OH238026   1.560   4.419   1.647
 5464TIP3    H138027   1.491   4.454   1.587
 5464TIP3    H238028   1.553   4.322   1.634
 5465TIP3   OH238029   0.323   5.083   1.449
 5465TIP3    H138030   0.311   5.061   1.544
 5465TIP3    H238031   0.238   5.048   1.413
 5466TIP3   OH238032   0.556   3.940   1.052
 5466TIP3    H138033   0.469   3.939   1.009
 5466TIP3    H238034   0.537   3.992   1.132
 5467TIP3   OH238035   1.037   3.880   1.376
 5467TIP3    H138036   1.077   3.835   1.453
 5467TIP3    H238037   0.939   3.867   1.388
 5468TIP3   OH238038   1.324   4.269   1.504
 5468TIP3    H138039   1.284   4.219   1.581
 5468TIP3    H238040   1.285   4.356   1.519
 5469TIP3   OH238041   1.448   4.768   0.122
 5469TIP3    H138042   1.419   4.779   0.030
 5469TIP3    H238043   1.526   4.826   0.126
 5470TIP3   OH238044   1.004   4.180   0.124
 5470TIP3    H138045   0.967   4.203   0.211
 5470TIP3    H238046   0.961   4.095   0.107
 5471TIP3   OH238047   0.570   4.392   1.191
 5471TIP3    H138048   0.480   4.402   1.227
 5471TIP3    H238049   0.587   4.485   1.162
 5472TIP3   OH238050   0.585   4.398   0.670
 5472TIP3    H138051   0.486   4.397   0.667
 5472TIP3    H238052   0.604   4.373   0.576
 5473TIP3   OH238053   1.136   4.487   0.550
 5473TIP3    H138054   1.097   4.565   0.503
 5473TIP3    H238055   1.198   4.456   0.482
 5474TIP3   OH238056   1.026   4.494   1.681
 5474TIP3    H138057   0.966   4.422   1.712
 5474TIP3    H238058   1.072   4.518   1.764
 5475TIP3   OH238059   1.219   4.441   0.854
 5475TIP3    H138060   1.202   4.529   0.813
 5475TIP3    H238061   1.209   4.386   0.775
 5476TIP3   OH238062   0.290   4.400   1.270
 5476TIP3    H138063   0.207   4.451   1.261
 5476TIP3    H238064   0.257   4.317   1.314
 5477TIP3   OH238065   0.661   4.207   0.087
 5477TIP3    H138066   0.637   4.140   0.154
 5477TIP3    H238067   0.630   4.289   0.130
 5478TIP3   OH238068   0.053   4.186   0.749
 5478TIP3    H138069   0.090   4.162   0.836
 5478TIP3    H238070   0.057   4.106   0.697
 5479TIP3   OH238071   0.140   4.267   0.283
 5479TIP3    H138072   0.171   4.243   0.195
 5479TIP3    H238073   0.075   4.339   0.264
 5480TIP3   OH238074   1.112   4.564   1.275
 5480TIP3    H138075   1.183   4.510   1.234
 5480TIP3    H238076   1.063   4.494   1.325
 5481TIP3   OH238077   0.876   4.147   0.767
 5481TIP3    H138078   0.784   4.151   0.799
 5481TIP3    H238079   0.920   4.094   0.838
 5482TIP3   OH238080   0.332   4.330   0.630
 5482TIP3    H138081   0.263   4.352   0.565
 5482TIP3    H238082   0.346   4.234   0.614
 5483TIP3   OH238083   0.612   4.335   0.407
 5483TIP3    H138084   0.706   4.351   0.417
 5483TIP3    H238085   0.591   4.389   0.327
 5484TIP3   OH238086   1.276   4.093   1.077
 5484TIP3    H138087   1.211   4.095   1.152
 5484TIP3    H238088   1.231   4.040   1.011
 5485TIP3   OH238089   0.556   4.444   0.170
 5485TIP3    H138090   0.497   4.433   0.094
 5485TIP3    H238091   0.633   4.490   0.128
 5486TIP3   OH238092   1.549   5.662   1.754
 5486TIP3    H138093   1.584   5.699   1.670
 5486TIP3    H238094   1.624   5.680   1.813
 5487TIP3   OH238095   0.329   4.903   1.695
 5487TIP3    H138096   0.413   4.941   1.728
 5487TIP3    H238097   0.268   4.929   1.765
 5488TIP3   OH238098   0.904   4.419   0.911
 5488TIP3    H138099   1.000   4.402   0.920
 5488TIP3    H238100   0.864   4.352   0.969
 5489TIP3   OH238101   0.398   4.064   0.606
 5489TIP3    H138102   0.335   4.005   0.655
 5489TIP3    H238103   0.407   4.015   0.523
 5490TIP3   OH238104   0.801   4.260   1.212
 5490TIP3    H138105   0.720   4.315   1.201
 5490TIP3    H238106   0.859   4.320   1.259
 5491TIP3   OH238107   0.875   4.900   0.396
 5491TIP3    H138108   0.801   4.844   0.362
 5491TIP3    H238109   0.833   4.934   0.479
 5492TIP3   OH238110   1.609   4.869   1.243
 5492TIP3    H138111   1.661   4.929   1.184
 5492TIP3    H238112   1.529   4.855   1.189
 5493TIP3   OH238113   1.266   4.197   0.177
 5493TIP3    H138114   1.179   4.207   0.133
 5493TIP3    H238115   1.274   4.283   0.222
 5494TIP3   OH238116   1.007   4.938   1.533
 5494TIP3    H138117   0.964   4.917   1.617
 5494TIP3    H238118   0.977   5.029   1.516
 5495TIP3   OH238119   1.326   4.408   0.355
 5495TIP3    H138120   1.384   4.386   0.430
 5495TIP3    H238121   1.377   4.477   0.310
 5496TIP3   OH238122   0.367   4.864   0.903
 5496TIP3    H138123   0.424   4.836   0.828
 5496TIP3    H238124   0.376   4.787   0.961
 5497TIP3   OH238125   1.067   5.035   0.271
 5497TIP3    H138126   1.035   5.121   0.306
 5497TIP3    H238127   0.998   4.973   0.303
 5498TIP3   OH238128   0.118   4.640   1.415
 5498TIP3    H138129   0.068   4.651   1.500
 5498TIP3    H238130   0.050   4.657   1.347
 5499TIP3   OH238131   0.815   4.666   1.654
 5499TIP3    H138132   0.769   4.613   1.585
 5499TIP3    H238133   0.903   4.622   1.656
 5500TIP3   OH238134   1.271   5.176   1.521
 5500TIP3    H138135   1.198   5.187   1.459
 5500TIP3    H238136   1.235   5.218   1.601
 5501TIP3   OH238137   1.804   4.386   0.344
 5501TIP3    H138138   1.742   4.383   0.269
 5501TIP3    H238139   1.834   4.479   0.333
 5502TIP3   OH238140   1.823   4.977   1.589
 5502TIP3    H138141   1.741   5.010   1.545
 5502TIP3    H238142   1.885   4.972   1.513
 5503TIP3   OH238143   1.602   5.299   0.338
 5503TIP3    H138144   1.603   5.217   0.390
 5503TIP3    H238145   1.662   5.278   0.264
 5504TIP3   OH238146   1.358   4.780   1.069
 5504TIP3    H138147   1.268   4.752   1.049
 5504TIP3    H238148   1.408   4.709   1.023
 5505TIP3   OH238149   0.598   5.187   0.698
 5505TIP3    H138150   0.618   5.276   0.662
 5505TIP3    H238151   0.508   5.172   0.665
 5506TIP3   OH238152   0.172   4.634   0.138
 5506TIP3    H138153   0.233   4.697   0.180
 5506TIP3    H238154   0.098   4.633   0.199
 5507TIP3   OH238155   0.751   4.973   0.626
 5507TIP3    H138156   0.711   5.061   0.642
 5507TIP3    H238157   0.690   4.917   0.678
 5508TIP3   OH238158   0.822   5.379   1.317
 5508TIP3    H138159   0.883   5.450   1.290
 5508TIP3    H238160   0.879   5.328   1.378
 5509TIP3   OH238161   0.658   5.443   0.586
 5509TIP3    H138162   0.562   5.457   0.597
 5509TIP3    H238163   0.688   5.530   0.620
 5510TIP3   OH238164   1.135   4.978   1.252
 5510TIP3    H138165   1.116   4.966   1.348
 5510TIP3    H238166   1.210   4.918   1.238
 5511TIP3   OH238167   1.394   5.094   0.189
 5511TIP3    H138168   1.425   5.043   0.267
 5511TIP3    H238169   1.301   5.067   0.190
 5512TIP3   OH238170   1.451   5.418   1.494
 5512TIP3    H138171   1.362   5.376   1.497
 5512TIP3    H238172   1.443   5.477   1.416
 5513TIP3   OH238173   1.835   5.507   0.185
 5513TIP3    H138174   1.884   5.576   0.137
 5513TIP3    H238175   1.769   5.565   0.231
 5514TIP3   OH238176   0.214   4.186   1.425
 5514TIP3    H138177   0.159   4.220   1.498
 5514TIP3    H238178   0.188   4.092   1.428
 5515TIP3   OH238179   1.476   4.939   0.400
 5515TIP3    H138180   1.460   4.845   0.421
 5515TIP3    H238181   1.573   4.943   0.409
 5516TIP3   OH238182   0.223   5.336   1.242
 5516TIP3    H138183   0.267   5.252   1.261
 5516TIP3    H238184   0.191   5.364   1.328
 5517TIP3   OH238185   0.669   5.149   0.220
 5517TIP3    H138186   0.726   5.092   0.275
 5517TIP3    H238187   0.693   5.238   0.257
 5518TIP3   OH238188   0.293   4.843   0.314
 5518TIP3    H138189   0.222   4.899   0.353
 5518TIP3    H238190   0.339   4.906   0.257
 5519TIP3   OH238191   1.153   4.125   1.337
 5519TIP3    H138192   1.220   4.145   1.405
 5519TIP3    H238193   1.110   4.044   1.373
 5520TIP3   OH238194   1.182   4.107   0.442
 5520TIP3    H138195   1.233   4.135   0.364
 5520TIP3    H238196   1.227   4.153   0.516
 5521TIP3   OH238197   1.002   5.281   0.349
 5521TIP3    H138198   0.935   5.351   0.358
 5521TIP3    H238199   1.053   5.314   0.273
 5522TIP3   OH238200   0.919   4.300   0.545
 5522TIP3    H138201   0.988   4.367   0.566
 5522TIP3    H238202   0.904   4.255   0.631
 5523TIP3   OH238203   0.981   4.383   1.441
 5523TIP3    H138204   1.002   4.431   1.524
 5523TIP3    H238205   1.000   4.291   1.464
 5524TIP3   OH238206   0.991   3.961   0.572
 5524TIP3    H138207   0.957   4.024   0.638
 5524TIP3    H238208   1.067   4.013   0.534
 5525TIP3   OH238209   0.746   5.398   0.327
 5525TIP3    H138210   0.756   5.480   0.274
 5525TIP3    H238211   0.703   5.435   0.407
 5526TIP3   OH238212   0.538   4.066   0.299
 5526TIP3    H138213   0.510   4.143   0.351
 5526TIP3    H238214   0.631   4.061   0.330
 5527TIP3   OH238215   1.569   4.148   1.551
 5527TIP3    H138216   1.477   4.177   1.529
 5527TIP3    H238217   1.618   4.169   1.469
 5528TIP3   OH238218   1.471   4.543   0.926
 5528TIP3    H138219   1.395   4.484   0.940
 5528TIP3    H238220   1.542   4.496   0.973
 5529TIP3   OH238221   0.356   5.115   0.186
 5529TIP3    H138222   0.442   5.145   0.219
 5529TIP3    H238223   0.382   5.057   0.114
 5530TIP3   OH238224   0.262   4.387   0.058
 5530TIP3    H138225   0.260   4.476   0.098
 5530TIP3    H238226   0.170   4.362   0.068
 5531TIP3   OH238227   1.547   5.461   1.071
 5531TIP3    H138228   1.541   5.537   1.010
 5531TIP3    H238229   1.644   5.456   1.078
 5532TIP3   OH238230   0.295   3.879   0.977
 5532TIP3    H138231   0.288   3.867   0.880
 5532TIP3    H238232   0.283   3.786   1.008
 5533TIP3   OH238233   0.235   5.273   0.605
 5533TIP3    H138234   0.144   5.268   0.635
 5533TIP3    H238235   0.225   5.318   0.518
 5534TIP3   OH238236   0.131   5.528   1.651
 5534TIP3    H138237   0.187   5.514   1.730
 5534TIP3    H238238   0.069   5.451   1.661
 5535TIP3   OH238239   1.072   5.397   0.106
 5535TIP3    H138240   0.999   5.352   0.061
 5535TIP3    H238241   1.144   5.388   0.042
 5536TIP3   OH238242   1.222   5.310   1.753
 5536TIP3    H138243   1.203   5.216   1.777
 5536TIP3    H238244   1.315   5.315   1.784
 5537TIP3   OH238245   1.510   5.327   0.028
 5537TIP3    H138246   1.465   5.256   0.078
 5537TIP3    H238247   1.601   5.309   0.058
 5538TIP3   OH238248   0.542   4.918   0.062
 5538TIP3    H138249   0.604   4.926   0.136
 5538TIP3    H238250   0.603   4.897  -0.012
 5539TIP3   OH238251   0.779   4.947   1.739
 5539TIP3    H138252   0.753   4.983   1.651
 5539TIP3    H238253   0.776   4.850   1.723
 5540TIP3   OH238254   1.343   4.906   1.498
 5540TIP3    H138255   1.426   4.958   1.494
 5540TIP3    H238256   1.283   4.979   1.520
 5541TIP3   OH238257   0.673   4.764   0.279
 5541TIP3    H138258   0.601   4.726   0.334
 5541TIP3    H238259   0.682   4.696   0.211
 5542TIP3   OH238260   0.697   4.526   1.462
 5542TIP3    H138261   0.651   4.611   1.452
 5542TIP3    H238262   0.773   4.543   1.401
 5543TIP3   OH238263   0.764   4.577   0.068
 5543TIP3    H138264   0.788   4.596  -0.025
 5543TIP3    H238265   0.851   4.581   0.113
 5544TIP3   OH238266   1.108   4.773   1.822
 5544TIP3    H138267   1.188   4.774   1.766
 5544TIP3    H238268   1.129   4.700   1.884
 5545TIP3   OH238269   1.692   4.860   8.493
 5545TIP3    H138270   1.655   4.865   8.403
 5545TIP3    H238271   1.706   4.953   8.516
 5546TIP3   OH238272   0.626   4.278   1.566
 5546TIP3    H138273   0.657   4.207   1.505
 5546TIP3    H238274   0.691   4.348   1.545
 5547TIP3   OH238275   0.668   4.102   1.370
 5547TIP3    H138276   0.719   4.144   1.297
 5547TIP3    H238277   0.580   4.092   1.329
 5548TIP3   OH238278   0.855   4.643   1.286
 5548TIP3    H138279   0.949   4.637   1.310
 5548TIP3    H238280   0.852   4.734   1.250
 5549TIP3   OH238281   1.392   4.734   1.700
 5549TIP3    H138282   1.369   4.794   1.626
 5549TIP3    H238283   1.487   4.716   1.682
 5550TIP3   OH238284   0.445   4.404   1.778
 5550TIP3    H138285   0.363   4.358   1.802
 5550TIP3    H238286   0.505   4.330   1.756
 5551TIP3   OH238287   0.768   3.850   1.347
 5551TIP3    H138288   0.722   3.935   1.361
 5551TIP3    H238289   0.697   3.796   1.308
 5552TIP3   OH238290   0.857   4.291   1.745
 5552TIP3    H138291   0.895   4.256   1.829
 5552TIP3    H238292   0.795   4.221   1.721
 5553TIP3   OH238293   1.168   4.160   1.685
 5553TIP3    H138294   1.077   4.153   1.715
 5553TIP3    H238295   1.214   4.120   1.763
 5554TIP3   OH238296   0.266   4.196   1.788
 5554TIP3    H138297   0.304   4.120   1.740
 5554TIP3    H238298   0.229   4.152   1.867
 5555TIP3   OH238299   0.754   3.823   1.618
 5555TIP3    H138300   0.813   3.747   1.609
 5555TIP3    H238301   0.755   3.853   1.525
 5556TIP3   OH238302   0.758   3.901   1.893
 5556TIP3    H138303   0.777   3.859   1.807
 5556TIP3    H238304   0.690   3.963   1.865
 5557TIP3   OH238305   0.767   5.623   0.193
 5557TIP3    H138306   0.858   5.654   0.173
 5557TIP3    H238307   0.713   5.675   0.133
 5558TIP3   OH238308   0.058   5.106   0.131
 5558TIP3    H138309   0.153   5.126   0.134
 5558TIP3    H238310   0.047   5.070   0.042
 5559TIP3   OH238311   7.357   5.686   0.608
 5559TIP3    H138312   7.266   5.652   0.623
 5559TIP3    H238313   7.404   5.624   0.666
 5560TIP3   OH238314   0.094   5.465   0.801
 5560TIP3    H138315   0.104   5.371   0.828
 5560TIP3    H238316   0.141   5.509   0.875
 5561TIP3   OH238317   1.817   5.512   1.103
 5561TIP3    H138318   1.842   5.516   1.197
 5561TIP3    H238319   1.862   5.591   1.070
 5562TIP3   OH238320   1.779   5.467   1.387
 5562TIP3    H138321   1.741   5.395   1.332
 5562TIP3    H238322   1.805   5.415   1.465
 5563TIP3   OH238323   1.651   5.033   1.873
 5563TIP3    H138324   1.605   5.017   1.957
 5563TIP3    H238325   1.687   5.123   1.886
 5564TIP3   OH238326   1.758   4.892   0.401
 5564TIP3    H138327   1.844   4.938   0.415
 5564TIP3    H238328   1.760   4.831   0.477
 5565TIP3   OH238329   1.804   4.712   0.612
 5565TIP3    H138330   1.728   4.662   0.651
 5565TIP3    H238331   1.863   4.719   0.690
 5566TIP3   OH238332   1.775   4.982   1.078
 5566TIP3    H138333   1.840   4.910   1.062
 5566TIP3    H238334   1.826   5.061   1.049
 5567TIP3   OH238335   1.631   5.253   1.316
 5567TIP3    H138336   1.566   5.299   1.372
 5567TIP3    H238337   1.584   5.240   1.231
 5568TIP3   OH238338   1.794   4.648   0.221
 5568TIP3    H138339   1.736   4.681   0.150
 5568TIP3    H238340   1.784   4.716   0.289
 5569TIP3   OH238341   1.573   4.395   0.121
 5569TIP3    H138342   1.652   4.440   0.085
 5569TIP3    H238343   1.588   4.305   0.083
 5570TIP3   OH238344   1.609   4.551   0.698
 5570TIP3    H138345   1.572   4.467   0.665
 5570TIP3    H238346   1.568   4.556   0.788
 5571TIP3   OH238347   0.057   4.791   1.057
 5571TIP3    H138348   0.064   4.765   0.963
 5571TIP3    H238349   0.151   4.810   1.076
 5572TIP3   OH238350   1.662   4.730   1.609
 5572TIP3    H138351   1.725   4.655   1.610
 5572TIP3    H238352   1.717   4.802   1.575
 5573TIP3   OH238353   1.806   4.498   1.651
 5573TIP3    H138354   1.711   4.472   1.662
 5573TIP3    H238355   1.849   4.419   1.692
 5574TIP3   OH238356   1.585   4.161  -0.007
 5574TIP3    H138357   1.646   4.113   0.055
 5574TIP3    H238358   1.497   4.135   0.026
 5575TIP3   OH238359   1.523   4.331   0.528
 5575TIP3    H138360   1.558   4.244   0.558
 5575TIP3    H238361   1.567   4.333   0.441
 5576TIP3   OH238362   1.639   4.381   1.056
 5576TIP3    H138363   1.737   4.394   1.057
 5576TIP3    H238364   1.623   4.395   1.152
 5577TIP3   OH238365   1.638   4.448   1.317
 5577TIP3    H138366   1.564   4.469   1.378
 5577TIP3    H238367   1.678   4.537   1.305
 5578TIP3   OH238368   0.042   4.250   1.657
 5578TIP3    H138369   0.126   4.228   1.704
 5578TIP3    H238370  -0.022   4.237   1.728
 5579TIP3   OH238371   1.884   3.839   1.892
 5579TIP3    H138372   1.938   3.794   1.825
 5579TIP3    H238373   1.839   3.907   1.840
 5580TIP3   OH238374   1.611   4.069   0.529
 5580TIP3    H138375   1.645   4.015   0.603
 5580TIP3    H238376   1.560   4.004   0.480
 5581TIP3   OH238377   0.160   4.125   0.994
 5581TIP3    H138378   0.196   4.033   0.998
 5581TIP3    H238379   0.241   4.179   1.006
 5582TIP3   OH238380   0.055   4.526   1.124
 5582TIP3    H138381   0.111   4.501   1.049
 5582TIP3    H238382   0.037   4.618   1.097
 5583TIP3   OH238383   1.774   4.039   1.700
 5583TIP3    H138384   1.686   4.079   1.681
 5583TIP3    H238385   1.777   3.984   1.620
 5584TIP3   OH238386   1.770   4.053   0.157
 5584TIP3    H138387   1.816   4.000   0.090
 5584TIP3    H238388   1.842   4.112   0.187
 5585TIP3   OH238389   0.081   4.075   0.461
 5585TIP3    H138390  -0.011   4.098   0.480
 5585TIP3    H238391   0.106   4.149   0.400
 5586TIP3   OH238392   1.514   5.546   0.695
 5586TIP3    H138393   1.576   5.515   0.626
 5586TIP3    H238394   1.566   5.605   0.753
 5587TIP3   OH238395   0.040   3.874   1.309
 5587TIP3    H138396   0.002   3.912   1.389
 5587TIP3    H238397   0.017   3.939   1.239
 5588TIP3   OH238398   0.269   5.207   1.716
 5588TIP3    H138399   0.188   5.251   1.687
 5588TIP3    H238400   0.260   5.198   1.812
 5589TIP3   OH238401   0.551   5.378   1.368
 5589TIP3    H138402   0.547   5.469   1.332
 5589TIP3    H238403   0.647   5.360   1.364
 5590TIP3   OH238404   0.955   5.450   1.600
 5590TIP3    H138405   0.970   5.435   1.695
 5590TIP3    H238406   1.032   5.508   1.579
 5591TIP3   OH238407   1.167   5.626   1.576
 5591TIP3    H138408   1.230   5.602   1.505
 5591TIP3    H238409   1.228   5.659   1.643
 5592TIP3   OH238410   1.685   3.849   1.508
 5592TIP3    H138411   1.621   3.898   1.454
 5592TIP3    H238412   1.680   3.760   1.467
 5593TIP3   OH238413   0.306   5.670   1.337
 5593TIP3    H138414   0.218   5.691   1.298
 5593TIP3    H238415   0.280   5.651   1.428
 5594TIP3   OH238416   0.547   5.645   1.238
 5594TIP3    H138417   0.454   5.654   1.273
 5594TIP3    H238418   0.546   5.710   1.165
 5595TIP3   OH238419   0.998   5.573   1.167
 5595TIP3    H138420   0.942   5.615   1.100
 5595TIP3    H238421   1.009   5.647   1.232
 5596TIP3   OH238422   1.206   5.457   1.309
 5596TIP3    H138423   1.140   5.498   1.249
 5596TIP3    H238424   1.283   5.511   1.284
 5597TIP3   OH238425   1.461   5.587   1.291
 5597TIP3    H138426   1.489   5.671   1.251
 5597TIP3    H238427   1.495   5.525   1.222
 5598TIP3   OH238428   0.250   5.523   1.040
 5598TIP3    H138429   0.232   5.456   1.110
 5598TIP3    H238430   0.338   5.492   1.008
 5599TIP3   OH238431   0.457   5.412   0.908
 5599TIP3    H138432   0.433   5.322   0.936
 5599TIP3    H238433   0.542   5.422   0.956
 5600TIP3   OH238434   0.678   5.397   1.051
 5600TIP3    H138435   0.685   5.303   1.024
 5600TIP3    H238436   0.720   5.396   1.139
 5601TIP3   OH238437   0.981   3.970   0.938
 5601TIP3    H138438   0.900   3.914   0.952
 5601TIP3    H238439   1.040   3.913   0.888
 5602TIP3   OH238440   1.573   3.817   0.921
 5602TIP3    H138441   1.644   3.864   0.872
 5602TIP3    H238442   1.492   3.845   0.871
 5603TIP3   OH238443   1.740   3.917   0.727
 5603TIP3    H138444   1.809   3.862   0.684
 5603TIP3    H238445   1.791   4.000   0.744
 5604TIP3   OH238446   0.261   3.852   0.698
 5604TIP3    H138447   0.196   3.832   0.626
 5604TIP3    H238448   0.321   3.775   0.685
 5605TIP3   OH238449   0.235   3.839   0.301
 5605TIP3    H138450   0.238   3.913   0.237
 5605TIP3    H238451   0.142   3.846   0.330
 5606TIP3   OH238452   0.717   3.813   0.683
 5606TIP3    H138453   0.801   3.821   0.636
 5606TIP3    H238454   0.740   3.835   0.774
 5607TIP3   OH238455   1.319   3.858   0.823
 5607TIP3    H138456   1.284   3.883   0.737
 5607TIP3    H238457   1.266   3.779   0.846
 5608TIP3   OH238458   1.436   3.840   0.382
 5608TIP3    H138459   1.351   3.883   0.363
 5608TIP3    H238460   1.404   3.759   0.429
 5609TIP3   OH238461   0.175   5.449   0.378
 5609TIP3    H138462   0.082   5.440   0.348
 5609TIP3    H238463   0.188   5.542   0.351
 5610TIP3   OH238464   0.282   4.029   0.114
 5610TIP3    H138465   0.357   3.995   0.062
 5610TIP3    H238466   0.329   4.076   0.184
 5611TIP3   OH238467   0.820   4.093   0.373
 5611TIP3    H138468   0.881   4.035   0.422
 5611TIP3    H238469   0.844   4.177   0.416
 5612TIP3   OH238470   1.039   5.652   0.171
 5612TIP3    H138471   1.097   5.694   0.105
 5612TIP3    H238472   1.064   5.557   0.161
 5613TIP3   OH238473   1.685   5.478   0.507
 5613TIP3    H138474   1.659   5.411   0.438
 5613TIP3    H238475   1.693   5.557   0.448
 5614TIP3   OH238476   0.224   3.920   1.624
 5614TIP3    H138477   0.175   3.840   1.647
 5614TIP3    H238478   0.306   3.897   1.673
 5615TIP3   OH238479   0.426   3.813   1.812
 5615TIP3    H138480   0.516   3.777   1.823
 5615TIP3    H238481   0.377   3.756   1.875
 5616TIP3   OH238482   0.356   5.597   0.103
 5616TIP3    H138483   0.338   5.628   0.194
 5616TIP3    H238484   0.360   5.502   0.111
 5617TIP3   OH238485   1.276   3.752   1.792
 5617TIP3    H138486   1.252   3.747   1.885
 5617TIP3    H238487   1.372   3.770   1.796
 5618TIP3   OH238488   1.642   5.394   1.673
 5618TIP3    H138489   1.572   5.385   1.603
 5618TIP3    H238490   1.631   5.488   1.697
 5619TIP3   OH238491   3.094   4.783   0.679
 5619TIP3    H138492   3.076   4.879   0.684
 5619TIP3    H238493   3.011   4.751   0.640
 5620TIP3   OH238494   2.968   4.660   1.013
 5620TIP3    H138495   2.985   4.621   1.102
 5620TIP3    H238496   2.890   4.611   0.981
 5621TIP3   OH238497   2.161   4.648   1.162
 5621TIP3    H138498   2.166   4.589   1.239
 5621TIP3    H238499   2.219   4.721   1.189
 5622TIP3   OH238500   3.282   4.977   0.877
 5622TIP3    H138501   3.254   4.908   0.939
 5622TIP3    H238502   3.294   5.052   0.937
 5623TIP3   OH238503   2.293   5.149   0.970
 5623TIP3    H138504   2.257   5.059   0.958
 5623TIP3    H238505   2.389   5.125   0.960
 5624TIP3   OH238506   1.946   4.438   0.577
 5624TIP3    H138507   1.921   4.530   0.594
 5624TIP3    H238508   1.867   4.403   0.532
 5625TIP3   OH238509   1.999   4.689   0.825
 5625TIP3    H138510   2.034   4.597   0.839
 5625TIP3    H238511   2.080   4.743   0.818
 5626TIP3   OH238512   3.056   5.513   0.869
 5626TIP3    H138513   3.131   5.457   0.839
 5626TIP3    H238514   3.012   5.453   0.931
 5627TIP3   OH238515   2.782   4.957   1.102
 5627TIP3    H138516   2.808   4.898   1.030
 5627TIP3    H238517   2.870   4.973   1.142
 5628TIP3   OH238518   3.631   4.075   1.136
 5628TIP3    H138519   3.644   4.142   1.207
 5628TIP3    H238520   3.706   4.096   1.080
 5629TIP3   OH238521   3.146   4.390   1.131
 5629TIP3    H138522   3.146   4.297   1.160
 5629TIP3    H238523   3.136   4.375   1.035
 5630TIP3   OH238524   2.425   4.172   0.802
 5630TIP3    H138525   2.439   4.251   0.747
 5630TIP3    H238526   2.382   4.113   0.737
 5631TIP3   OH238527   3.199   4.192   0.655
 5631TIP3    H138528   3.245   4.177   0.740
 5631TIP3    H238529   3.243   4.274   0.626
 5632TIP3   OH238530   2.083   4.440   0.893
 5632TIP3    H138531   2.141   4.407   0.964
 5632TIP3    H238532   2.115   4.391   0.814
 5633TIP3   OH238533   2.553   4.586   0.834
 5633TIP3    H138534   2.637   4.545   0.865
 5633TIP3    H238535   2.525   4.519   0.769
 5634TIP3   OH238536   3.667   4.244   1.348
 5634TIP3    H138537   3.622   4.326   1.315
 5634TIP3    H238538   3.678   4.264   1.442
 5635TIP3   OH238539   2.348   4.085   1.237
 5635TIP3    H138540   2.304   4.134   1.164
 5635TIP3    H238541   2.286   4.102   1.310
 5636TIP3   OH238542   3.015   5.024   0.576
 5636TIP3    H138543   2.995   5.021   0.480
 5636TIP3    H238544   3.012   5.120   0.592
 5637TIP3   OH238545   2.540   4.848   1.210
 5637TIP3    H138546   2.485   4.920   1.247
 5637TIP3    H238547   2.615   4.898   1.171
 5638TIP3   OH238548   3.363   4.157   0.875
 5638TIP3    H138549   3.337   4.073   0.914
 5638TIP3    H238550   3.459   4.150   0.884
 5639TIP3   OH238551   2.276   4.275   1.027
 5639TIP3    H138552   2.335   4.342   1.068
 5639TIP3    H238553   2.326   4.252   0.945
 5640TIP3   OH238554   2.419   5.063   1.326
 5640TIP3    H138555   2.402   5.141   1.271
 5640TIP3    H238556   2.331   5.055   1.373
 5641TIP3   OH238557   2.011   5.004   0.414
 5641TIP3    H138558   1.996   5.049   0.328
 5641TIP3    H238559   2.032   5.082   0.471
 5642TIP3   OH238560   3.368   5.182   1.098
 5642TIP3    H138561   3.276   5.211   1.116
 5642TIP3    H238562   3.390   5.247   1.029
 5643TIP3   OH238563   3.379   4.049   1.201
 5643TIP3    H138564   3.336   4.119   1.151
 5643TIP3    H238565   3.473   4.061   1.174
 5644TIP3   OH238566   2.666   3.837   0.952
 5644TIP3    H138567   2.641   3.744   0.966
 5644TIP3    H238568   2.585   3.882   0.987
 5645TIP3   OH238569   3.248   5.333   0.800
 5645TIP3    H138570   3.204   5.290   0.723
 5645TIP3    H238571   3.312   5.391   0.752
 5646TIP3   OH238572   3.305   5.142   0.583
 5646TIP3    H138573   3.291   5.070   0.521
 5646TIP3    H238574   3.300   5.095   0.669
 5647TIP3   OH238575   3.459   5.008   1.468
 5647TIP3    H138576   3.470   4.931   1.408
 5647TIP3    H238577   3.487   5.079   1.408
 5648TIP3   OH238578   2.931   4.694   0.415
 5648TIP3    H138579   2.868   4.769   0.404
 5648TIP3    H238580   3.016   4.731   0.383
 5649TIP3   OH238581   2.935   4.608   0.142
 5649TIP3    H138582   2.978   4.631   0.227
 5649TIP3    H238583   2.975   4.521   0.123
 5650TIP3   OH238584   3.667   4.662   1.255
 5650TIP3    H138585   3.589   4.717   1.232
 5650TIP3    H238586   3.733   4.707   1.197
 5651TIP3   OH238587   3.323   4.715   0.545
 5651TIP3    H138588   3.248   4.741   0.604
 5651TIP3    H238589   3.378   4.660   0.606
 5652TIP3   OH238590   3.273   4.572   1.461
 5652TIP3    H138591   3.245   4.662   1.485
 5652TIP3    H238592   3.206   4.551   1.394
 5653TIP3   OH238593   2.412   4.763   0.700
 5653TIP3    H138594   2.412   4.723   0.612
 5653TIP3    H238595   2.476   4.706   0.747
 5654TIP3   OH238596   2.562   5.099   0.961
 5654TIP3    H138597   2.578   5.110   0.866
 5654TIP3    H238598   2.645   5.061   0.997
 5655TIP3   OH238599   2.459   4.635   1.080
 5655TIP3    H138600   2.488   4.645   0.986
 5655TIP3    H238601   2.500   4.711   1.126
 5656TIP3   OH238602   3.109   5.237   1.143
 5656TIP3    H138603   3.083   5.297   1.215
 5656TIP3    H238604   3.092   5.150   1.184
 5657TIP3   OH238605   2.587   5.111   1.530
 5657TIP3    H138606   2.518   5.166   1.572
 5657TIP3    H238607   2.539   5.086   1.448
 5658TIP3   OH238608   3.172   4.682   0.319
 5658TIP3    H138609   3.237   4.700   0.390
 5658TIP3    H238610   3.219   4.713   0.238
 5659TIP3   OH238611   2.230   4.771   1.394
 5659TIP3    H138612   2.294   4.830   1.436
 5659TIP3    H238613   2.209   4.712   1.469
 5660TIP3   OH238614   2.996   5.311   0.668
 5660TIP3    H138615   3.008   5.354   0.753
 5660TIP3    H238616   2.904   5.341   0.649
 5661TIP3   OH238617   2.387   5.266   1.633
 5661TIP3    H138618   2.384   5.298   1.540
 5661TIP3    H238619   2.290   5.252   1.649
 5662TIP3   OH238620   3.566   3.795   0.341
 5662TIP3    H138621   3.468   3.805   0.351
 5662TIP3    H238622   3.589   3.878   0.296
 5663TIP3   OH238623   2.330   4.663   0.431
 5663TIP3    H138624   2.285   4.748   0.408
 5663TIP3    H238625   2.256   4.601   0.439
 5664TIP3   OH238626   3.641   5.228   0.100
 5664TIP3    H138627   3.668   5.320   0.114
 5664TIP3    H238628   3.728   5.185   0.108
 5665TIP3   OH238629   1.971   4.944   1.371
 5665TIP3    H138630   1.931   4.930   1.284
 5665TIP3    H238631   2.013   4.857   1.382
 5666TIP3   OH238632   1.939   5.204   1.029
 5666TIP3    H138633   2.034   5.199   1.048
 5666TIP3    H238634   1.917   5.290   1.070
 5667TIP3   OH238635   3.740   5.267   1.612
 5667TIP3    H138636   3.719   5.173   1.603
 5667TIP3    H238637   3.654   5.296   1.652
 5668TIP3   OH238638   2.840   5.221   1.484
 5668TIP3    H138639   2.848   5.310   1.525
 5668TIP3    H238640   2.746   5.197   1.498
 5669TIP3   OH238641   2.913   5.605   0.445
 5669TIP3    H138642   2.879   5.619   0.355
 5669TIP3    H238643   2.896   5.693   0.486
 5670TIP3   OH238644   2.222   5.497   0.696
 5670TIP3    H138645   2.266   5.460   0.776
 5670TIP3    H238646   2.134   5.456   0.700
 5671TIP3   OH238647   3.214   5.534   0.177
 5671TIP3    H138648   3.256   5.450   0.153
 5671TIP3    H238649   3.201   5.524   0.273
 5672TIP3   OH238650   3.168   5.525   0.442
 5672TIP3    H138651   3.077   5.553   0.465
 5672TIP3    H238652   3.171   5.442   0.494
 5673TIP3   OH238653   3.448   4.414   1.645
 5673TIP3    H138654   3.384   4.470   1.596
 5673TIP3    H238655   3.443   4.329   1.594
 5674TIP3   OH238656   2.191   5.072   1.458
 5674TIP3    H138657   2.206   5.034   1.548
 5674TIP3    H238658   2.101   5.035   1.442
 5675TIP3   OH238659   2.439   3.922   1.047
 5675TIP3    H138660   2.346   3.910   1.019
 5675TIP3    H238661   2.428   3.984   1.122
 5676TIP3   OH238662   2.921   3.851   1.397
 5676TIP3    H138663   2.946   3.804   1.480
 5676TIP3    H238664   2.822   3.858   1.402
 5677TIP3   OH238665   3.187   4.294   1.508
 5677TIP3    H138666   3.133   4.247   1.576
 5677TIP3    H238667   3.205   4.380   1.549
 5678TIP3   OH238668   3.301   4.763   0.103
 5678TIP3    H138669   3.303   4.774   0.007
 5678TIP3    H238670   3.382   4.811   0.125
 5679TIP3   OH238671   2.890   4.178   0.129
 5679TIP3    H138672   2.843   4.168   0.214
 5679TIP3    H238673   2.873   4.092   0.088
 5680TIP3   OH238674   2.463   4.395   1.180
 5680TIP3    H138675   2.391   4.414   1.243
 5680TIP3    H238676   2.465   4.485   1.138
 5681TIP3   OH238677   2.441   4.392   0.647
 5681TIP3    H138678   2.343   4.385   0.645
 5681TIP3    H238679   2.465   4.367   0.556
 5682TIP3   OH238680   3.008   4.476   0.545
 5682TIP3    H138681   2.979   4.560   0.502
 5682TIP3    H238682   3.069   4.444   0.476
 5683TIP3   OH238683   2.917   4.503   1.673
 5683TIP3    H138684   2.864   4.425   1.697
 5683TIP3    H238685   2.974   4.511   1.752
 5684TIP3   OH238686   3.111   4.443   0.844
 5684TIP3    H138687   3.097   4.532   0.806
 5684TIP3    H238688   3.088   4.388   0.767
 5685TIP3   OH238689   2.213   4.411   1.310
 5685TIP3    H138690   2.258   4.460   1.381
 5685TIP3    H238691   2.194   4.325   1.352
 5686TIP3   OH238692   2.525   4.192   0.080
 5686TIP3    H138693   2.499   4.127   0.149
 5686TIP3    H238694   2.504   4.276   0.126
 5687TIP3   OH238695   1.892   4.140   0.763
 5687TIP3    H138696   1.958   4.146   0.834
 5687TIP3    H238697   1.930   4.196   0.694
 5688TIP3   OH238698   1.988   4.198   0.267
 5688TIP3    H138699   2.047   4.240   0.202
 5688TIP3    H238700   1.940   4.275   0.302
 5689TIP3   OH238701   3.025   4.587   1.270
 5689TIP3    H138702   3.077   4.511   1.234
 5689TIP3    H238703   2.955   4.539   1.322
 5690TIP3   OH238704   2.739   4.160   0.766
 5690TIP3    H138705   2.645   4.160   0.791
 5690TIP3    H238706   2.784   4.116   0.841
 5691TIP3   OH238707   2.169   4.313   0.666
 5691TIP3    H138708   2.100   4.348   0.605
 5691TIP3    H238709   2.197   4.228   0.624
 5692TIP3   OH238710   2.496   4.329   0.394
 5692TIP3    H138711   2.589   4.353   0.411
 5692TIP3    H238712   2.477   4.382   0.314
 5693TIP3   OH238713   3.135   4.118   1.089
 5693TIP3    H138714   3.092   4.076   1.165
 5693TIP3    H238715   3.121   4.054   1.017
 5694TIP3   OH238716   2.459   4.438   0.157
 5694TIP3    H138717   2.392   4.437   0.086
 5694TIP3    H238718   2.533   4.485   0.113
 5695TIP3   OH238719   3.451   5.667   1.742
 5695TIP3    H138720   3.496   5.728   1.680
 5695TIP3    H238721   3.515   5.667   1.815
 5696TIP3   OH238722   2.213   4.924   1.691
 5696TIP3    H138723   2.272   4.942   1.768
 5696TIP3    H238724   2.136   4.885   1.738
 5697TIP3   OH238725   2.774   4.440   0.914
 5697TIP3    H138726   2.869   4.423   0.901
 5697TIP3    H238727   2.742   4.357   0.956
 5698TIP3   OH238728   2.274   4.069   0.596
 5698TIP3    H138729   2.229   3.997   0.646
 5698TIP3    H238730   2.308   4.019   0.520
 5699TIP3   OH238731   2.695   4.254   1.167
 5699TIP3    H138732   2.611   4.302   1.167
 5699TIP3    H238733   2.752   4.314   1.217
 5700TIP3   OH238734   2.762   4.891   0.406
 5700TIP3    H138735   2.692   4.837   0.364
 5700TIP3    H238736   2.712   4.928   0.483
 5701TIP3   OH238737   3.482   4.865   1.250
 5701TIP3    H138738   3.536   4.925   1.193
 5701TIP3    H238739   3.398   4.864   1.201
 5702TIP3   OH238740   3.148   4.190   0.193
 5702TIP3    H138741   3.061   4.202   0.151
 5702TIP3    H238742   3.164   4.278   0.231
 5703TIP3   OH238743   2.819   4.922   1.503
 5703TIP3    H138744   2.803   4.907   1.598
 5703TIP3    H238745   2.831   5.019   1.501
 5704TIP3   OH238746   3.208   4.410   0.362
 5704TIP3    H138747   3.277   4.383   0.425
 5704TIP3    H238748   3.241   4.496   0.332
 5705TIP3   OH238749   2.284   4.867   0.930
 5705TIP3    H138750   2.318   4.857   0.839
 5705TIP3    H238751   2.309   4.782   0.969
 5706TIP3   OH238752   2.964   5.037   0.295
 5706TIP3    H138753   2.924   5.125   0.309
 5706TIP3    H238754   2.890   4.980   0.326
 5707TIP3   OH238755   1.961   4.677   1.515
 5707TIP3    H138756   1.930   4.612   1.581
 5707TIP3    H238757   1.920   4.641   1.435
 5708TIP3   OH238758   2.655   4.663   1.651
 5708TIP3    H138759   2.640   4.589   1.592
 5708TIP3    H238760   2.752   4.664   1.656
 5709TIP3   OH238761   3.154   5.198   1.504
 5709TIP3    H138762   3.075   5.211   1.449
 5709TIP3    H238763   3.123   5.239   1.587
 5710TIP3   OH238764   3.693   4.388   0.342
 5710TIP3    H138765   3.629   4.376   0.269
 5710TIP3    H238766   3.715   4.483   0.330
 5711TIP3   OH238767   3.709   4.984   1.598
 5711TIP3    H138768   3.621   4.994   1.556
 5711TIP3    H238769   3.767   4.982   1.519
 5712TIP3   OH238770   3.520   5.256   0.353
 5712TIP3    H138771   3.441   5.209   0.384
 5712TIP3    H238772   3.526   5.232   0.258
 5713TIP3   OH238773   3.242   4.777   1.073
 5713TIP3    H138774   3.152   4.744   1.056
 5713TIP3    H238775   3.294   4.704   1.033
 5714TIP3   OH238776   2.498   5.202   0.704
 5714TIP3    H138777   2.577   5.262   0.711
 5714TIP3    H238778   2.439   5.264   0.658
 5715TIP3   OH238779   2.089   4.679   0.127
 5715TIP3    H138780   2.136   4.732   0.196
 5715TIP3    H238781   1.996   4.691   0.150
 5716TIP3   OH238782   2.624   4.965   0.628
 5716TIP3    H138783   2.578   5.052   0.638
 5716TIP3    H238784   2.581   4.910   0.695
 5717TIP3   OH238785   2.691   5.375   1.322
 5717TIP3    H138786   2.747   5.445   1.282
 5717TIP3    H238787   2.754   5.334   1.383
 5718TIP3   OH238788   2.447   5.522   0.540
 5718TIP3    H138789   2.377   5.526   0.609
 5718TIP3    H238790   2.525   5.489   0.589
 5719TIP3   OH238791   3.016   4.968   1.250
 5719TIP3    H138792   2.969   4.933   1.328
 5719TIP3    H238793   3.088   4.903   1.238
 5720TIP3   OH238794   3.282   5.097   0.186
 5720TIP3    H138795   3.312   5.034   0.255
 5720TIP3    H238796   3.186   5.076   0.188
 5721TIP3   OH238797   3.335   5.421   1.484
 5721TIP3    H138798   3.249   5.373   1.482
 5721TIP3    H238799   3.332   5.480   1.406
 5722TIP3   OH238800   3.711   5.515   0.184
 5722TIP3    H138801   3.756   5.576   0.123
 5722TIP3    H238802   3.647   5.578   0.227
 5723TIP3   OH238803   2.154   4.166   1.426
 5723TIP3    H138804   2.071   4.216   1.417
 5723TIP3    H238805   2.120   4.078   1.450
 5724TIP3   OH238806   3.363   4.925   0.381
 5724TIP3    H138807   3.349   4.846   0.438
 5724TIP3    H238808   3.461   4.926   0.382
 5725TIP3   OH238809   2.100   5.333   1.262
 5725TIP3    H138810   2.163   5.260   1.271
 5725TIP3    H238811   2.102   5.369   1.352
 5726TIP3   OH238812   2.572   5.174   0.293
 5726TIP3    H138813   2.652   5.173   0.347
 5726TIP3    H238814   2.552   5.271   0.296
 5727TIP3   OH238815   2.210   4.865   0.304
 5727TIP3    H138816   2.141   4.909   0.361
 5727TIP3    H238817   2.246   4.942   0.257
 5728TIP3   OH238818   3.007   4.103   1.355
 5728TIP3    H138819   3.064   4.128   1.429
 5728TIP3    H238820   2.976   4.014   1.385
 5729TIP3   OH238821   3.056   4.108   0.450
 5729TIP3    H138822   3.102   4.137   0.370
 5729TIP3    H238823   3.124   4.125   0.521
 5730TIP3   OH238824   2.873   5.285   0.355
 5730TIP3    H138825   2.858   5.355   0.420
 5730TIP3    H238826   2.912   5.335   0.281
 5731TIP3   OH238827   2.780   4.295   0.523
 5731TIP3    H138828   2.859   4.351   0.531
 5731TIP3    H238829   2.775   4.247   0.609
 5732TIP3   OH238830   2.904   4.389   1.405
 5732TIP3    H138831   2.936   4.410   1.495
 5732TIP3    H238832   2.952   4.306   1.387
 5733TIP3   OH238833   2.866   3.965   0.576
 5733TIP3    H138834   2.829   4.022   0.648
 5733TIP3    H238835   2.942   4.022   0.545
 5734TIP3   OH238836   2.528   5.439   0.292
 5734TIP3    H138837   2.602   5.499   0.280
 5734TIP3    H238838   2.486   5.479   0.372
 5735TIP3   OH238839   2.432   4.080   0.309
 5735TIP3    H138840   2.429   4.165   0.357
 5735TIP3    H238841   2.518   4.046   0.337
 5736TIP3   OH238842   3.436   4.177   1.526
 5736TIP3    H138843   3.341   4.184   1.503
 5736TIP3    H238844   3.474   4.139   1.446
 5737TIP3   OH238845   3.354   4.543   0.931
 5737TIP3    H138846   3.274   4.487   0.929
 5737TIP3    H238847   3.420   4.484   0.973
 5738TIP3   OH238848   2.282   5.108   0.155
 5738TIP3    H138849   2.348   5.157   0.206
 5738TIP3    H238850   2.341   5.059   0.094
 5739TIP3   OH238851   2.117   4.410   0.094
 5739TIP3    H138852   2.125   4.506   0.111
 5739TIP3    H238853   2.044   4.410   0.031
 5740TIP3   OH238854   3.414   5.460   1.080
 5740TIP3    H138855   3.436   5.527   1.012
 5740TIP3    H238856   3.502   5.427   1.105
 5741TIP3   OH238857   2.185   3.874   0.985
 5741TIP3    H138858   2.179   3.867   0.887
 5741TIP3    H238859   2.153   3.783   1.009
 5742TIP3   OH238860   2.026   5.238   0.532
 5742TIP3    H138861   1.965   5.280   0.593
 5742TIP3    H238862   2.050   5.314   0.475
 5743TIP3   OH238863   1.987   5.515   1.689
 5743TIP3    H138864   1.927   5.509   1.765
 5743TIP3    H238865   1.963   5.433   1.641
 5744TIP3   OH238866   2.429   5.459   1.851
 5744TIP3    H138867   2.521   5.463   1.824
 5744TIP3    H238868   2.394   5.393   1.787
 5745TIP3   OH238869   2.985   5.367   0.116
 5745TIP3    H138870   2.922   5.301   0.083
 5745TIP3    H238871   3.013   5.409   0.032
 5746TIP3   OH238872   3.104   5.289   1.749
 5746TIP3    H138873   3.078   5.201   1.785
 5746TIP3    H238874   3.192   5.298   1.792
 5747TIP3   OH238875   3.387   5.348   0.031
 5747TIP3    H138876   3.344   5.271   0.073
 5747TIP3    H238877   3.479   5.331   0.060
 5748TIP3   OH238878   1.959   4.875   1.788
 5748TIP3    H138879   1.952   4.779   1.782
 5748TIP3    H238880   1.895   4.903   1.718
 5749TIP3   OH238881   2.491   4.942   0.044
 5749TIP3    H138882   2.540   4.930   0.127
 5749TIP3    H238883   2.531   4.871  -0.011
 5750TIP3   OH238884   2.653   4.933   1.727
 5750TIP3    H138885   2.642   4.981   1.642
 5750TIP3    H238886   2.606   4.848   1.710
 5751TIP3   OH238887   3.210   4.894   1.509
 5751TIP3    H138888   3.297   4.940   1.506
 5751TIP3    H238889   3.155   4.973   1.518
 5752TIP3   OH238890   2.133   4.620   1.816
 5752TIP3    H138891   2.192   4.544   1.829
 5752TIP3    H238892   2.188   4.690   1.856
 5753TIP3   OH238893   2.563   4.766   0.264
 5753TIP3    H138894   2.491   4.718   0.310
 5753TIP3    H238895   2.594   4.700   0.200
 5754TIP3   OH238896   2.429   4.539   1.413
 5754TIP3    H138897   2.444   4.579   1.500
 5754TIP3    H238898   2.508   4.570   1.364
 5755TIP3   OH238899   2.674   4.568   0.054
 5755TIP3    H138900   2.699   4.593  -0.037
 5755TIP3    H238901   2.762   4.576   0.100
 5756TIP3   OH238902   3.004   4.797   1.832
 5756TIP3    H138903   3.088   4.752   1.810
 5756TIP3    H238904   2.963   4.729   1.888
 5757TIP3   OH238905   3.563   4.859   8.507
 5757TIP3    H138906   3.530   4.882   8.420
 5757TIP3    H238907   3.596   4.943   8.540
 5758TIP3   OH238908   2.569   4.312   1.548
 5758TIP3    H138909   2.582   4.235   1.487
 5758TIP3    H238910   2.537   4.378   1.485
 5759TIP3   OH238911   2.588   4.109   1.364
 5759TIP3    H138912   2.641   4.147   1.289
 5759TIP3    H238913   2.498   4.107   1.325
 5760TIP3   OH238914   2.679   4.680   1.359
 5760TIP3    H138915   2.761   4.733   1.353
 5760TIP3    H238916   2.617   4.746   1.321
 5761TIP3   OH238917   3.150   4.393   1.865
 5761TIP3    H138918   3.197   4.308   1.859
 5761TIP3    H238919   3.222   4.452   1.891
 5762TIP3   OH238920   3.295   4.726   1.722
 5762TIP3    H138921   3.257   4.778   1.649
 5762TIP3    H238922   3.389   4.725   1.697
 5763TIP3   OH238923   2.329   4.388   1.764
 5763TIP3    H138924   2.276   4.308   1.779
 5763TIP3    H238925   2.408   4.352   1.722
 5764TIP3   OH238926   2.655   3.845   1.356
 5764TIP3    H138927   2.620   3.937   1.362
 5764TIP3    H238928   2.577   3.797   1.325
 5765TIP3   OH238929   2.746   4.282   1.754
 5765TIP3    H138930   2.691   4.356   1.787
 5765TIP3    H238931   2.699   4.259   1.671
 5766TIP3   OH238932   3.027   4.182   1.685
 5766TIP3    H138933   2.944   4.163   1.733
 5766TIP3    H238934   3.089   4.147   1.753
 5767TIP3   OH238935   3.181   4.050   1.871
 5767TIP3    H138936   3.156   3.955   1.862
 5767TIP3    H238937   3.182   4.059   1.967
 5768TIP3   OH238938   2.172   4.141   1.782
 5768TIP3    H138939   2.226   4.128   1.702
 5768TIP3    H238940   2.113   4.065   1.773
 5769TIP3   OH238941   2.609   3.748   1.656
 5769TIP3    H138942   2.684   3.696   1.689
 5769TIP3    H238943   2.635   3.768   1.566
 5770TIP3   OH238944   2.643   5.702   0.176
 5770TIP3    H138945   2.739   5.704   0.191
 5770TIP3    H238946   2.638   5.668   0.084
 5771TIP3   OH238947   2.001   5.074   0.144
 5771TIP3    H138948   2.098   5.093   0.143
 5771TIP3    H238949   1.989   5.044   0.053
 5772TIP3   OH238950   1.863   5.622   0.634
 5772TIP3    H138951   1.795   5.562   0.597
 5772TIP3    H238952   1.913   5.559   0.688
 5773TIP3   OH238953   1.969   5.441   0.825
 5773TIP3    H138954   1.916   5.378   0.875
 5773TIP3    H238955   2.026   5.474   0.898
 5774TIP3   OH238956   3.738   5.514   1.085
 5774TIP3    H138957   3.734   5.522   1.181
 5774TIP3    H238958   3.775   5.600   1.061
 5775TIP3   OH238959   3.667   5.476   1.401
 5775TIP3    H138960   3.633   5.398   1.351
 5775TIP3    H238961   3.695   5.432   1.483
 5776TIP3   OH238962   3.543   5.054   1.890
 5776TIP3    H138963   3.461   5.065   1.941
 5776TIP3    H238964   3.598   5.126   1.930
 5777TIP3   OH238965   3.635   4.894   0.397
 5777TIP3    H138966   3.718   4.947   0.407
 5777TIP3    H238967   3.644   4.833   0.473
 5778TIP3   OH238968   3.692   4.697   0.588
 5778TIP3    H138969   3.607   4.661   0.623
 5778TIP3    H238970   3.742   4.712   0.671
 5779TIP3   OH238971   3.646   4.979   1.086
 5779TIP3    H138972   3.714   4.913   1.061
 5779TIP3    H238973   3.694   5.065   1.074
 5780TIP3   OH238974   3.522   5.249   1.322
 5780TIP3    H138975   3.454   5.283   1.382
 5780TIP3    H238976   3.470   5.225   1.241
 5781TIP3   OH238977   3.693   4.660   0.247
 5781TIP3    H138978   3.630   4.654   0.173
 5781TIP3    H238979   3.659   4.737   0.297
 5782TIP3   OH238980   3.484   4.393   0.115
 5782TIP3    H138981   3.555   4.429   0.059
 5782TIP3    H238982   3.488   4.300   0.082
 5783TIP3   OH238983   3.492   4.555   0.691
 5783TIP3    H138984   3.460   4.468   0.663
 5783TIP3    H238985   3.460   4.558   0.783
 5784TIP3   OH238986   1.956   4.779   1.077
 5784TIP3    H138987   1.952   4.742   0.986
 5784TIP3    H238988   2.043   4.742   1.104
 5785TIP3   OH238989   3.572   4.749   1.644
 5785TIP3    H138990   3.625   4.667   1.641
 5785TIP3    H238991   3.637   4.818   1.618
 5786TIP3   OH238992   3.702   4.504   1.675
 5786TIP3    H138993   3.607   4.477   1.679
 5786TIP3    H238994   3.749   4.417   1.683
 5787TIP3   OH238995   3.473   4.154  -0.011
 5787TIP3    H138996   3.527   4.091   0.042
 5787TIP3    H238997   3.382   4.142   0.019
 5788TIP3   OH238998   3.412   4.319   0.512
 5788TIP3    H138999   3.434   4.228   0.538
 5788TIP3    H239000   3.454   4.318   0.425
 5789TIP3   OH239001   3.537   4.377   1.049
 5789TIP3    H139002   3.635   4.383   1.058
 5789TIP3    H239003   3.512   4.401   1.139
 5790TIP3   OH239004   3.491   4.444   1.305
 5790TIP3    H139005   3.402   4.473   1.335
 5790TIP3    H239006   3.543   4.527   1.309
 5791TIP3   OH239007   1.941   4.258   1.665
 5791TIP3    H139008   2.025   4.214   1.686
 5791TIP3    H239009   1.874   4.191   1.687
 5792TIP3   OH239010   3.683   3.862   1.802
 5792TIP3    H139011   3.735   3.794   1.757
 5792TIP3    H239012   3.708   3.946   1.758
 5793TIP3   OH239013   3.485   4.045   0.520
 5793TIP3    H139014   3.523   4.011   0.603
 5793TIP3    H239015   3.434   3.968   0.488
 5794TIP3   OH239016   2.054   4.115   1.013
 5794TIP3    H139017   2.089   4.023   1.006
 5794TIP3    H239018   2.136   4.169   1.019
 5795TIP3   OH239019   1.897   4.431   1.078
 5795TIP3    H139020   1.948   4.398   1.002
 5795TIP3    H239021   1.955   4.502   1.108
 5796TIP3   OH239022   3.650   4.077   1.646
 5796TIP3    H139023   3.560   4.114   1.644
 5796TIP3    H239024   3.641   4.010   1.575
 5797TIP3   OH239025   3.686   4.066   0.164
 5797TIP3    H139026   3.732   4.001   0.107
 5797TIP3    H239027   3.760   4.127   0.186
 5798TIP3   OH239028   1.917   4.029   0.467
 5798TIP3    H139029   1.826   4.044   0.495
 5798TIP3    H239030   1.921   4.073   0.380
 5799TIP3   OH239031   3.379   5.532   0.684
 5799TIP3    H139032   3.453   5.521   0.620
 5799TIP3    H239033   3.409   5.605   0.740
 5800TIP3   OH239034   1.899   3.900   1.305
 5800TIP3    H139035   1.829   3.858   1.359
 5800TIP3    H239036   1.848   3.960   1.247
 5801TIP3   OH239037   2.138   5.212   1.724
 5801TIP3    H139038   2.055   5.249   1.692
 5801TIP3    H239039   2.109   5.145   1.788
 5802TIP3   OH239040   2.428   5.358   1.373
 5802TIP3    H139041   2.424   5.453   1.346
 5802TIP3    H239042   2.523   5.342   1.356
 5803TIP3   OH239043   2.859   5.464   1.600
 5803TIP3    H139044   2.845   5.447   1.695
 5803TIP3    H239045   2.940   5.520   1.604
 5804TIP3   OH239046   3.064   5.633   1.591
 5804TIP3    H139047   3.152   5.628   1.551
 5804TIP3    H239048   3.087   5.668   1.680
 5805TIP3   OH239049   3.569   3.855   1.461
 5805TIP3    H139050   3.484   3.868   1.418
 5805TIP3    H239051   3.593   3.764   1.428
 5806TIP3   OH239052   2.165   5.660   1.348
 5806TIP3    H139053   2.101   5.725   1.318
 5806TIP3    H239054   2.150   5.661   1.444
 5807TIP3   OH239055   2.426   5.610   1.250
 5807TIP3    H139056   2.332   5.620   1.278
 5807TIP3    H239057   2.426   5.665   1.169
 5808TIP3   OH239058   2.840   5.570   1.205
 5808TIP3    H139059   2.766   5.618   1.164
 5808TIP3    H239060   2.883   5.642   1.257
 5809TIP3   OH239061   3.070   5.442   1.310
 5809TIP3    H139062   3.005   5.489   1.255
 5809TIP3    H239063   3.143   5.507   1.310
 5810TIP3   OH239064   3.348   5.616   1.282
 5810TIP3    H139065   3.350   5.704   1.241
 5810TIP3    H239066   3.362   5.562   1.200
 5811TIP3   OH239067   2.112   5.501   1.048
 5811TIP3    H139068   2.090   5.457   1.133
 5811TIP3    H239069   2.198   5.458   1.027
 5812TIP3   OH239070   2.335   5.409   0.918
 5812TIP3    H139071   2.327   5.312   0.933
 5812TIP3    H239072   2.418   5.427   0.968
 5813TIP3   OH239073   2.552   5.419   1.064
 5813TIP3    H139074   2.606   5.351   1.022
 5813TIP3    H239075   2.582   5.416   1.157
 5814TIP3   OH239076   2.889   3.954   0.879
 5814TIP3    H139077   2.808   3.900   0.897
 5814TIP3    H239078   2.962   3.895   0.900
 5815TIP3   OH239079   3.433   3.823   0.898
 5815TIP3    H139080   3.515   3.864   0.863
 5815TIP3    H239081   3.367   3.860   0.835
 5816TIP3   OH239082   3.598   3.953   0.745
 5816TIP3    H139083   3.648   3.874   0.712
 5816TIP3    H239084   3.669   4.021   0.751
 5817TIP3   OH239085   2.164   3.837   0.711
 5817TIP3    H139086   2.079   3.816   0.666
 5817TIP3    H239087   2.213   3.753   0.697
 5818TIP3   OH239088   2.025   3.833   0.265
 5818TIP3    H139089   2.087   3.892   0.216
 5818TIP3    H239090   1.990   3.891   0.335
 5819TIP3   OH239091   2.586   3.816   0.690
 5819TIP3    H139092   2.660   3.843   0.634
 5819TIP3    H239093   2.609   3.853   0.777
 5820TIP3   OH239094   3.174   3.870   0.794
 5820TIP3    H139095   3.121   3.876   0.713
 5820TIP3    H239096   3.140   3.786   0.832
 5821TIP3   OH239097   3.315   3.840   0.380
 5821TIP3    H139098   3.251   3.874   0.316
 5821TIP3    H239099   3.272   3.756   0.408
 5822TIP3   OH239100   2.038   5.459   0.375
 5822TIP3    H139101   1.954   5.458   0.327
 5822TIP3    H239102   2.065   5.549   0.350
 5823TIP3   OH239103   2.205   3.969   0.123
 5823TIP3    H139104   2.288   3.918   0.121
 5823TIP3    H239105   2.232   4.053   0.159
 5824TIP3   OH239106   2.736   4.085   0.361
 5824TIP3    H139107   2.785   4.030   0.425
 5824TIP3    H239108   2.749   4.172   0.406
 5825TIP3   OH239109   2.913   5.619   0.176
 5825TIP3    H139110   3.005   5.629   0.207
 5825TIP3    H239111   2.921   5.525   0.149
 5826TIP3   OH239112   3.563   5.478   0.499
 5826TIP3    H139113   3.556   5.398   0.441
 5826TIP3    H239114   3.564   5.549   0.431
 5827TIP3   OH239115   2.132   3.907   1.647
 5827TIP3    H139116   2.079   3.825   1.654
 5827TIP3    H239117   2.212   3.881   1.700
 5828TIP3   OH239118   2.353   3.812   1.803
 5828TIP3    H139119   2.429   3.837   1.748
 5828TIP3    H239120   2.388   3.724   1.833
 5829TIP3   OH239121   2.220   5.520   0.023
 5829TIP3    H139122   2.170   5.570   0.088
 5829TIP3    H239123   2.284   5.472   0.076
 5830TIP3   OH239124   3.189   3.764   1.816
 5830TIP3    H139125   3.164   3.679   1.776
 5830TIP3    H239126   3.279   3.774   1.778
 5831TIP3   OH239127   3.514   5.386   1.671
 5831TIP3    H139128   3.437   5.383   1.610
 5831TIP3    H239129   3.519   5.482   1.691
 5832TIP3   OH239130   4.984   4.792   0.677
 5832TIP3    H139131   4.972   4.890   0.666
 5832TIP3    H239132   4.904   4.760   0.634
 5833TIP3   OH239133   4.848   4.666   1.019
 5833TIP3    H139134   4.901   4.634   1.095
 5833TIP3    H239135   4.887   4.615   0.946
 5834TIP3   OH239136   4.054   4.662   1.155
 5834TIP3    H139137   4.079   4.586   1.210
 5834TIP3    H239138   4.103   4.734   1.198
 5835TIP3   OH239139   5.170   4.987   0.879
 5835TIP3    H139140   5.163   4.920   0.949
 5835TIP3    H239141   5.190   5.066   0.931
 5836TIP3   OH239142   4.183   5.116   1.018
 5836TIP3    H139143   4.136   5.038   0.986
 5836TIP3    H239144   4.270   5.104   0.977
 5837TIP3   OH239145   3.822   4.448   0.575
 5837TIP3    H139146   3.774   4.529   0.599
 5837TIP3    H239147   3.755   4.405   0.519
 5838TIP3   OH239148   3.904   4.703   0.815
 5838TIP3    H139149   3.929   4.620   0.863
 5838TIP3    H239150   3.975   4.765   0.842
 5839TIP3   OH239151   4.919   5.531   0.854
 5839TIP3    H139152   4.985   5.479   0.801
 5839TIP3    H239153   4.901   5.465   0.921
 5840TIP3   OH239154   4.668   4.963   1.122
 5840TIP3    H139155   4.700   4.926   1.038
 5840TIP3    H239156   4.754   4.992   1.162
 5841TIP3   OH239157   5.526   4.122   1.079
 5841TIP3    H139158   5.545   4.156   1.168
 5841TIP3    H239159   5.617   4.116   1.046
 5842TIP3   OH239160   4.991   4.397   1.124
 5842TIP3    H139161   5.018   4.307   1.148
 5842TIP3    H239162   4.972   4.382   1.030
 5843TIP3   OH239163   4.305   4.174   0.789
 5843TIP3    H139164   4.329   4.249   0.732
 5843TIP3    H239165   4.264   4.114   0.724
 5844TIP3   OH239166   5.069   4.219   0.689
 5844TIP3    H139167   5.122   4.174   0.759
 5844TIP3    H239168   5.138   4.260   0.634
 5845TIP3   OH239169   3.963   4.450   0.882
 5845TIP3    H139170   4.021   4.406   0.946
 5845TIP3    H239171   3.945   4.380   0.817
 5846TIP3   OH239172   4.449   4.568   0.829
 5846TIP3    H139173   4.530   4.519   0.851
 5846TIP3    H239174   4.412   4.513   0.756
 5847TIP3   OH239175   5.542   4.233   1.357
 5847TIP3    H139176   5.496   4.315   1.331
 5847TIP3    H239177   5.534   4.237   1.454
 5848TIP3   OH239178   4.223   4.090   1.223
 5848TIP3    H139179   4.193   4.149   1.153
 5848TIP3    H239180   4.151   4.102   1.288
 5849TIP3   OH239181   4.908   5.023   0.573
 5849TIP3    H139182   4.890   5.024   0.476
 5849TIP3    H239183   4.869   5.109   0.601
 5850TIP3   OH239184   4.418   4.854   1.176
 5850TIP3    H139185   4.371   4.924   1.227
 5850TIP3    H239186   4.501   4.901   1.153
 5851TIP3   OH239187   5.246   4.157   0.878
 5851TIP3    H139188   5.271   4.092   0.945
 5851TIP3    H239189   5.330   4.206   0.869
 5852TIP3   OH239190   4.176   4.288   1.004
 5852TIP3    H139191   4.239   4.352   1.044
 5852TIP3    H239192   4.226   4.257   0.924
 5853TIP3   OH239193   4.310   5.069   1.302
 5853TIP3    H139194   4.294   5.140   1.237
 5853TIP3    H239195   4.221   5.061   1.345
 5854TIP3   OH239196   3.880   5.012   0.396
 5854TIP3    H139197   3.883   5.058   0.309
 5854TIP3    H239198   3.890   5.086   0.459
 5855TIP3   OH239199   5.261   5.194   1.057
 5855TIP3    H139200   5.171   5.222   1.088
 5855TIP3    H239201   5.288   5.279   1.018
 5856TIP3   OH239202   5.290   4.129   1.244
 5856TIP3    H139203   5.207   4.153   1.201
 5856TIP3    H239204   5.357   4.149   1.176
 5857TIP3   OH239205   4.550   3.820   0.958
 5857TIP3    H139206   4.514   3.732   0.974
 5857TIP3    H239207   4.469   3.873   0.978
 5858TIP3   OH239208   5.087   5.378   0.728
 5858TIP3    H139209   5.117   5.294   0.688
 5858TIP3    H239210   5.168   5.434   0.717
 5859TIP3   OH239211   5.202   5.142   0.587
 5859TIP3    H139212   5.185   5.070   0.524
 5859TIP3    H239213   5.184   5.097   0.671
 5860TIP3   OH239214   5.361   5.019   1.460
 5860TIP3    H139215   5.333   4.942   1.406
 5860TIP3    H239216   5.373   5.089   1.393
 5861TIP3   OH239217   4.811   4.696   0.432
 5861TIP3    H139218   4.748   4.768   0.411
 5861TIP3    H239219   4.894   4.727   0.390
 5862TIP3   OH239220   4.809   4.619   0.136
 5862TIP3    H139221   4.873   4.646   0.206
 5862TIP3    H239222   4.851   4.537   0.105
 5863TIP3   OH239223   5.564   4.658   1.262
 5863TIP3    H139224   5.490   4.723   1.259
 5863TIP3    H239225   5.617   4.688   1.186
 5864TIP3   OH239226   5.196   4.687   0.531
 5864TIP3    H139227   5.130   4.730   0.591
 5864TIP3    H239228   5.260   4.648   0.596
 5865TIP3   OH239229   4.286   4.765   0.697
 5865TIP3    H139230   4.308   4.763   0.601
 5865TIP3    H239231   4.361   4.716   0.736
 5866TIP3   OH239232   4.465   5.131   0.962
 5866TIP3    H139233   4.484   5.109   0.871
 5866TIP3    H239234   4.534   5.083   1.011
 5867TIP3   OH239235   4.336   4.639   1.056
 5867TIP3    H139236   4.371   4.643   0.965
 5867TIP3    H239237   4.368   4.722   1.099
 5868TIP3   OH239238   5.023   5.243   1.150
 5868TIP3    H139239   4.988   5.313   1.209
 5868TIP3    H239240   4.994   5.160   1.193
 5869TIP3   OH239241   4.444   5.098   1.531
 5869TIP3    H139242   4.372   5.152   1.572
 5869TIP3    H239243   4.405   5.085   1.441
 5870TIP3   OH239244   5.042   4.685   0.313
 5870TIP3    H139245   5.106   4.694   0.387
 5870TIP3    H239246   5.095   4.721   0.238
 5871TIP3   OH239247   4.147   4.711   1.473
 5871TIP3    H139248   4.170   4.785   1.530
 5871TIP3    H239249   4.066   4.679   1.516
 5872TIP3   OH239250   4.808   5.261   0.670
 5872TIP3    H139251   4.849   5.325   0.729
 5872TIP3    H239252   4.779   5.315   0.596
 5873TIP3   OH239253   4.272   5.281   1.613
 5873TIP3    H139254   4.259   5.325   1.526
 5873TIP3    H239255   4.180   5.254   1.638
 5874TIP3   OH239256   5.469   3.812   0.300
 5874TIP3    H139257   5.371   3.812   0.298
 5874TIP3    H239258   5.487   3.905   0.281
 5875TIP3   OH239259   4.211   4.673   0.439
 5875TIP3    H139260   4.179   4.752   0.390
 5875TIP3    H239261   4.202   4.600   0.376
 5876TIP3   OH239262   5.523   5.252   0.091
 5876TIP3    H139263   5.553   5.344   0.102
 5876TIP3    H239264   5.607   5.205   0.105
 5877TIP3   OH239265   3.845   4.930   1.378
 5877TIP3    H139266   3.814   4.909   1.288
 5877TIP3    H239267   3.859   4.840   1.414
 5878TIP3   OH239268   3.811   5.203   1.048
 5878TIP3    H139269   3.906   5.195   1.061
 5878TIP3    H239270   3.797   5.294   1.076
 5879TIP3   OH239271   5.655   5.267   1.606
 5879TIP3    H139272   5.610   5.182   1.613
 5879TIP3    H239273   5.578   5.326   1.623
 5880TIP3   OH239274   4.677   5.228   1.514
 5880TIP3    H139275   4.682   5.322   1.540
 5880TIP3    H239276   4.581   5.207   1.521
 5881TIP3   OH239277   4.785   5.597   0.443
 5881TIP3    H139278   4.793   5.624   0.349
 5881TIP3    H239279   4.781   5.685   0.486
 5882TIP3   OH239280   4.139   5.474   0.668
 5882TIP3    H139281   4.164   5.444   0.758
 5882TIP3    H239282   4.053   5.429   0.653
 5883TIP3   OH239283   5.075   5.556   0.170
 5883TIP3    H139284   5.126   5.480   0.138
 5883TIP3    H239285   5.072   5.537   0.267
 5884TIP3   OH239286   5.047   5.529   0.435
 5884TIP3    H139287   4.949   5.536   0.447
 5884TIP3    H239288   5.068   5.453   0.490
 5885TIP3   OH239289   4.082   5.076   1.434
 5885TIP3    H139290   4.097   5.045   1.526
 5885TIP3    H239291   3.996   5.035   1.415
 5886TIP3   OH239292   4.323   3.929   1.024
 5886TIP3    H139293   4.227   3.910   1.014
 5886TIP3    H239294   4.321   4.000   1.090
 5887TIP3   OH239295   4.801   3.874   1.382
 5887TIP3    H139296   4.846   3.828   1.455
 5887TIP3    H239297   4.705   3.863   1.404
 5888TIP3   OH239298   5.170   4.779   0.106
 5888TIP3    H139299   5.185   4.785   0.011
 5888TIP3    H239300   5.248   4.829   0.137
 5889TIP3   OH239301   4.767   4.179   0.131
 5889TIP3    H139302   4.716   4.183   0.214
 5889TIP3    H239303   4.740   4.092   0.100
 5890TIP3   OH239304   4.335   4.418   1.196
 5890TIP3    H139305   4.251   4.418   1.246
 5890TIP3    H239306   4.328   4.504   1.147
 5891TIP3   OH239307   4.312   4.407   0.634
 5891TIP3    H139308   4.225   4.363   0.622
 5891TIP3    H239309   4.354   4.384   0.547
 5892TIP3   OH239310   4.887   4.453   0.522
 5892TIP3    H139311   4.865   4.543   0.489
 5892TIP3    H239312   4.954   4.425   0.456
 5893TIP3   OH239313   4.960   4.452   0.841
 5893TIP3    H139314   4.978   4.528   0.783
 5893TIP3    H239315   4.975   4.380   0.777
 5894TIP3   OH239316   4.087   4.404   1.302
 5894TIP3    H139317   4.120   4.440   1.387
 5894TIP3    H239318   4.050   4.317   1.327
 5895TIP3   OH239319   4.414   4.207   0.078
 5895TIP3    H139320   4.381   4.138   0.140
 5895TIP3    H239321   4.393   4.288   0.128
 5896TIP3   OH239322   3.788   4.146   0.763
 5896TIP3    H139323   3.853   4.133   0.835
 5896TIP3    H239324   3.830   4.112   0.683
 5897TIP3   OH239325   3.882   4.202   0.284
 5897TIP3    H139326   3.950   4.251   0.231
 5897TIP3    H239327   3.821   4.277   0.304
 5898TIP3   OH239328   4.900   4.596   1.289
 5898TIP3    H139329   4.967   4.530   1.265
 5898TIP3    H239330   4.847   4.543   1.351
 5899TIP3   OH239331   4.614   4.171   0.760
 5899TIP3    H139332   4.518   4.161   0.773
 5899TIP3    H239333   4.650   4.122   0.838
 5900TIP3   OH239334   4.061   4.305   0.598
 5900TIP3    H139335   3.969   4.303   0.563
 5900TIP3    H239336   4.086   4.208   0.599
 5901TIP3   OH239337   4.401   4.350   0.391
 5901TIP3    H139338   4.498   4.350   0.407
 5901TIP3    H239339   4.389   4.403   0.309
 5902TIP3   OH239340   5.033   4.115   1.096
 5902TIP3    H139341   4.966   4.083   1.158
 5902TIP3    H239342   5.024   4.051   1.023
 5903TIP3   OH239343   4.330   4.467   0.156
 5903TIP3    H139344   4.269   4.448   0.082
 5903TIP3    H239345   4.406   4.508   0.108
 5904TIP3   OH239346   5.349   5.674   1.732
 5904TIP3    H139347   5.393   5.685   1.645
 5904TIP3    H239348   5.427   5.698   1.786
 5905TIP3   OH239349   4.115   4.939   1.674
 5905TIP3    H139350   4.175   4.960   1.749
 5905TIP3    H239351   4.039   4.897   1.722
 5906TIP3   OH239352   4.693   4.393   0.936
 5906TIP3    H139353   4.777   4.399   0.888
 5906TIP3    H239354   4.681   4.297   0.941
 5907TIP3   OH239355   4.159   4.053   0.594
 5907TIP3    H139356   4.118   3.977   0.641
 5907TIP3    H239357   4.179   4.017   0.506
 5908TIP3   OH239358   4.544   4.261   1.162
 5908TIP3    H139359   4.460   4.313   1.168
 5908TIP3    H239360   4.600   4.295   1.232
 5909TIP3   OH239361   4.648   4.902   0.394
 5909TIP3    H139362   4.569   4.855   0.358
 5909TIP3    H239363   4.608   4.938   0.478
 5910TIP3   OH239364   5.370   4.845   1.255
 5910TIP3    H139365   5.417   4.906   1.194
 5910TIP3    H239366   5.286   4.833   1.207
 5911TIP3   OH239367   5.024   4.201   0.167
 5911TIP3    H139368   4.938   4.218   0.126
 5911TIP3    H239369   5.034   4.277   0.226
 5912TIP3   OH239370   4.755   4.947   1.493
 5912TIP3    H139371   4.742   4.930   1.588
 5912TIP3    H239372   4.716   5.037   1.487
 5913TIP3   OH239373   5.100   4.393   0.351
 5913TIP3    H139374   5.157   4.372   0.427
 5913TIP3    H239375   5.143   4.471   0.316
 5914TIP3   OH239376   4.127   4.838   0.901
 5914TIP3    H139377   4.180   4.834   0.818
 5914TIP3    H239378   4.175   4.779   0.962
 5915TIP3   OH239379   4.852   5.040   0.292
 5915TIP3    H139380   4.803   5.122   0.315
 5915TIP3    H239381   4.784   4.972   0.314
 5916TIP3   OH239382   3.849   4.678   1.497
 5916TIP3    H139383   3.830   4.614   1.570
 5916TIP3    H239384   3.796   4.638   1.425
 5917TIP3   OH239385   4.553   4.651   1.621
 5917TIP3    H139386   4.505   4.580   1.575
 5917TIP3    H239387   4.637   4.611   1.648
 5918TIP3   OH239388   5.039   5.211   1.509
 5918TIP3    H139389   4.956   5.213   1.461
 5918TIP3    H239390   5.010   5.240   1.597
 5919TIP3   OH239391   5.549   4.398   0.364
 5919TIP3    H139392   5.518   4.375   0.275
 5919TIP3    H239393   5.580   4.489   0.353
 5920TIP3   OH239394   5.595   4.971   1.579
 5920TIP3    H139395   5.511   4.984   1.526
 5920TIP3    H239396   5.662   4.981   1.509
 5921TIP3   OH239397   5.416   5.252   0.347
 5921TIP3    H139398   5.367   5.169   0.357
 5921TIP3    H239399   5.441   5.253   0.252
 5922TIP3   OH239400   5.138   4.773   1.067
 5922TIP3    H139401   5.044   4.762   1.051
 5922TIP3    H239402   5.179   4.705   1.010
 5923TIP3   OH239403   4.376   5.214   0.667
 5923TIP3    H139404   4.392   5.307   0.638
 5923TIP3    H239405   4.288   5.199   0.629
 5924TIP3   OH239406   3.974   4.684   0.141
 5924TIP3    H139407   4.021   4.751   0.195
 5924TIP3    H239408   3.880   4.704   0.158
 5925TIP3   OH239409   4.531   4.997   0.621
 5925TIP3    H139410   4.477   5.079   0.634
 5925TIP3    H239411   4.523   4.954   0.706
 5926TIP3   OH239412   4.578   5.388   1.307
 5926TIP3    H139413   4.642   5.457   1.279
 5926TIP3    H239414   4.632   5.337   1.370
 5927TIP3   OH239415   4.392   5.465   0.575
 5927TIP3    H139416   4.296   5.471   0.595
 5927TIP3    H239417   4.420   5.549   0.618
 5928TIP3   OH239418   4.914   4.984   1.240
 5928TIP3    H139419   4.876   4.987   1.330
 5928TIP3    H239420   4.974   4.908   1.248
 5929TIP3   OH239421   5.153   5.106   0.194
 5929TIP3    H139422   5.180   5.051   0.271
 5929TIP3    H239423   5.065   5.068   0.183
 5930TIP3   OH239424   5.218   5.422   1.492
 5930TIP3    H139425   5.141   5.361   1.490
 5930TIP3    H239426   5.209   5.469   1.407
 5931TIP3   OH239427   5.592   5.516   0.184
 5931TIP3    H139428   5.649   5.572   0.129
 5931TIP3    H239429   5.531   5.582   0.225
 5932TIP3   OH239430   4.005   4.151   1.395
 5932TIP3    H139431   3.932   4.208   1.426
 5932TIP3    H239432   3.997   4.077   1.458
 5933TIP3   OH239433   5.246   4.915   0.388
 5933TIP3    H139434   5.225   4.837   0.444
 5933TIP3    H239435   5.344   4.914   0.393
 5934TIP3   OH239436   3.977   5.337   1.246
 5934TIP3    H139437   4.045   5.268   1.250
 5934TIP3    H239438   3.982   5.372   1.336
 5935TIP3   OH239439   4.439   5.148   0.262
 5935TIP3    H139440   4.511   5.110   0.313
 5935TIP3    H239441   4.453   5.245   0.275
 5936TIP3   OH239442   4.101   4.874   0.302
 5936TIP3    H139443   4.031   4.915   0.357
 5936TIP3    H239444   4.137   4.951   0.254
 5937TIP3   OH239445   4.874   4.144   1.349
 5937TIP3    H139446   4.955   4.151   1.401
 5937TIP3    H239447   4.846   4.053   1.373
 5938TIP3   OH239448   4.950   4.114   0.471
 5938TIP3    H139449   4.990   4.159   0.396
 5938TIP3    H239450   4.993   4.156   0.549
 5939TIP3   OH239451   4.749   5.282   0.348
 5939TIP3    H139452   4.681   5.349   0.365
 5939TIP3    H239453   4.794   5.320   0.270
 5940TIP3   OH239454   4.651   4.313   0.524
 5940TIP3    H139455   4.734   4.365   0.537
 5940TIP3    H239456   4.642   4.265   0.608
 5941TIP3   OH239457   4.763   4.393   1.398
 5941TIP3    H139458   4.724   4.356   1.479
 5941TIP3    H239459   4.816   4.314   1.370
 5942TIP3   OH239460   4.766   3.952   0.583
 5942TIP3    H139461   4.709   4.016   0.629
 5942TIP3    H239462   4.840   4.009   0.550
 5943TIP3   OH239463   4.471   5.411   0.313
 5943TIP3    H139464   4.496   5.498   0.277
 5943TIP3    H239465   4.432   5.439   0.399
 5944TIP3   OH239466   4.320   4.080   0.287
 5944TIP3    H139467   4.322   4.161   0.340
 5944TIP3    H239468   4.399   4.036   0.323
 5945TIP3   OH239469   5.342   4.171   1.536
 5945TIP3    H139470   5.256   4.216   1.539
 5945TIP3    H239471   5.351   4.150   1.440
 5946TIP3   OH239472   5.231   4.532   0.918
 5946TIP3    H139473   5.164   4.463   0.922
 5946TIP3    H239474   5.301   4.494   0.977
 5947TIP3   OH239475   4.169   5.127   0.166
 5947TIP3    H139476   4.250   5.159   0.212
 5947TIP3    H239477   4.212   5.075   0.096
 5948TIP3   OH239478   3.997   4.406   0.137
 5948TIP3    H139479   4.005   4.504   0.137
 5948TIP3    H239480   3.929   4.392   0.069
 5949TIP3   OH239481   5.328   5.463   1.066
 5949TIP3    H139482   5.337   5.535   1.000
 5949TIP3    H239483   5.422   5.457   1.090
 5950TIP3   OH239484   4.059   3.876   0.996
 5950TIP3    H139485   4.050   3.864   0.899
 5950TIP3    H239486   4.035   3.785   1.023
 5951TIP3   OH239487   3.942   5.288   0.568
 5951TIP3    H139488   3.857   5.318   0.604
 5951TIP3    H239489   3.943   5.337   0.482
 5952TIP3   OH239490   3.874   5.525   1.686
 5952TIP3    H139491   3.929   5.515   1.767
 5952TIP3    H239492   3.835   5.435   1.678
 5953TIP3   OH239493   4.329   5.452   1.836
 5953TIP3    H139494   4.374   5.382   1.885
 5953TIP3    H239495   4.328   5.415   1.745
 5954TIP3   OH239496   4.844   5.398   0.109
 5954TIP3    H139497   4.795   5.336   0.051
 5954TIP3    H239498   4.901   5.441   0.043
 5955TIP3   OH239499   4.967   5.283   1.758
 5955TIP3    H139500   4.926   5.196   1.771
 5955TIP3    H239501   5.037   5.282   1.827
 5956TIP3   OH239502   5.253   5.357   0.030
 5956TIP3    H139503   5.232   5.283   0.090
 5956TIP3    H239504   5.348   5.344   0.019
 5957TIP3   OH239505   3.879   4.860   1.780
 5957TIP3    H139506   3.804   4.811   1.817
 5957TIP3    H239507   3.831   4.927   1.727
 5958TIP3   OH239508   4.336   4.933   0.047
 5958TIP3    H139509   4.403   4.926   0.116
 5958TIP3    H239510   4.377   4.883  -0.027
 5959TIP3   OH239511   4.552   4.923   1.709
 5959TIP3    H139512   4.522   4.989   1.641
 5959TIP3    H239513   4.544   4.837   1.661
 5960TIP3   OH239514   4.012   4.604   1.753
 5960TIP3    H139515   4.060   4.565   1.827
 5960TIP3    H239516   4.006   4.697   1.778
 5961TIP3   OH239517   4.443   4.772   0.269
 5961TIP3    H139518   4.374   4.719   0.313
 5961TIP3    H239519   4.475   4.709   0.202
 5962TIP3   OH239520   4.339   4.534   1.452
 5962TIP3    H139521   4.275   4.604   1.480
 5962TIP3    H239522   4.396   4.581   1.389
 5963TIP3   OH239523   4.557   4.577   0.048
 5963TIP3    H139524   4.589   4.571  -0.044
 5963TIP3    H239525   4.644   4.587   0.095
 5964TIP3   OH239526   5.439   4.846   8.501
 5964TIP3    H139527   5.435   4.807   8.413
 5964TIP3    H239528   5.442   4.940   8.482
 5965TIP3   OH239529   4.447   4.302   1.539
 5965TIP3    H139530   4.438   4.221   1.483
 5965TIP3    H239531   4.418   4.376   1.480
 5966TIP3   OH239532   4.459   4.096   1.360
 5966TIP3    H139533   4.497   4.132   1.277
 5966TIP3    H239534   4.368   4.076   1.329
 5967TIP3   OH239535   4.553   4.675   1.324
 5967TIP3    H139536   4.626   4.721   1.370
 5967TIP3    H239537   4.498   4.751   1.294
 5968TIP3   OH239538   4.285   4.360   1.759
 5968TIP3    H139539   4.197   4.321   1.739
 5968TIP3    H239540   4.338   4.326   1.684
 5969TIP3   OH239541   4.531   3.839   1.387
 5969TIP3    H139542   4.502   3.932   1.383
 5969TIP3    H239543   4.462   3.796   1.335
 5970TIP3   OH239544   4.649   4.303   1.750
 5970TIP3    H139545   4.597   4.296   1.833
 5970TIP3    H239546   4.577   4.297   1.684
 5971TIP3   OH239547   4.884   4.186   1.673
 5971TIP3    H139548   4.797   4.222   1.703
 5971TIP3    H239549   4.872   4.092   1.689
 5972TIP3   OH239550   4.062   4.198   1.791
 5972TIP3    H139551   4.059   4.116   1.738
 5972TIP3    H239552   4.068   4.161   1.883
 5973TIP3   OH239553   4.540   3.791   1.702
 5973TIP3    H139554   4.592   3.709   1.704
 5973TIP3    H239555   4.537   3.802   1.605
 5974TIP3   OH239556   4.543   3.959   1.941
 5974TIP3    H139557   4.556   3.909   1.860
 5974TIP3    H239558   4.506   4.043   1.910
 5975TIP3   OH239559   4.511   5.662   0.211
 5975TIP3    H139560   4.598   5.705   0.221
 5975TIP3    H239561   4.516   5.637   0.118
 5976TIP3   OH239562   3.882   5.084   0.125
 5976TIP3    H139563   3.978   5.102   0.134
 5976TIP3    H239564   3.880   5.056   0.032
 5977TIP3   OH239565   3.767   5.602   0.616
 5977TIP3    H139566   3.687   5.555   0.583
 5977TIP3    H239567   3.789   5.547   0.693
 5978TIP3   OH239568   3.841   5.435   0.826
 5978TIP3    H139569   3.773   5.377   0.864
 5978TIP3    H239570   3.886   5.467   0.909
 5979TIP3   OH239571   5.598   5.503   1.083
 5979TIP3    H139572   5.626   5.533   1.171
 5979TIP3    H239573   5.659   5.550   1.024
 5980TIP3   OH239574   5.550   5.496   1.378
 5980TIP3    H139575   5.514   5.410   1.347
 5980TIP3    H239576   5.599   5.467   1.457
 5981TIP3   OH239577   5.370   5.068   1.934
 5981TIP3    H139578   5.377   5.081   1.838
 5981TIP3    H239579   5.418   5.150   1.964
 5982TIP3   OH239580   5.527   4.882   0.399
 5982TIP3    H139581   5.605   4.941   0.414
 5982TIP3    H239582   5.528   4.833   0.484
 5983TIP3   OH239583   5.563   4.710   0.610
 5983TIP3    H139584   5.488   4.660   0.651
 5983TIP3    H239585   5.626   4.714   0.686
 5984TIP3   OH239586   5.539   4.967   1.101
 5984TIP3    H139587   5.607   4.902   1.074
 5984TIP3    H239588   5.581   5.053   1.078
 5985TIP3   OH239589   5.404   5.248   1.320
 5985TIP3    H139590   5.335   5.290   1.376
 5985TIP3    H239591   5.357   5.235   1.235
 5986TIP3   OH239592   5.595   4.701   0.212
 5986TIP3    H139593   5.528   4.737   0.151
 5986TIP3    H239594   5.585   4.767   0.283
 5987TIP3   OH239595   5.342   4.390   0.115
 5987TIP3    H139596   5.421   4.431   0.077
 5987TIP3    H239597   5.346   4.303   0.070
 5988TIP3   OH239598   5.369   4.551   0.692
 5988TIP3    H139599   5.345   4.461   0.665
 5988TIP3    H239600   5.332   4.555   0.784
 5989TIP3   OH239601   3.834   4.777   1.080
 5989TIP3    H139602   3.828   4.754   0.985
 5989TIP3    H239603   3.925   4.744   1.102
 5990TIP3   OH239604   5.439   4.746   1.650
 5990TIP3    H139605   5.503   4.681   1.684
 5990TIP3    H239606   5.491   4.827   1.632
 5991TIP3   OH239607   5.535   4.466   1.664
 5991TIP3    H139608   5.473   4.423   1.604
 5991TIP3    H239609   5.605   4.399   1.677
 5992TIP3   OH239610   5.352   4.150  -0.024
 5992TIP3    H139611   5.417   4.111   0.038
 5992TIP3    H239612   5.267   4.138   0.022
 5993TIP3   OH239613   5.289   4.308   0.525
 5993TIP3    H139614   5.325   4.220   0.547
 5993TIP3    H239615   5.338   4.323   0.442
 5994TIP3   OH239616   5.394   4.391   1.081
 5994TIP3    H139617   5.492   4.396   1.091
 5994TIP3    H239618   5.368   4.388   1.175
 5995TIP3   OH239619   5.365   4.452   1.343
 5995TIP3    H139620   5.301   4.465   1.416
 5995TIP3    H239621   5.427   4.526   1.358
 5996TIP3   OH239622   3.837   4.270   1.675
 5996TIP3    H139623   3.922   4.259   1.723
 5996TIP3    H239624   3.783   4.196   1.709
 5997TIP3   OH239625   5.580   3.860   1.825
 5997TIP3    H139626   5.635   3.791   1.784
 5997TIP3    H239627   5.602   3.935   1.766
 5998TIP3   OH239628   5.381   4.045   0.513
 5998TIP3    H139629   5.416   4.006   0.597
 5998TIP3    H239630   5.328   3.971   0.477
 5999TIP3   OH239631   3.942   4.125   0.997
 5999TIP3    H139632   3.968   4.032   1.007
 5999TIP3    H239633   4.027   4.171   1.008
 6000TIP3   OH239634   3.792   4.404   1.100
 6000TIP3    H139635   3.849   4.363   1.035
 6000TIP3    H239636   3.841   4.483   1.126
 6001TIP3   OH239637   5.560   4.035   1.626
 6001TIP3    H139638   5.473   4.081   1.630
 6001TIP3    H239639   5.537   3.956   1.571
 6002TIP3   OH239640   5.562   4.064   0.154
 6002TIP3    H139641   5.611   4.008   0.093
 6002TIP3    H239642   5.631   4.124   0.188
 6003TIP3   OH239643   3.801   4.034   0.478
 6003TIP3    H139644   3.705   4.037   0.483
 6003TIP3    H239645   3.814   4.078   0.391
 6004TIP3   OH239646   5.277   5.555   0.693
 6004TIP3    H139647   5.345   5.524   0.630
 6004TIP3    H239648   5.327   5.606   0.759
 6005TIP3   OH239649   3.816   3.910   1.315
 6005TIP3    H139650   3.732   3.874   1.347
 6005TIP3    H239651   3.782   3.974   1.250
 6006TIP3   OH239652   4.034   5.208   1.709
 6006TIP3    H139653   3.949   5.247   1.687
 6006TIP3    H239654   4.010   5.118   1.733
 6007TIP3   OH239655   4.305   5.375   1.366
 6007TIP3    H139656   4.313   5.466   1.330
 6007TIP3    H239657   4.400   5.349   1.360
 6008TIP3   OH239658   4.724   5.481   1.612
 6008TIP3    H139659   4.738   5.452   1.704
 6008TIP3    H239660   4.811   5.525   1.595
 6009TIP3   OH239661   4.954   5.610   1.580
 6009TIP3    H139662   5.025   5.561   1.535
 6009TIP3    H239663   5.003   5.665   1.644
 6010TIP3   OH239664   5.460   3.832   1.483
 6010TIP3    H139665   5.371   3.850   1.450
 6010TIP3    H239666   5.482   3.749   1.433
 6011TIP3   OH239667   4.051   5.672   1.335
 6011TIP3    H139668   3.975   5.731   1.321
 6011TIP3    H239669   4.047   5.654   1.431
 6012TIP3   OH239670   4.303   5.615   1.257
 6012TIP3    H139671   4.212   5.633   1.290
 6012TIP3    H239672   4.295   5.650   1.167
 6013TIP3   OH239673   4.749   5.572   1.179
 6013TIP3    H139674   4.708   5.615   1.102
 6013TIP3    H239675   4.769   5.651   1.235
 6014TIP3   OH239676   4.974   5.456   1.311
 6014TIP3    H139677   4.910   5.502   1.255
 6014TIP3    H239678   5.053   5.514   1.299
 6015TIP3   OH239679   5.211   5.597   1.283
 6015TIP3    H139680   5.233   5.692   1.284
 6015TIP3    H239681   5.251   5.570   1.198
 6016TIP3   OH239682   4.010   5.516   1.035
 6016TIP3    H139683   3.986   5.459   1.111
 6016TIP3    H239684   4.098   5.479   1.011
 6017TIP3   OH239685   4.229   5.413   0.916
 6017TIP3    H139686   4.221   5.318   0.934
 6017TIP3    H239687   4.320   5.430   0.951
 6018TIP3   OH239688   4.458   5.413   1.048
 6018TIP3    H139689   4.488   5.321   1.034
 6018TIP3    H239690   4.486   5.428   1.140
 6019TIP3   OH239691   4.717   4.030   0.956
 6019TIP3    H139692   4.670   3.945   0.968
 6019TIP3    H239693   4.790   4.007   0.898
 6020TIP3   OH239694   5.310   3.820   0.918
 6020TIP3    H139695   5.364   3.876   0.857
 6020TIP3    H239696   5.220   3.833   0.882
 6021TIP3   OH239697   5.482   3.934   0.734
 6021TIP3    H139698   5.538   3.863   0.695
 6021TIP3    H239699   5.547   4.007   0.747
 6022TIP3   OH239700   4.042   3.821   0.719
 6022TIP3    H139701   3.964   3.812   0.660
 6022TIP3    H239702   4.089   3.736   0.701
 6023TIP3   OH239703   3.904   3.834   0.264
 6023TIP3    H139704   3.972   3.888   0.218
 6023TIP3    H239705   3.871   3.897   0.330
 6024TIP3   OH239706   4.467   3.830   0.682
 6024TIP3    H139707   4.552   3.798   0.647
 6024TIP3    H239708   4.491   3.851   0.773
 6025TIP3   OH239709   5.035   3.872   0.838
 6025TIP3    H139710   5.028   3.864   0.742
 6025TIP3    H239711   4.990   3.788   0.863
 6026TIP3   OH239712   5.221   3.838   0.368
 6026TIP3    H139713   5.158   3.840   0.294
 6026TIP3    H239714   5.180   3.771   0.427
 6027TIP3   OH239715   3.921   5.457   0.360
 6027TIP3    H139716   3.829   5.455   0.325
 6027TIP3    H239717   3.939   5.551   0.339
 6028TIP3   OH239718   4.088   3.964   0.120
 6028TIP3    H139719   4.171   3.916   0.104
 6028TIP3    H239720   4.120   4.052   0.142
 6029TIP3   OH239721   4.607   4.086   0.371
 6029TIP3    H139722   4.664   4.023   0.420
 6029TIP3    H239723   4.631   4.170   0.415
 6030TIP3   OH239724   4.805   5.652   0.181
 6030TIP3    H139725   4.885   5.676   0.130
 6030TIP3    H239726   4.812   5.554   0.171
 6031TIP3   OH239727   5.449   5.465   0.509
 6031TIP3    H139728   5.442   5.386   0.449
 6031TIP3    H239729   5.445   5.537   0.443
 6032TIP3   OH239730   4.015   3.930   1.676
 6032TIP3    H139731   3.974   3.842   1.668
 6032TIP3    H239732   4.107   3.906   1.698
 6033TIP3   OH239733   4.225   3.842   1.838
 6033TIP3    H139734   4.318   3.855   1.811
 6033TIP3    H239735   4.230   3.753   1.875
 6034TIP3   OH239736   4.109   5.546   0.073
 6034TIP3    H139737   4.043   5.586   0.133
 6034TIP3    H239738   4.126   5.460   0.114
 6035TIP3   OH239739   5.022   3.759   1.833
 6035TIP3    H139740   5.010   3.697   1.908
 6035TIP3    H239741   5.119   3.756   1.821
 6036TIP3   OH239742   5.439   5.421   1.654
 6036TIP3    H139743   5.366   5.412   1.589
 6036TIP3    H239744   5.398   5.482   1.718
 6037TIP3   OH239745   6.862   4.790   0.684
 6037TIP3    H139746   6.825   4.876   0.656
 6037TIP3    H239747   6.792   4.728   0.658
 6038TIP3   OH239748   6.734   4.657   1.009
 6038TIP3    H139749   6.726   4.624   1.100
 6038TIP3    H239750   6.650   4.633   0.970
 6039TIP3   OH239751   5.929   4.645   1.164
 6039TIP3    H139752   5.919   4.570   1.225
 6039TIP3    H239753   5.970   4.709   1.226
 6040TIP3   OH239754   7.081   5.004   0.870
 6040TIP3    H139755   7.049   4.931   0.926
 6040TIP3    H239756   7.097   5.071   0.940
 6041TIP3   OH239757   6.070   5.153   0.962
 6041TIP3    H139758   6.030   5.064   0.958
 6041TIP3    H239759   6.164   5.127   0.970
 6042TIP3   OH239760   5.707   4.456   0.578
 6042TIP3    H139761   5.677   4.547   0.596
 6042TIP3    H239762   5.628   4.417   0.537
 6043TIP3   OH239763   5.751   4.704   0.811
 6043TIP3    H139764   5.778   4.609   0.818
 6043TIP3    H239765   5.835   4.751   0.825
 6044TIP3   OH239766   6.808   5.539   0.870
 6044TIP3    H139767   6.865   5.470   0.826
 6044TIP3    H239768   6.784   5.490   0.949
 6045TIP3   OH239769   6.559   4.962   1.128
 6045TIP3    H139770   6.584   4.965   1.035
 6045TIP3    H239771   6.647   4.957   1.172
 6046TIP3   OH239772   6.842   4.383   1.125
 6046TIP3    H139773   6.874   4.292   1.134
 6046TIP3    H239774   6.851   4.398   1.029
 6047TIP3   OH239775   6.178   4.188   0.800
 6047TIP3    H139776   6.211   4.264   0.748
 6047TIP3    H239777   6.130   4.138   0.731
 6048TIP3   OH239778   6.985   4.210   0.616
 6048TIP3    H139779   7.036   4.186   0.697
 6048TIP3    H239780   6.899   4.239   0.654
 6049TIP3   OH239781   5.836   4.448   0.880
 6049TIP3    H139782   5.887   4.400   0.947
 6049TIP3    H239783   5.870   4.404   0.798
 6050TIP3   OH239784   6.336   4.609   0.844
 6050TIP3    H139785   6.414   4.564   0.884
 6050TIP3    H239786   6.316   4.536   0.781
 6051TIP3   OH239787   6.071   4.084   1.230
 6051TIP3    H139788   6.047   4.140   1.154
 6051TIP3    H239789   5.997   4.108   1.292
 6052TIP3   OH239790   6.775   5.024   0.572
 6052TIP3    H139791   6.756   5.032   0.477
 6052TIP3    H239792   6.741   5.112   0.602
 6053TIP3   OH239793   6.325   4.845   1.220
 6053TIP3    H139794   6.263   4.915   1.254
 6053TIP3    H239795   6.405   4.900   1.199
 6054TIP3   OH239796   7.118   4.167   0.857
 6054TIP3    H139797   7.113   4.076   0.888
 6054TIP3    H239798   7.191   4.205   0.907
 6055TIP3   OH239799   6.054   4.274   1.023
 6055TIP3    H139800   6.110   4.346   1.061
 6055TIP3    H239801   6.106   4.248   0.943
 6056TIP3   OH239802   6.191   5.067   1.304
 6056TIP3    H139803   6.167   5.157   1.278
 6056TIP3    H239804   6.111   5.043   1.358
 6057TIP3   OH239805   5.763   5.006   0.409
 6057TIP3    H139806   5.767   5.060   0.327
 6057TIP3    H239807   5.771   5.073   0.480
 6058TIP3   OH239808   7.131   5.186   1.092
 6058TIP3    H139809   7.039   5.186   1.130
 6058TIP3    H239810   7.144   5.281   1.079
 6059TIP3   OH239811   7.184   4.031   1.134
 6059TIP3    H139812   7.103   4.068   1.094
 6059TIP3    H239813   7.244   4.105   1.115
 6060TIP3   OH239814   6.444   3.809   0.994
 6060TIP3    H139815   6.387   3.735   0.970
 6060TIP3    H239816   6.376   3.878   1.008
 6061TIP3   OH239817   6.967   5.363   0.753
 6061TIP3    H139818   6.987   5.273   0.720
 6061TIP3    H239819   7.040   5.412   0.709
 6062TIP3   OH239820   7.074   5.147   0.613
 6062TIP3    H139821   7.057   5.083   0.541
 6062TIP3    H239822   7.082   5.085   0.689
 6063TIP3   OH239823   7.220   4.985   1.467
 6063TIP3    H139824   7.214   4.934   1.384
 6063TIP3    H239825   7.234   5.077   1.436
 6064TIP3   OH239826   6.698   4.722   0.421
 6064TIP3    H139827   6.624   4.782   0.398
 6064TIP3    H239828   6.775   4.783   0.413
 6065TIP3   OH239829   6.720   4.618   0.154
 6065TIP3    H139830   6.786   4.653   0.218
 6065TIP3    H239831   6.779   4.576   0.090
 6066TIP3   OH239832   7.082   4.755   0.531
 6066TIP3    H139833   7.006   4.775   0.590
 6066TIP3    H239834   7.126   4.684   0.583
 6067TIP3   OH239835   7.033   4.541   1.413
 6067TIP3    H139836   7.056   4.629   1.448
 6067TIP3    H239837   6.960   4.567   1.355
 6068TIP3   OH239838   6.195   4.779   0.701
 6068TIP3    H139839   6.187   4.737   0.613
 6068TIP3    H239840   6.253   4.716   0.748
 6069TIP3   OH239841   6.340   5.107   0.979
 6069TIP3    H139842   6.370   5.085   0.890
 6069TIP3    H239843   6.403   5.061   1.038
 6070TIP3   OH239844   6.218   4.648   1.084
 6070TIP3    H139845   6.249   4.658   0.991
 6070TIP3    H239846   6.271   4.719   1.130
 6071TIP3   OH239847   6.884   5.214   1.177
 6071TIP3    H139848   6.873   5.293   1.234
 6071TIP3    H239849   6.825   5.150   1.222
 6072TIP3   OH239850   6.359   5.103   1.518
 6072TIP3    H139851   6.280   5.147   1.556
 6072TIP3    H239852   6.323   5.075   1.431
 6073TIP3   OH239853   6.950   4.679   0.311
 6073TIP3    H139854   7.006   4.712   0.386
 6073TIP3    H239855   6.992   4.725   0.235
 6074TIP3   OH239856   6.004   4.736   1.403
 6074TIP3    H139857   6.048   4.730   1.490
 6074TIP3    H239858   5.915   4.702   1.431
 6075TIP3   OH239859   6.701   5.269   0.635
 6075TIP3    H139860   6.708   5.324   0.713
 6075TIP3    H239861   6.649   5.322   0.572
 6076TIP3   OH239862   6.155   5.250   1.623
 6076TIP3    H139863   6.148   5.317   1.552
 6076TIP3    H239864   6.062   5.241   1.650
 6077TIP3   OH239865   7.298   3.809   0.281
 6077TIP3    H139866   7.206   3.810   0.313
 6077TIP3    H239867   7.283   3.807   0.186
 6078TIP3   OH239868   6.100   4.676   0.445
 6078TIP3    H139869   6.051   4.755   0.412
 6078TIP3    H239870   6.036   4.605   0.438
 6079TIP3   OH239871   5.730   4.956   1.346
 6079TIP3    H139872   5.662   4.945   1.278
 6079TIP3    H239873   5.762   4.863   1.353
 6080TIP3   OH239874   5.718   5.190   1.035
 6080TIP3    H139875   5.793   5.149   1.079
 6080TIP3    H239876   5.711   5.272   1.086
 6081TIP3   OH239877   6.607   5.216   1.506
 6081TIP3    H139878   6.616   5.291   1.568
 6081TIP3    H239879   6.518   5.179   1.528
 6082TIP3   OH239880   6.658   5.603   0.453
 6082TIP3    H139881   6.674   5.632   0.361
 6082TIP3    H239882   6.667   5.690   0.499
 6083TIP3   OH239883   6.024   5.470   0.657
 6083TIP3    H139884   6.051   5.437   0.746
 6083TIP3    H239885   5.939   5.424   0.641
 6084TIP3   OH239886   6.985   5.537   0.179
 6084TIP3    H139887   7.022   5.458   0.135
 6084TIP3    H239888   6.975   5.506   0.271
 6085TIP3   OH239889   6.904   5.489   0.442
 6085TIP3    H139890   6.810   5.511   0.461
 6085TIP3    H239891   6.926   5.429   0.515
 6086TIP3   OH239892   7.197   4.431   1.673
 6086TIP3    H139893   7.147   4.443   1.590
 6086TIP3    H239894   7.275   4.384   1.638
 6087TIP3   OH239895   5.964   5.066   1.444
 6087TIP3    H139896   5.971   5.025   1.534
 6087TIP3    H239897   5.876   5.033   1.416
 6088TIP3   OH239898   6.217   3.941   1.048
 6088TIP3    H139899   6.127   3.921   1.016
 6088TIP3    H239900   6.194   3.981   1.134
 6089TIP3   OH239901   6.702   3.841   1.377
 6089TIP3    H139902   6.710   3.824   1.472
 6089TIP3    H239903   6.606   3.861   1.369
 6090TIP3   OH239904   6.978   4.284   1.478
 6090TIP3    H139905   6.908   4.274   1.546
 6090TIP3    H239906   6.953   4.367   1.432
 6091TIP3   OH239907   7.076   4.788   0.102
 6091TIP3    H139908   7.092   4.804   0.007
 6091TIP3    H239909   7.129   4.859   0.142
 6092TIP3   OH239910   6.653   4.157   0.122
 6092TIP3    H139911   6.645   4.152   0.218
 6092TIP3    H239912   6.629   4.066   0.101
 6093TIP3   OH239913   6.227   4.405   1.183
 6093TIP3    H139914   6.151   4.411   1.244
 6093TIP3    H239915   6.228   4.499   1.152
 6094TIP3   OH239916   6.250   4.417   0.675
 6094TIP3    H139917   6.158   4.445   0.676
 6094TIP3    H239918   6.263   4.389   0.582
 6095TIP3   OH239919   6.815   4.515   0.542
 6095TIP3    H139920   6.770   4.589   0.496
 6095TIP3    H239921   6.866   4.478   0.468
 6096TIP3   OH239922   6.649   4.501   1.682
 6096TIP3    H139923   6.604   4.420   1.716
 6096TIP3    H239924   6.735   4.491   1.728
 6097TIP3   OH239925   6.873   4.446   0.843
 6097TIP3    H139926   6.845   4.504   0.769
 6097TIP3    H239927   6.831   4.362   0.812
 6098TIP3   OH239928   5.966   4.407   1.319
 6098TIP3    H139929   6.001   4.444   1.402
 6098TIP3    H239930   5.931   4.321   1.349
 6099TIP3   OH239931   6.313   4.196   0.087
 6099TIP3    H139932   6.282   4.137   0.159
 6099TIP3    H239933   6.282   4.284   0.117
 6100TIP3   OH239934   5.658   4.139   0.763
 6100TIP3    H139935   5.716   4.133   0.842
 6100TIP3    H239936   5.712   4.106   0.690
 6101TIP3   OH239937   5.768   4.195   0.285
 6101TIP3    H139938   5.827   4.234   0.219
 6101TIP3    H239939   5.746   4.270   0.344
 6102TIP3   OH239940   6.787   4.604   1.272
 6102TIP3    H139941   6.816   4.532   1.212
 6102TIP3    H239942   6.732   4.553   1.334
 6103TIP3   OH239943   6.442   4.079   0.824
 6103TIP3    H139944   6.358   4.130   0.831
 6103TIP3    H239945   6.513   4.147   0.820
 6104TIP3   OH239946   5.946   4.325   0.659
 6104TIP3    H139947   5.869   4.354   0.605
 6104TIP3    H239948   5.983   4.251   0.608
 6105TIP3   OH239949   6.258   4.327   0.419
 6105TIP3    H139950   6.354   4.330   0.439
 6105TIP3    H239951   6.251   4.380   0.336
 6106TIP3   OH239952   6.908   4.088   1.087
 6106TIP3    H139953   6.829   4.097   1.144
 6106TIP3    H239954   6.867   4.050   1.007
 6107TIP3   OH239955   6.248   4.441   0.157
 6107TIP3    H139956   6.207   4.473   0.075
 6107TIP3    H239957   6.339   4.474   0.141
 6108TIP3   OH239958   7.227   5.673   1.716
 6108TIP3    H139959   7.294   5.665   1.646
 6108TIP3    H239960   7.242   5.765   1.747
 6109TIP3   OH239961   5.962   4.934   1.689
 6109TIP3    H139962   6.013   4.861   1.729
 6109TIP3    H239963   5.875   4.921   1.728
 6110TIP3   OH239964   6.533   4.455   0.932
 6110TIP3    H139965   6.605   4.416   0.878
 6110TIP3    H239966   6.530   4.395   1.008
 6111TIP3   OH239967   6.055   4.039   0.610
 6111TIP3    H139968   5.982   3.989   0.655
 6111TIP3    H239969   6.115   3.966   0.595
 6112TIP3   OH239970   6.440   4.252   1.218
 6112TIP3    H139971   6.370   4.318   1.194
 6112TIP3    H239972   6.520   4.306   1.225
 6113TIP3   OH239973   6.512   4.924   0.398
 6113TIP3    H139974   6.439   4.870   0.361
 6113TIP3    H239975   6.476   4.945   0.487
 6114TIP3   OH239976   7.211   4.845   1.231
 6114TIP3    H139977   7.276   4.833   1.158
 6114TIP3    H239978   7.128   4.831   1.179
 6115TIP3   OH239979   6.912   4.191   0.168
 6115TIP3    H139980   6.822   4.190   0.127
 6115TIP3    H239981   6.915   4.282   0.205
 6116TIP3   OH239982   6.632   4.940   1.520
 6116TIP3    H139983   6.588   4.924   1.604
 6116TIP3    H239984   6.639   5.038   1.521
 6117TIP3   OH239985   6.983   4.411   0.310
 6117TIP3    H139986   7.051   4.398   0.378
 6117TIP3    H239987   6.977   4.508   0.306
 6118TIP3   OH239988   6.036   4.851   0.937
 6118TIP3    H139989   6.101   4.842   0.864
 6118TIP3    H239990   6.057   4.776   0.995
 6119TIP3   OH239991   6.715   5.063   0.297
 6119TIP3    H139992   6.678   5.151   0.317
 6119TIP3    H239993   6.642   5.005   0.326
 6120TIP3   OH239994   5.749   4.693   1.459
 6120TIP3    H139995   5.742   4.666   1.553
 6120TIP3    H239996   5.672   4.646   1.421
 6121TIP3   OH239997   6.413   4.667   1.651
 6121TIP3    H139998   6.388   4.593   1.594
 6121TIP3    H239999   6.510   4.655   1.653
 6122TIP3   OH240000   6.951   5.163   1.535
 6122TIP3    H140001   6.866   5.183   1.495
 6122TIP3    H240002   6.938   5.199   1.624
 6123TIP3   OH240003   7.254   5.307   0.325
 6123TIP3    H140004   7.212   5.243   0.383
 6123TIP3    H240005   7.277   5.252   0.248
 6124TIP3   OH240006   6.996   4.772   1.072
 6124TIP3    H140007   6.906   4.748   1.041
 6124TIP3    H240008   7.046   4.699   1.027
 6125TIP3   OH240009   6.258   5.212   0.669
 6125TIP3    H140010   6.264   5.308   0.655
 6125TIP3    H240011   6.171   5.195   0.631
 6126TIP3   OH240012   5.872   4.688   0.142
 6126TIP3    H140013   5.925   4.747   0.201
 6126TIP3    H240014   5.781   4.701   0.175
 6127TIP3   OH240015   6.394   4.984   0.640
 6127TIP3    H140016   6.349   5.071   0.651
 6127TIP3    H240017   6.331   4.921   0.679
 6128TIP3   OH240018   6.462   5.399   1.340
 6128TIP3    H140019   6.529   5.458   1.301
 6128TIP3    H240020   6.518   5.347   1.401
 6129TIP3   OH240021   6.289   5.476   0.574
 6129TIP3    H140022   6.193   5.484   0.590
 6129TIP3    H240023   6.321   5.541   0.640
 6130TIP3   OH240024   6.796   4.955   1.258
 6130TIP3    H140025   6.793   4.910   1.345
 6130TIP3    H240026   6.861   4.899   1.211
 6131TIP3   OH240027   7.027   5.147   0.210
 6131TIP3    H140028   7.023   5.099   0.295
 6131TIP3    H240029   6.956   5.104   0.162
 6132TIP3   OH240030   7.149   5.425   1.457
 6132TIP3    H140031   7.055   5.404   1.472
 6132TIP3    H240032   7.144   5.499   1.392
 6133TIP3   OH240033   5.866   4.153   1.389
 6133TIP3    H140034   5.792   4.191   1.440
 6133TIP3    H240035   5.895   4.086   1.455
 6134TIP3   OH240036   7.162   4.966   0.388
 6134TIP3    H140037   7.151   4.876   0.430
 6134TIP3    H240038   7.259   4.978   0.401
 6135TIP3   OH240039   5.875   5.336   1.251
 6135TIP3    H140040   5.948   5.276   1.267
 6135TIP3    H240041   5.869   5.381   1.336
 6136TIP3   OH240042   6.319   5.155   0.250
 6136TIP3    H140043   6.380   5.122   0.317
 6136TIP3    H240044   6.328   5.253   0.263
 6137TIP3   OH240045   5.989   4.879   0.288
 6137TIP3    H140046   5.918   4.928   0.334
 6137TIP3    H240047   6.043   4.951   0.250
 6138TIP3   OH240048   6.757   4.123   1.335
 6138TIP3    H140049   6.769   4.216   1.360
 6138TIP3    H240050   6.719   4.087   1.416
 6139TIP3   OH240051   6.825   4.103   0.422
 6139TIP3    H140052   6.870   4.126   0.339
 6139TIP3    H240053   6.888   4.139   0.487
 6140TIP3   OH240054   6.615   5.305   0.346
 6140TIP3    H140055   6.545   5.372   0.352
 6140TIP3    H240056   6.673   5.346   0.278
 6141TIP3   OH240057   6.520   4.278   0.478
 6141TIP3    H140058   6.609   4.316   0.483
 6141TIP3    H240059   6.517   4.238   0.566
 6142TIP3   OH240060   6.649   4.388   1.432
 6142TIP3    H140061   6.647   4.448   1.509
 6142TIP3    H240062   6.560   4.345   1.441
 6143TIP3   OH240063   6.634   3.968   0.564
 6143TIP3    H140064   6.614   4.023   0.643
 6143TIP3    H240065   6.714   4.017   0.534
 6144TIP3   OH240066   6.343   5.420   0.307
 6144TIP3    H140067   6.384   5.500   0.270
 6144TIP3    H240068   6.318   5.453   0.396
 6145TIP3   OH240069   6.212   4.073   0.308
 6145TIP3    H140070   6.207   4.152   0.366
 6145TIP3    H240071   6.280   4.018   0.353
 6146TIP3   OH240072   7.171   4.094   1.465
 6146TIP3    H140073   7.095   4.152   1.488
 6146TIP3    H240074   7.239   4.163   1.466
 6147TIP3   OH240075   7.096   4.555   0.946
 6147TIP3    H140076   7.015   4.523   0.900
 6147TIP3    H240077   7.128   4.471   0.981
 6148TIP3   OH240078   6.059   5.141   0.150
 6148TIP3    H140079   6.144   5.160   0.196
 6148TIP3    H240080   6.093   5.083   0.080
 6149TIP3   OH240081   5.865   4.438   0.075
 6149TIP3    H140082   5.875   4.530   0.110
 6149TIP3    H240083   5.790   4.451   0.014
 6150TIP3   OH240084   7.237   5.458   1.099
 6150TIP3    H140085   7.207   5.513   1.022
 6150TIP3    H240086   7.326   5.438   1.068
 6151TIP3   OH240087   5.956   3.879   0.984
 6151TIP3    H140088   5.956   3.865   0.887
 6151TIP3    H240089   5.924   3.791   1.016
 6152TIP3   OH240090   5.826   5.281   0.575
 6152TIP3    H140091   5.741   5.313   0.606
 6152TIP3    H240092   5.833   5.328   0.490
 6153TIP3   OH240093   5.776   5.526   1.688
 6153TIP3    H140094   5.860   5.510   1.733
 6153TIP3    H240095   5.746   5.435   1.669
 6154TIP3   OH240096   6.703   5.415   0.112
 6154TIP3    H140097   6.643   5.351   0.067
 6154TIP3    H240098   6.756   5.442   0.034
 6155TIP3   OH240099   6.879   5.293   1.761
 6155TIP3    H140100   6.830   5.210   1.785
 6155TIP3    H240101   6.965   5.281   1.808
 6156TIP3   OH240102   7.130   5.354   0.037
 6156TIP3    H140103   7.116   5.305   0.122
 6156TIP3    H240104   7.222   5.384   0.043
 6157TIP3   OH240105   5.687   4.901   1.814
 6157TIP3    H140106   5.706   4.811   1.782
 6157TIP3    H240107   5.650   4.940   1.731
 6158TIP3   OH240108   6.221   4.927   0.024
 6158TIP3    H140109   6.298   4.924   0.083
 6158TIP3    H240110   6.258   4.887  -0.059
 6159TIP3   OH240111   6.425   4.939   1.723
 6159TIP3    H140112   6.391   4.986   1.644
 6159TIP3    H240113   6.385   4.850   1.709
 6160TIP3   OH240114   6.974   4.891   1.490
 6160TIP3    H140115   7.065   4.929   1.488
 6160TIP3    H240116   6.930   4.975   1.512
 6161TIP3   OH240117   5.758   4.657   1.734
 6161TIP3    H140118   5.853   4.636   1.713
 6161TIP3    H240119   5.767   4.654   1.831
 6162TIP3   OH240120   6.329   4.770   0.264
 6162TIP3    H140121   6.255   4.718   0.302
 6162TIP3    H240122   6.373   4.705   0.207
 6163TIP3   OH240123   6.218   4.513   1.452
 6163TIP3    H140124   6.177   4.551   1.533
 6163TIP3    H240125   6.244   4.592   1.404
 6164TIP3   OH240126   6.461   4.572   0.063
 6164TIP3    H140127   6.502   4.536  -0.018
 6164TIP3    H240128   6.543   4.585   0.117
 6165TIP3   OH240129   6.779   4.802   1.837
 6165TIP3    H140130   6.835   4.747   1.777
 6165TIP3    H240131   6.759   4.736   1.905
 6166TIP3   OH240132   6.403   4.296   1.507
 6166TIP3    H140133   6.355   4.215   1.480
 6166TIP3    H240134   6.365   4.361   1.445
 6167TIP3   OH240135   6.304   4.084   1.373
 6167TIP3    H140136   6.351   4.136   1.303
 6167TIP3    H240137   6.213   4.079   1.336
 6168TIP3   OH240138   6.481   4.657   1.330
 6168TIP3    H140139   6.550   4.724   1.326
 6168TIP3    H240140   6.405   4.712   1.301
 6169TIP3   OH240141   6.889   4.412   1.839
 6169TIP3    H140142   6.917   4.357   1.915
 6169TIP3    H240143   6.973   4.425   1.791
 6170TIP3   OH240144   7.007   4.732   1.701
 6170TIP3    H140145   6.965   4.791   1.635
 6170TIP3    H240146   7.100   4.757   1.690
 6171TIP3   OH240147   6.157   4.342   1.766
 6171TIP3    H140148   6.100   4.414   1.800
 6171TIP3    H240149   6.163   4.374   1.676
 6172TIP3   OH240150   6.433   3.839   1.353
 6172TIP3    H140151   6.385   3.925   1.366
 6172TIP3    H240152   6.360   3.779   1.333
 6173TIP3   OH240153   6.522   4.264   1.763
 6173TIP3    H140154   6.459   4.249   1.836
 6173TIP3    H240155   6.462   4.258   1.686
 6174TIP3   OH240156   6.786   4.198   1.664
 6174TIP3    H140157   6.696   4.208   1.702
 6174TIP3    H240158   6.842   4.187   1.743
 6175TIP3   OH240159   7.023   4.067   1.843
 6175TIP3    H140160   6.984   3.979   1.841
 6175TIP3    H240161   6.984   4.106   1.924
 6176TIP3   OH240162   5.939   4.137   1.828
 6176TIP3    H140163   6.036   4.155   1.832
 6176TIP3    H240164   5.909   4.186   1.906
 6177TIP3   OH240165   6.424   3.810   1.624
 6177TIP3    H140166   6.501   3.752   1.642
 6177TIP3    H240167   6.424   3.812   1.526
 6178TIP3   OH240168   6.457   3.964   1.864
 6178TIP3    H140169   6.429   3.917   1.783
 6178TIP3    H240170   6.373   3.984   1.907
 6179TIP3   OH240171   6.446   5.637   0.170
 6179TIP3    H140172   6.507   5.712   0.187
 6179TIP3    H240173   6.458   5.621   0.074
 6180TIP3   OH240174   5.759   5.086   0.127
 6180TIP3    H140175   5.856   5.097   0.125
 6180TIP3    H240176   5.740   5.068   0.034
 6181TIP3   OH240177   5.672   5.598   0.600
 6181TIP3    H140178   5.587   5.552   0.580
 6181TIP3    H240179   5.701   5.548   0.679
 6182TIP3   OH240180   5.745   5.450   0.811
 6182TIP3    H140181   5.695   5.373   0.845
 6182TIP3    H240182   5.801   5.474   0.888
 6183TIP3   OH240183   7.272   5.000   1.855
 6183TIP3    H140184   7.178   5.026   1.862
 6183TIP3    H240185   7.311   5.081   1.893
 6184TIP3   OH240186   7.296   5.221   1.332
 6184TIP3    H140187   7.241   5.294   1.364
 6184TIP3    H240188   7.261   5.209   1.242
 6185TIP3   OH240189   7.304   4.385   0.115
 6185TIP3    H140190   7.326   4.444   0.042
 6185TIP3    H240191   7.275   4.305   0.065
 6186TIP3   OH240192   7.209   4.565   0.685
 6186TIP3    H140193   7.163   4.485   0.712
 6186TIP3    H240194   7.227   4.608   0.772
 6187TIP3   OH240195   5.728   4.782   1.077
 6187TIP3    H140196   5.721   4.748   0.985
 6187TIP3    H240197   5.817   4.748   1.103
 6188TIP3   OH240198   7.335   4.718   1.654
 6188TIP3    H140199   7.290   4.695   1.737
 6188TIP3    H240200   7.331   4.815   1.654
 6189TIP3   OH240201   7.179   4.172  -0.003
 6189TIP3    H140202   7.240   4.105   0.028
 6189TIP3    H240203   7.094   4.144   0.036
 6190TIP3   OH240204   7.232   4.300   0.472
 6190TIP3    H140205   7.188   4.241   0.537
 6190TIP3    H240206   7.235   4.250   0.389
 6191TIP3   OH240207   7.244   4.302   1.070
 6191TIP3    H140208   7.315   4.332   1.011
 6191TIP3    H240209   7.269   4.350   1.151
 6192TIP3   OH240210   7.255   4.395   1.345
 6192TIP3    H140211   7.167   4.420   1.380
 6192TIP3    H240212   7.273   4.472   1.288
 6193TIP3   OH240213   5.720   4.255   1.678
 6193TIP3    H140214   5.800   4.251   1.736
 6193TIP3    H240215   5.685   4.165   1.692
 6194TIP3   OH240216   7.204   3.969   0.572
 6194TIP3    H140217   7.289   3.934   0.539
 6194TIP3    H240218   7.141   3.914   0.520
 6195TIP3   OH240219   5.831   4.111   0.985
 6195TIP3    H140220   5.868   4.021   0.998
 6195TIP3    H240221   5.911   4.167   0.992
 6196TIP3   OH240222   5.660   4.408   1.086
 6196TIP3    H140223   5.687   4.374   0.999
 6196TIP3    H240224   5.722   4.481   1.097
 6197TIP3   OH240225   5.658   4.038   0.480
 6197TIP3    H140226   5.560   4.045   0.481
 6197TIP3    H240227   5.681   4.084   0.397
 6198TIP3   OH240228   7.158   5.512   0.657
 6198TIP3    H140229   7.221   5.447   0.623
 6198TIP3    H240230   7.195   5.527   0.746
 6199TIP3   OH240231   5.674   3.901   1.301
 6199TIP3    H140232   5.613   3.868   1.370
 6199TIP3    H240233   5.634   3.985   1.275
 6200TIP3   OH240234   5.892   5.216   1.727
 6200TIP3    H140235   5.811   5.230   1.674
 6200TIP3    H240236   5.855   5.196   1.814
 6201TIP3   OH240237   6.193   5.375   1.365
 6201TIP3    H140238   6.198   5.466   1.328
 6201TIP3    H240239   6.289   5.356   1.372
 6202TIP3   OH240240   6.627   5.493   1.612
 6202TIP3    H140241   6.627   5.466   1.706
 6202TIP3    H240242   6.719   5.527   1.604
 6203TIP3   OH240243   6.873   5.620   1.586
 6203TIP3    H140244   6.950   5.641   1.531
 6203TIP3    H240245   6.892   5.665   1.673
 6204TIP3   OH240246   5.922   5.661   1.339
 6204TIP3    H140247   5.844   5.710   1.304
 6204TIP3    H240248   5.926   5.697   1.429
 6205TIP3   OH240249   6.167   5.616   1.244
 6205TIP3    H140250   6.077   5.631   1.281
 6205TIP3    H240251   6.163   5.670   1.163
 6206TIP3   OH240252   6.666   5.563   1.186
 6206TIP3    H140253   6.608   5.583   1.111
 6206TIP3    H240254   6.650   5.640   1.242
 6207TIP3   OH240255   6.871   5.451   1.311
 6207TIP3    H140256   6.802   5.495   1.257
 6207TIP3    H240257   6.943   5.513   1.292
 6208TIP3   OH240258   7.107   5.625   1.277
 6208TIP3    H140259   7.132   5.718   1.266
 6208TIP3    H240260   7.166   5.580   1.212
 6209TIP3   OH240261   5.901   5.512   1.034
 6209TIP3    H140262   5.885   5.452   1.110
 6209TIP3    H240263   5.992   5.485   1.007
 6210TIP3   OH240264   6.128   5.421   0.911
 6210TIP3    H140265   6.105   5.325   0.925
 6210TIP3    H240266   6.208   5.426   0.966
 6211TIP3   OH240267   6.358   5.395   1.075
 6211TIP3    H140268   6.380   5.303   1.051
 6211TIP3    H240269   6.364   5.391   1.173
 6212TIP3   OH240270   6.699   3.933   0.941
 6212TIP3    H140271   6.612   3.889   0.953
 6212TIP3    H240272   6.674   4.019   0.904
 6213TIP3   OH240273   7.233   3.769   0.919
 6213TIP3    H140274   7.294   3.842   0.903
 6213TIP3    H240275   7.147   3.810   0.895
 6214TIP3   OH240276   5.911   3.834   0.708
 6214TIP3    H140277   5.823   3.805   0.678
 6214TIP3    H240278   5.966   3.754   0.687
 6215TIP3   OH240279   5.809   3.872   0.235
 6215TIP3    H140280   5.870   3.945   0.213
 6215TIP3    H240281   5.767   3.903   0.317
 6216TIP3   OH240282   6.334   3.824   0.700
 6216TIP3    H140283   6.416   3.826   0.649
 6216TIP3    H240284   6.354   3.894   0.765
 6217TIP3   OH240285   6.999   3.860   0.833
 6217TIP3    H140286   6.970   3.925   0.768
 6217TIP3    H240287   6.918   3.806   0.845
 6218TIP3   OH240288   7.051   3.821   0.418
 6218TIP3    H140289   6.969   3.872   0.424
 6218TIP3    H240290   7.018   3.728   0.431
 6219TIP3   OH240291   5.785   5.439   0.359
 6219TIP3    H140292   5.695   5.440   0.321
 6219TIP3    H240293   5.806   5.533   0.341
 6220TIP3   OH240294   5.986   4.064   0.120
 6220TIP3    H140295   6.036   4.002   0.065
 6220TIP3    H240296   6.050   4.076   0.193
 6221TIP3   OH240297   6.513   4.040   0.332
 6221TIP3    H140298   6.556   4.000   0.410
 6221TIP3    H240299   6.510   4.133   0.361
 6222TIP3   OH240300   6.740   5.671   0.205
 6222TIP3    H140301   6.837   5.657   0.196
 6222TIP3    H240302   6.709   5.583   0.173
 6223TIP3   OH240303   5.926   3.921   1.581
 6223TIP3    H140304   5.858   3.866   1.623
 6223TIP3    H240305   5.990   3.933   1.655
 6224TIP3   OH240306   6.114   3.865   1.810
 6224TIP3    H140307   6.194   3.811   1.794
 6224TIP3    H240308   6.073   3.825   1.888
 6225TIP3   OH240309   5.984   5.537   0.062
 6225TIP3    H140310   5.929   5.580   0.128
 6225TIP3    H240311   6.021   5.461   0.109
 6226TIP3   OH240312   7.272   5.372   1.689
 6226TIP3    H140313   7.245   5.343   1.600
 6226TIP3    H240314   7.238   5.464   1.683
 6227TIP3   OH240315   1.190   6.665   0.670
 6227TIP3    H140316   1.167   6.760   0.663
 6227TIP3    H240317   1.113   6.623   0.627
 6228TIP3   OH240318   1.070   6.548   1.021
 6228TIP3    H140319   1.094   6.507   1.108
 6228TIP3    H240320   1.010   6.482   0.983
 6229TIP3   OH240321   0.293   6.582   1.139
 6229TIP3    H140322   0.270   6.513   1.202
 6229TIP3    H240323   0.373   6.617   1.183
 6230TIP3   OH240324   1.401   6.857   0.870
 6230TIP3    H140325   1.389   6.783   0.932
 6230TIP3    H240326   1.424   6.927   0.932
 6231TIP3   OH240327   0.410   6.996   1.003
 6231TIP3    H140328   0.377   6.909   1.035
 6231TIP3    H240329   0.506   6.976   0.995
 6232TIP3   OH240330   0.075   6.308   0.541
 6232TIP3    H140331   0.002   6.369   0.562
 6232TIP3    H240332   0.080   6.255   0.623
 6233TIP3   OH240333   0.119   6.555   0.821
 6233TIP3    H140334   0.126   6.457   0.831
 6233TIP3    H240335   0.152   6.568   0.731
 6234TIP3   OH240336   0.895   6.792   1.119
 6234TIP3    H140337   0.932   6.755   1.037
 6234TIP3    H240338   0.980   6.819   1.162
 6235TIP3   OH240339   1.761   6.010   1.085
 6235TIP3    H140340   1.770   6.036   1.180
 6235TIP3    H240341   1.855   6.003   1.059
 6236TIP3   OH240342   1.250   6.262   1.110
 6236TIP3    H140343   1.272   6.173   1.144
 6236TIP3    H240344   1.265   6.248   1.015
 6237TIP3   OH240345   0.535   6.067   0.810
 6237TIP3    H140346   0.566   6.144   0.760
 6237TIP3    H240347   0.499   6.011   0.739
 6238TIP3   OH240348   1.318   6.080   0.665
 6238TIP3    H140349   1.368   6.061   0.748
 6238TIP3    H240350   1.366   6.158   0.632
 6239TIP3   OH240351   0.142   6.292   0.868
 6239TIP3    H140352   0.201   6.247   0.932
 6239TIP3    H240353   0.184   6.258   0.787
 6240TIP3   OH240354   0.701   6.493   0.838
 6240TIP3    H140355   0.783   6.445   0.859
 6240TIP3    H240356   0.660   6.426   0.779
 6241TIP3   OH240357   1.769   6.098   1.355
 6241TIP3    H140358   1.736   6.185   1.319
 6241TIP3    H240359   1.790   6.132   1.443
 6242TIP3   OH240360   0.428   5.985   1.226
 6242TIP3    H140361   0.399   6.031   1.145
 6242TIP3    H240362   0.362   6.020   1.289
 6243TIP3   OH240363   1.128   6.908   0.562
 6243TIP3    H140364   1.088   6.892   0.474
 6243TIP3    H240365   1.195   6.975   0.541
 6244TIP3   OH240366   0.652   6.725   1.226
 6244TIP3    H140367   0.603   6.804   1.258
 6244TIP3    H240368   0.728   6.765   1.180
 6245TIP3   OH240369   1.501   6.081   0.899
 6245TIP3    H140370   1.524   5.989   0.920
 6245TIP3    H240371   1.569   6.132   0.947
 6246TIP3   OH240372   0.353   6.180   1.029
 6246TIP3    H140373   0.414   6.245   1.071
 6246TIP3    H240374   0.413   6.149   0.958
 6247TIP3   OH240375   0.546   6.961   1.285
 6247TIP3    H140376   0.537   7.054   1.264
 6247TIP3    H240377   0.475   6.956   1.353
 6248TIP3   OH240378   0.106   6.920   0.430
 6248TIP3    H140379   0.106   6.949   0.337
 6248TIP3    H240380   0.163   6.985   0.475
 6249TIP3   OH240381   1.489   7.091   1.119
 6249TIP3    H140382   1.392   7.104   1.111
 6249TIP3    H240383   1.527   7.153   1.055
 6250TIP3   OH240384   1.496   5.907   1.196
 6250TIP3    H140385   1.417   5.937   1.146
 6250TIP3    H240386   1.569   5.949   1.149
 6251TIP3   OH240387   0.782   5.706   0.970
 6251TIP3    H140388   0.731   5.624   0.982
 6251TIP3    H240389   0.710   5.770   0.993
 6252TIP3   OH240390   1.353   7.207   0.764
 6252TIP3    H140391   1.371   7.141   0.693
 6252TIP3    H240392   1.442   7.247   0.773
 6253TIP3   OH240393   1.396   7.003   0.585
 6253TIP3    H140394   1.420   6.946   0.509
 6253TIP3    H240395   1.382   6.937   0.655
 6254TIP3   OH240396   1.620   6.888   1.462
 6254TIP3    H140397   1.626   6.821   1.390
 6254TIP3    H240398   1.623   6.973   1.412
 6255TIP3   OH240399   1.047   6.579   0.423
 6255TIP3    H140400   0.983   6.653   0.408
 6255TIP3    H240401   1.131   6.612   0.385
 6256TIP3   OH240402   1.039   6.494   0.137
 6256TIP3    H140403   1.101   6.526   0.205
 6256TIP3    H240404   1.089   6.419   0.101
 6257TIP3   OH240405   1.798   6.521   1.230
 6257TIP3    H140406   1.745   6.601   1.248
 6257TIP3    H240407   1.860   6.556   1.162
 6258TIP3   OH240408   1.423   6.590   0.540
 6258TIP3    H140409   1.349   6.615   0.600
 6258TIP3    H240410   1.478   6.531   0.597
 6259TIP3   OH240411   1.382   6.406   1.407
 6259TIP3    H140412   1.376   6.465   1.484
 6259TIP3    H240413   1.320   6.451   1.348
 6260TIP3   OH240414   0.534   6.659   0.715
 6260TIP3    H140415   0.532   6.626   0.623
 6260TIP3    H240416   0.602   6.601   0.756
 6261TIP3   OH240417   0.686   6.983   0.960
 6261TIP3    H140418   0.741   6.967   0.881
 6261TIP3    H240419   0.727   6.925   1.027
 6262TIP3   OH240420   0.597   6.511   1.087
 6262TIP3    H140421   0.636   6.526   0.998
 6262TIP3    H240422   0.622   6.591   1.138
 6263TIP3   OH240423   1.231   7.117   1.195
 6263TIP3    H140424   1.268   7.137   1.284
 6263TIP3    H240425   1.225   7.020   1.201
 6264TIP3   OH240426   0.684   6.950   1.557
 6264TIP3    H140427   0.606   6.990   1.597
 6264TIP3    H240428   0.652   6.927   1.468
 6265TIP3   OH240429   1.283   6.560   0.308
 6265TIP3    H140430   1.346   6.575   0.382
 6265TIP3    H240431   1.333   6.598   0.232
 6266TIP3   OH240432   0.435   6.608   1.473
 6266TIP3    H140433   0.435   6.657   1.557
 6266TIP3    H240434   0.339   6.608   1.454
 6267TIP3   OH240435   1.009   7.235   0.729
 6267TIP3    H140436   1.098   7.202   0.710
 6267TIP3    H240437   0.968   7.233   0.641
 6268TIP3   OH240438   0.522   7.198   1.588
 6268TIP3    H140439   0.515   7.219   1.493
 6268TIP3    H240440   0.431   7.167   1.610
 6269TIP3   OH240441   1.693   5.685   0.330
 6269TIP3    H140442   1.600   5.698   0.359
 6269TIP3    H240443   1.708   5.767   0.279
 6270TIP3   OH240444   0.450   6.564   0.460
 6270TIP3    H140445   0.390   6.630   0.418
 6270TIP3    H240446   0.395   6.486   0.464
 6271TIP3   OH240447   1.768   7.106   0.124
 6271TIP3    H140448   1.795   7.190   0.084
 6271TIP3    H240449   1.851   7.056   0.132
 6272TIP3   OH240450   0.142   6.822   1.336
 6272TIP3    H140451   0.058   6.817   1.287
 6272TIP3    H240452   0.154   6.727   1.351
 6273TIP3   OH240453   0.105   7.132   0.960
 6273TIP3    H140454   0.149   7.094   1.038
 6273TIP3    H240455   0.021   7.159   1.000
 6274TIP3   OH240456   1.845   7.172   1.624
 6274TIP3    H140457   1.834   7.079   1.597
 6274TIP3    H240458   1.754   7.194   1.653
 6275TIP3   OH240459   0.879   7.155   1.543
 6275TIP3    H140460   0.918   7.136   1.630
 6275TIP3    H240461   0.799   7.098   1.540
 6276TIP3   OH240462   0.349   6.970   1.456
 6276TIP3    H140463   0.353   6.927   1.545
 6276TIP3    H240464   0.264   6.934   1.423
 6277TIP3   OH240465   0.563   5.832   1.038
 6277TIP3    H140466   0.475   5.801   1.005
 6277TIP3    H240467   0.535   5.893   1.108
 6278TIP3   OH240468   1.045   5.755   1.364
 6278TIP3    H140469   1.079   5.723   1.450
 6278TIP3    H240470   0.948   5.761   1.379
 6279TIP3   OH240471   1.346   6.148   1.458
 6279TIP3    H140472   1.281   6.151   1.532
 6279TIP3    H240473   1.357   6.242   1.434
 6280TIP3   OH240474   1.415   6.650   0.100
 6280TIP3    H140475   1.412   6.669   0.005
 6280TIP3    H240476   1.504   6.683   0.118
 6281TIP3   OH240477   1.006   6.058   0.133
 6281TIP3    H140478   0.959   6.066   0.217
 6281TIP3    H240479   0.962   5.980   0.097
 6282TIP3   OH240480   0.571   6.262   1.175
 6282TIP3    H140481   0.522   6.279   1.257
 6282TIP3    H240482   0.581   6.354   1.139
 6283TIP3   OH240483   0.574   6.310   0.676
 6283TIP3    H140484   0.476   6.306   0.669
 6283TIP3    H240485   0.597   6.281   0.585
 6284TIP3   OH240486   1.115   6.346   0.523
 6284TIP3    H140487   1.093   6.433   0.481
 6284TIP3    H240488   1.190   6.318   0.466
 6285TIP3   OH240489   0.976   6.393   1.700
 6285TIP3    H140490   0.950   6.304   1.733
 6285TIP3    H240491   1.070   6.396   1.723
 6286TIP3   OH240492   1.237   6.307   0.834
 6286TIP3    H140493   1.208   6.381   0.778
 6286TIP3    H240494   1.198   6.232   0.787
 6287TIP3   OH240495   0.301   6.295   1.315
 6287TIP3    H140496   0.333   6.324   1.401
 6287TIP3    H240497   0.273   6.203   1.338
 6288TIP3   OH240498   0.676   6.094   0.080
 6288TIP3    H140499   0.645   6.046   0.157
 6288TIP3    H240500   0.634   6.182   0.091
 6289TIP3   OH240501   0.047   6.058   0.740
 6289TIP3    H140502   0.077   6.022   0.825
 6289TIP3    H240503   0.033   5.979   0.688
 6290TIP3   OH240504   0.156   6.157   0.282
 6290TIP3    H140505   0.192   6.127   0.196
 6290TIP3    H240506   0.092   6.224   0.251
 6291TIP3   OH240507   1.130   6.454   1.264
 6291TIP3    H140508   1.179   6.382   1.218
 6291TIP3    H240509   1.076   6.404   1.329
 6292TIP3   OH240510   0.871   6.045   0.762
 6292TIP3    H140511   0.793   6.055   0.818
 6292TIP3    H240512   0.929   5.989   0.819
 6293TIP3   OH240513   0.310   6.225   0.648
 6293TIP3    H140514   0.260   6.243   0.566
 6293TIP3    H240515   0.342   6.134   0.627
 6294TIP3   OH240516   0.595   6.214   0.427
 6294TIP3    H140517   0.691   6.205   0.438
 6294TIP3    H240518   0.590   6.269   0.346
 6295TIP3   OH240519   1.248   5.972   1.081
 6295TIP3    H140520   1.166   5.960   1.130
 6295TIP3    H240521   1.238   5.915   1.003
 6296TIP3   OH240522   0.578   6.323   0.168
 6296TIP3    H140523   0.509   6.328   0.099
 6296TIP3    H240524   0.648   6.381   0.129
 6297TIP3   OH240525   0.368   6.801   1.666
 6297TIP3    H140526   0.438   6.821   1.730
 6297TIP3    H240527   0.288   6.811   1.721
 6298TIP3   OH240528   0.912   6.326   0.924
 6298TIP3    H140529   1.000   6.299   0.895
 6298TIP3    H240530   0.893   6.261   0.994
 6299TIP3   OH240531   0.384   5.965   0.601
 6299TIP3    H140532   0.332   5.898   0.650
 6299TIP3    H240533   0.392   5.919   0.517
 6300TIP3   OH240534   0.822   6.146   1.196
 6300TIP3    H140535   0.737   6.193   1.184
 6300TIP3    H240536   0.875   6.205   1.252
 6301TIP3   OH240537   0.872   6.780   0.393
 6301TIP3    H140538   0.798   6.736   0.345
 6301TIP3    H240539   0.825   6.805   0.477
 6302TIP3   OH240540   1.615   6.712   1.267
 6302TIP3    H140541   1.660   6.772   1.203
 6302TIP3    H240542   1.522   6.716   1.238
 6303TIP3   OH240543   1.267   6.075   0.184
 6303TIP3    H140544   1.176   6.086   0.151
 6303TIP3    H240545   1.278   6.158   0.235
 6304TIP3   OH240546   1.021   6.898   1.447
 6304TIP3    H140547   0.979   6.811   1.441
 6304TIP3    H240548   1.002   6.923   1.538
 6305TIP3   OH240549   1.327   6.283   0.362
 6305TIP3    H140550   1.394   6.265   0.431
 6305TIP3    H240551   1.366   6.359   0.315
 6306TIP3   OH240552   0.347   6.744   0.915
 6306TIP3    H140553   0.409   6.704   0.849
 6306TIP3    H240554   0.322   6.664   0.968
 6307TIP3   OH240555   1.081   6.922   0.291
 6307TIP3    H140556   1.043   7.011   0.307
 6307TIP3    H240557   1.003   6.865   0.308
 6308TIP3   OH240558   0.116   6.557   1.432
 6308TIP3    H140559   0.100   6.489   1.500
 6308TIP3    H240560   0.062   6.526   1.358
 6309TIP3   OH240561   0.719   6.518   1.683
 6309TIP3    H140562   0.719   6.500   1.588
 6309TIP3    H240563   0.815   6.506   1.699
 6310TIP3   OH240564   1.241   7.115   1.488
 6310TIP3    H140565   1.144   7.114   1.479
 6310TIP3    H240566   1.252   7.052   1.563
 6311TIP3   OH240567   1.806   6.274   0.335
 6311TIP3    H140568   1.744   6.259   0.262
 6311TIP3    H240569   1.820   6.370   0.320
 6312TIP3   OH240570   1.861   6.894   1.565
 6312TIP3    H140571   1.765   6.896   1.541
 6312TIP3    H240572   1.897   6.865   1.478
 6313TIP3   OH240573   1.671   7.087   0.379
 6313TIP3    H140574   1.603   7.018   0.378
 6313TIP3    H240575   1.690   7.101   0.284
 6314TIP3   OH240576   1.370   6.666   1.073
 6314TIP3    H140577   1.278   6.662   1.042
 6314TIP3    H240578   1.409   6.589   1.028
 6315TIP3   OH240579   0.650   7.092   0.668
 6315TIP3    H140580   0.669   7.171   0.613
 6315TIP3    H240581   0.558   7.081   0.646
 6316TIP3   OH240582   0.166   6.523   0.148
 6316TIP3    H140583   0.225   6.577   0.203
 6316TIP3    H240584   0.078   6.535   0.186
 6317TIP3   OH240585   0.747   6.834   0.621
 6317TIP3    H140586   0.726   6.929   0.632
 6317TIP3    H240587   0.707   6.792   0.698
 6318TIP3   OH240588   0.878   7.237   1.250
 6318TIP3    H140589   0.843   7.325   1.277
 6318TIP3    H240590   0.899   7.203   1.340
 6319TIP3   OH240591   0.606  -0.019   0.539
 6319TIP3    H140592   0.525   0.032   0.555
 6319TIP3    H240593   0.668   0.031   0.599
 6320TIP3   OH240594   1.138   6.844   1.217
 6320TIP3    H140595   1.123   6.871   1.311
 6320TIP3    H240596   1.186   6.760   1.231
 6321TIP3   OH240597   1.388   6.976   0.198
 6321TIP3    H140598   1.411   6.913   0.268
 6321TIP3    H240599   1.294   6.954   0.188
 6322TIP3   OH240600   1.434   7.303   1.461
 6322TIP3    H140601   1.363   7.236   1.478
 6322TIP3    H240602   1.381   7.383   1.453
 6323TIP3   OH240603   0.240   6.047   1.416
 6323TIP3    H140604   0.201   6.068   1.503
 6323TIP3    H240605   0.238   5.950   1.420
 6324TIP3   OH240606   1.476   6.808   0.394
 6324TIP3    H140607   1.449   6.731   0.449
 6324TIP3    H240608   1.572   6.792   0.394
 6325TIP3   OH240609   0.310   7.244   1.251
 6325TIP3    H140610   0.264   7.167   1.288
 6325TIP3    H240611   0.243   7.315   1.267
 6326TIP3   OH240612   0.668   7.038   0.257
 6326TIP3    H140613   0.737   6.985   0.302
 6326TIP3    H240614   0.701   7.130   0.269
 6327TIP3   OH240615   0.294   6.739   0.327
 6327TIP3    H140616   0.216   6.788   0.359
 6327TIP3    H240617   0.332   6.799   0.260
 6328TIP3   OH240618   1.104   6.048   1.345
 6328TIP3    H140619   1.197   6.064   1.370
 6328TIP3    H240620   1.095   5.952   1.355
 6329TIP3   OH240621   1.184   5.983   0.438
 6329TIP3    H140622   1.228   6.020   0.359
 6329TIP3    H240623   1.244   6.006   0.512
 6330TIP3   OH240624   0.973   7.169   0.339
 6330TIP3    H140625   0.893   7.226   0.334
 6330TIP3    H240626   1.019   7.204   0.260
 6331TIP3   OH240627   0.885   6.175   0.514
 6331TIP3    H140628   0.964   6.233   0.514
 6331TIP3    H240629   0.884   6.138   0.605
 6332TIP3   OH240630   0.998   6.283   1.438
 6332TIP3    H140631   0.975   6.281   1.533
 6332TIP3    H240632   1.036   6.194   1.420
 6333TIP3   OH240633   0.970   5.847   0.567
 6333TIP3    H140634   0.930   5.906   0.634
 6333TIP3    H240635   1.049   5.901   0.541
 6334TIP3   OH240636   0.738  -0.045   0.298
 6334TIP3    H140637   0.741   0.047   0.264
 6334TIP3    H240638   0.687  -0.032   0.380
 6335TIP3   OH240639   0.532   5.957   0.300
 6335TIP3    H140640   0.528   6.042   0.348
 6335TIP3    H240641   0.618   5.924   0.333
 6336TIP3   OH240642   1.563   6.007   1.531
 6336TIP3    H140643   1.477   6.052   1.519
 6336TIP3    H240644   1.607   6.032   1.447
 6337TIP3   OH240645   1.470   6.444   0.918
 6337TIP3    H140646   1.393   6.384   0.914
 6337TIP3    H240647   1.537   6.389   0.966
 6338TIP3   OH240648   0.367   6.994   0.176
 6338TIP3    H140649   0.443   7.016   0.231
 6338TIP3    H240650   0.414   6.948   0.104
 6339TIP3   OH240651   0.262   6.277   0.054
 6339TIP3    H140652   0.240   6.360   0.100
 6339TIP3    H240653   0.177   6.231   0.050
 6340TIP3   OH240654   0.321   5.758   0.964
 6340TIP3    H140655   0.314   5.733   0.869
 6340TIP3    H240656   0.285   5.677   1.008
 6341TIP3   OH240657   0.227   7.132   0.607
 6341TIP3    H140658   0.145   7.177   0.576
 6341TIP3    H240659   0.288   7.198   0.568
 6342TIP3   OH240660   0.600   7.261   1.913
 6342TIP3    H140661   0.689   7.230   1.888
 6342TIP3    H240662   0.557   7.250   1.828
 6343TIP3   OH240663   1.062   7.267   0.097
 6343TIP3    H140664   0.992   7.238   0.034
 6343TIP3    H240665   1.122   7.314   0.039
 6344TIP3   OH240666   1.215   7.138   1.771
 6344TIP3    H140667   1.247   7.047   1.755
 6344TIP3    H240668   1.301   7.170   1.806
 6345TIP3   OH240669   1.481   7.232   0.030
 6345TIP3    H140670   1.478   7.169   0.104
 6345TIP3    H240671   1.569   7.214  -0.006
 6346TIP3   OH240672   0.139   6.796   1.809
 6346TIP3    H140673   0.077   6.743   1.755
 6346TIP3    H240674   0.078   6.829   1.877
 6347TIP3   OH240675   0.519   6.788   0.068
 6347TIP3    H140676   0.578   6.755   0.138
 6347TIP3    H240677   0.581   6.825   0.003
 6348TIP3   OH240678   1.362   6.778   1.449
 6348TIP3    H140679   1.451   6.812   1.471
 6348TIP3    H240680   1.316   6.806   1.531
 6349TIP3   OH240681   0.201   6.500   1.733
 6349TIP3    H140682   0.242   6.416   1.762
 6349TIP3    H240683   0.232   6.562   1.801
 6350TIP3   OH240684   0.678   6.655   0.251
 6350TIP3    H140685   0.611   6.598   0.294
 6350TIP3    H240686   0.713   6.592   0.184
 6351TIP3   OH240687   0.580   6.390   1.433
 6351TIP3    H140688   0.517   6.460   1.460
 6351TIP3    H240689   0.649   6.446   1.394
 6352TIP3   OH240690   0.764   6.482   0.056
 6352TIP3    H140691   0.779   6.471  -0.040
 6352TIP3    H240692   0.857   6.482   0.091
 6353TIP3   OH240693   1.677   6.739   8.482
 6353TIP3    H140694   1.641   6.773   8.398
 6353TIP3    H240695   1.710   6.819   8.524
 6354TIP3   OH240696   0.681   6.181   1.567
 6354TIP3    H140697   0.682   6.113   1.496
 6354TIP3    H240698   0.666   6.263   1.515
 6355TIP3   OH240699   0.688   5.989   1.363
 6355TIP3    H140700   0.745   6.027   1.292
 6355TIP3    H240701   0.598   6.009   1.332
 6356TIP3   OH240702   0.825   6.580   1.379
 6356TIP3    H140703   0.887   6.584   1.305
 6356TIP3    H240704   0.754   6.639   1.347
 6357TIP3   OH240705   1.263   6.349   1.839
 6357TIP3    H140706   1.272   6.258   1.807
 6357TIP3    H240707   1.287   6.403   1.761
 6358TIP3   OH240708   1.403   6.535   1.655
 6358TIP3    H140709   1.370   6.627   1.658
 6358TIP3    H240710   1.499   6.551   1.661
 6359TIP3   OH240711   0.448   6.294   1.740
 6359TIP3    H140712   0.388   6.220   1.717
 6359TIP3    H240713   0.524   6.277   1.682
 6360TIP3   OH240714   0.771   5.732   1.372
 6360TIP3    H140715   0.730   5.822   1.369
 6360TIP3    H240716   0.697   5.681   1.332
 6361TIP3   OH240717   0.875   6.143   1.791
 6361TIP3    H140718   0.814   6.106   1.859
 6361TIP3    H240719   0.812   6.143   1.716
 6362TIP3   OH240720   1.179   6.129   1.678
 6362TIP3    H140721   1.085   6.113   1.699
 6362TIP3    H240722   1.219   6.058   1.733
 6363TIP3   OH240723   1.250   5.911   1.842
 6363TIP3    H140724   1.302   5.830   1.855
 6363TIP3    H240725   1.279   5.966   1.919
 6364TIP3   OH240726   0.314   6.057   1.771
 6364TIP3    H140727   0.289   5.970   1.738
 6364TIP3    H240728   0.321   6.038   1.868
 6365TIP3   OH240729   0.741   5.659   1.624
 6365TIP3    H140730   0.776   5.569   1.622
 6365TIP3    H240731   0.756   5.686   1.530
 6366TIP3   OH240732   0.799   5.838   1.831
 6366TIP3    H140733   0.745   5.789   1.767
 6366TIP3    H240734   0.736   5.900   1.873
 6367TIP3   OH240735   0.098   6.925   0.135
 6367TIP3    H140736   0.192   6.957   0.138
 6367TIP3    H240737   0.076   6.942   0.043
 6368TIP3   OH240738   0.074   7.402   0.804
 6368TIP3    H140739   0.072   7.309   0.829
 6368TIP3    H240740   0.123   7.443   0.877
 6369TIP3   OH240741   1.653   6.932   1.884
 6369TIP3    H140742   1.567   6.960   1.849
 6369TIP3    H240743   1.689   7.010   1.932
 6370TIP3   OH240744   1.764   6.747   0.405
 6370TIP3    H140745   1.828   6.817   0.427
 6370TIP3    H240746   1.760   6.698   0.490
 6371TIP3   OH240747   1.784   6.566   0.623
 6371TIP3    H140748   1.708   6.513   0.657
 6371TIP3    H240749   1.841   6.569   0.703
 6372TIP3   OH240750   1.783   6.859   1.126
 6372TIP3    H140751   1.819   6.791   1.066
 6372TIP3    H240752   1.829   6.940   1.097
 6373TIP3   OH240753   1.629   7.134   1.345
 6373TIP3    H140754   1.554   7.186   1.382
 6373TIP3    H240755   1.595   7.118   1.254
 6374TIP3   OH240756   1.788   6.529   0.235
 6374TIP3    H140757   1.723   6.552   0.167
 6374TIP3    H240758   1.777   6.605   0.297
 6375TIP3   OH240759   1.598   6.279   0.104
 6375TIP3    H140760   1.676   6.320   0.062
 6375TIP3    H240761   1.601   6.194   0.056
 6376TIP3   OH240762   1.581   6.411   0.675
 6376TIP3    H140763   1.567   6.318   0.646
 6376TIP3    H240764   1.548   6.412   0.767
 6377TIP3   OH240765   0.029   6.673   1.039
 6377TIP3    H140766   0.042   6.641   0.947
 6377TIP3    H240767   0.123   6.668   1.067
 6378TIP3   OH240768   1.703   6.590   1.654
 6378TIP3    H140769   1.780   6.615   1.599
 6378TIP3    H240770   1.672   6.678   1.679
 6379TIP3   OH240771   1.589   6.035  -0.009
 6379TIP3    H140772   1.641   5.990   0.062
 6379TIP3    H240773   1.496   6.023   0.018
 6380TIP3   OH240774   1.531   6.199   0.524
 6380TIP3    H140775   1.557   6.107   0.549
 6380TIP3    H240776   1.577   6.204   0.439
 6381TIP3   OH240777   1.632   6.283   1.052
 6381TIP3    H140778   1.730   6.279   1.066
 6381TIP3    H240779   1.604   6.268   1.143
 6382TIP3   OH240780   1.638   6.323   1.336
 6382TIP3    H140781   1.550   6.352   1.368
 6382TIP3    H240782   1.676   6.405   1.296
 6383TIP3   OH240783   0.086   6.175   1.697
 6383TIP3    H140784   0.173   6.147   1.734
 6383TIP3    H240785   0.036   6.093   1.684
 6384TIP3   OH240786   1.603   5.937   0.511
 6384TIP3    H140787   1.642   5.907   0.596
 6384TIP3    H240788   1.554   5.857   0.484
 6385TIP3   OH240789   0.154   5.981   0.987
 6385TIP3    H140790   0.212   5.902   0.987
 6385TIP3    H240791   0.216   6.051   1.017
 6386TIP3   OH240792   0.039   6.411   1.152
 6386TIP3    H140793   0.129   6.376   1.143
 6386TIP3    H240794   0.035   6.474   1.077
 6387TIP3   OH240795   1.766   5.956   1.686
 6387TIP3    H140796   1.676   5.974   1.653
 6387TIP3    H240797   1.781   5.871   1.640
 6388TIP3   OH240798   1.773   5.934   0.159
 6388TIP3    H140799   1.833   5.884   0.100
 6388TIP3    H240800   1.837   5.990   0.207
 6389TIP3   OH240801   0.081   5.967   0.466
 6389TIP3    H140802  -0.011   5.975   0.439
 6389TIP3    H240803   0.119   6.048   0.427
 6390TIP3   OH240804   0.053   5.747   1.316
 6390TIP3    H140805  -0.007   5.764   1.389
 6390TIP3    H240806   0.036   5.823   1.257
 6391TIP3   OH240807   0.290   7.149   1.697
 6391TIP3    H140808   0.196   7.152   1.673
 6391TIP3    H240809   0.290   7.087   1.770
 6392TIP3   OH240810   0.562   7.250   1.331
 6392TIP3    H140811   0.472   7.251   1.291
 6392TIP3    H240812   0.620   7.251   1.256
 6393TIP3   OH240813   1.713   5.712   1.506
 6393TIP3    H140814   1.647   5.751   1.447
 6393TIP3    H240815   1.725   5.622   1.467
 6394TIP3   OH240816   0.414   7.228   0.848
 6394TIP3    H140817   0.418   7.146   0.901
 6394TIP3    H240818   0.490   7.272   0.889
 6395TIP3   OH240819   0.653   7.249   1.020
 6395TIP3    H140820   0.640   7.163   0.974
 6395TIP3    H240821   0.709   7.221   1.094
 6396TIP3   OH240822   0.991   5.848   0.899
 6396TIP3    H140823   0.909   5.805   0.931
 6396TIP3    H240824   1.041   5.774   0.863
 6397TIP3   OH240825   1.569   5.696   0.917
 6397TIP3    H140826   1.625   5.756   0.863
 6397TIP3    H240827   1.481   5.707   0.873
 6398TIP3   OH240828   1.716   5.824   0.732
 6398TIP3    H140829   1.763   5.750   0.687
 6398TIP3    H240830   1.791   5.885   0.750
 6399TIP3   OH240831   0.289   5.733   0.686
 6399TIP3    H140832   0.224   5.730   0.614
 6399TIP3    H240833   0.341   5.652   0.666
 6400TIP3   OH240834   0.250   5.736   0.312
 6400TIP3    H140835   0.248   5.827   0.279
 6400TIP3    H240836   0.153   5.721   0.322
 6401TIP3   OH240837   0.724   5.683   0.680
 6401TIP3    H140838   0.809   5.691   0.635
 6401TIP3    H240839   0.744   5.709   0.770
 6402TIP3   OH240840   1.308   5.744   0.814
 6402TIP3    H140841   1.270   5.761   0.727
 6402TIP3    H240842   1.253   5.667   0.844
 6403TIP3   OH240843   1.449   5.720   0.409
 6403TIP3    H140844   1.385   5.763   0.351
 6403TIP3    H240845   1.399   5.638   0.432
 6404TIP3   OH240846   0.141  -0.014   0.455
 6404TIP3    H140847   0.125  -0.038   0.362
 6404TIP3    H240848   0.122   0.081   0.451
 6405TIP3   OH240849   0.270   5.933   0.117
 6405TIP3    H140850   0.340   5.876   0.081
 6405TIP3    H240851   0.320   5.979   0.186
 6406TIP3   OH240852   0.820   5.970   0.351
 6406TIP3    H140853   0.855   5.907   0.417
 6406TIP3    H240854   0.853   6.053   0.391
 6407TIP3   OH240855   0.232   5.793   1.633
 6407TIP3    H140856   0.189   5.706   1.646
 6407TIP3    H240857   0.312   5.783   1.689
 6408TIP3   OH240858   0.440   5.730   1.825
 6408TIP3    H140859   0.518   5.707   1.772
 6408TIP3    H240860   0.419   5.645   1.870
 6409TIP3   OH240861   1.303   5.624   1.877
 6409TIP3    H140862   1.331   5.537   1.911
 6409TIP3    H240863   1.386   5.644   1.828
 6410TIP3   OH240864   1.604   7.282   1.666
 6410TIP3    H140865   1.518   7.268   1.621
 6410TIP3    H240866   1.641   7.351   1.608
 6411TIP3   OH240867   3.075   6.668   0.676
 6411TIP3    H140868   3.053   6.764   0.668
 6411TIP3    H240869   3.002   6.627   0.626
 6412TIP3   OH240870   2.967   6.565   1.045
 6412TIP3    H140871   2.974   6.511   1.128
 6412TIP3    H240872   2.907   6.515   0.988
 6413TIP3   OH240873   2.192   6.556   1.212
 6413TIP3    H140874   2.176   6.469   1.251
 6413TIP3    H240875   2.283   6.543   1.179
 6414TIP3   OH240876   3.299   6.852   0.880
 6414TIP3    H140877   3.291   6.790   0.955
 6414TIP3    H240878   3.347   6.926   0.919
 6415TIP3   OH240879   2.328   6.988   1.048
 6415TIP3    H140880   2.296   6.902   1.016
 6415TIP3    H240881   2.424   6.977   1.034
 6416TIP3   OH240882   1.967   6.338   0.556
 6416TIP3    H140883   1.944   6.427   0.588
 6416TIP3    H240884   1.902   6.323   0.486
 6417TIP3   OH240885   1.973   6.551   0.815
 6417TIP3    H140886   2.003   6.458   0.832
 6417TIP3    H240887   2.056   6.602   0.817
 6418TIP3   OH240888   2.773   6.806   1.128
 6418TIP3    H140889   2.817   6.776   1.047
 6418TIP3    H240890   2.851   6.836   1.178
 6419TIP3   OH240891   3.629   5.976   1.130
 6419TIP3    H140892   3.637   6.032   1.210
 6419TIP3    H240893   3.718   5.991   1.094
 6420TIP3   OH240894   3.139   6.271   1.121
 6420TIP3    H140895   3.145   6.175   1.139
 6420TIP3    H240896   3.128   6.265   1.023
 6421TIP3   OH240897   2.426   6.051   0.799
 6421TIP3    H140898   2.439   6.135   0.749
 6421TIP3    H240899   2.379   6.000   0.731
 6422TIP3   OH240900   3.183   6.104   0.679
 6422TIP3    H140901   3.242   6.059   0.744
 6422TIP3    H240902   3.245   6.164   0.634
 6423TIP3   OH240903   2.077   6.321   0.909
 6423TIP3    H140904   2.133   6.268   0.969
 6423TIP3    H240905   2.106   6.282   0.825
 6424TIP3   OH240906   2.559   6.472   0.844
 6424TIP3    H140907   2.645   6.434   0.873
 6424TIP3    H240908   2.534   6.404   0.779
 6425TIP3   OH240909   3.655   6.124   1.350
 6425TIP3    H140910   3.625   6.214   1.325
 6425TIP3    H240911   3.699   6.141   1.434
 6426TIP3   OH240912   2.348   5.978   1.237
 6426TIP3    H140913   2.303   6.027   1.165
 6426TIP3    H240914   2.279   5.983   1.307
 6427TIP3   OH240915   3.015   6.913   0.575
 6427TIP3    H140916   2.984   6.895   0.484
 6427TIP3    H240917   3.002   7.007   0.583
 6428TIP3   OH240918   2.540   6.727   1.227
 6428TIP3    H140919   2.485   6.799   1.264
 6428TIP3    H240920   2.608   6.777   1.176
 6429TIP3   OH240921   3.375   6.020   0.836
 6429TIP3    H140922   3.358   5.974   0.919
 6429TIP3    H240923   3.462   6.058   0.851
 6430TIP3   OH240924   2.279   6.139   1.007
 6430TIP3    H140925   2.342   6.202   1.046
 6430TIP3    H240926   2.334   6.108   0.930
 6431TIP3   OH240927   2.401   6.950   1.328
 6431TIP3    H140928   2.388   7.038   1.290
 6431TIP3    H240929   2.317   6.908   1.302
 6432TIP3   OH240930   2.007   6.933   0.439
 6432TIP3    H140931   1.995   6.954   0.344
 6432TIP3    H240932   2.041   7.015   0.478
 6433TIP3   OH240933   3.379   7.076   1.093
 6433TIP3    H140934   3.286   7.089   1.121
 6433TIP3    H240935   3.390   7.153   1.034
 6434TIP3   OH240936   3.352   5.906   1.206
 6434TIP3    H140937   3.275   5.936   1.153
 6434TIP3    H240938   3.427   5.944   1.156
 6435TIP3   OH240939   2.668   5.712   0.971
 6435TIP3    H140940   2.646   5.620   0.951
 6435TIP3    H240941   2.578   5.749   0.988
 6436TIP3   OH240942   3.234   7.222   0.743
 6436TIP3    H140943   3.253   7.141   0.690
 6436TIP3    H240944   3.321   7.263   0.744
 6437TIP3   OH240945   3.304   6.993   0.612
 6437TIP3    H140946   3.312   6.940   0.530
 6437TIP3    H240947   3.294   6.923   0.679
 6438TIP3   OH240948   3.452   6.923   1.460
 6438TIP3    H140949   3.461   6.851   1.394
 6438TIP3    H240950   3.499   6.995   1.412
 6439TIP3   OH240951   2.924   6.581   0.434
 6439TIP3    H140952   2.862   6.655   0.414
 6439TIP3    H240953   3.007   6.614   0.393
 6440TIP3   OH240954   2.927   6.497   0.144
 6440TIP3    H140955   2.982   6.518   0.222
 6440TIP3    H240956   2.979   6.427   0.102
 6441TIP3   OH240957   3.680   6.556   1.237
 6441TIP3    H140958   3.598   6.609   1.243
 6441TIP3    H240959   3.731   6.608   1.172
 6442TIP3   OH240960   3.300   6.575   0.547
 6442TIP3    H140961   3.236   6.614   0.611
 6442TIP3    H240962   3.363   6.525   0.603
 6443TIP3   OH240963   3.289   6.409   1.478
 6443TIP3    H140964   3.266   6.480   1.542
 6443TIP3    H240965   3.242   6.441   1.400
 6444TIP3   OH240966   2.444   6.662   0.703
 6444TIP3    H140967   2.432   6.632   0.610
 6444TIP3    H240968   2.494   6.589   0.745
 6445TIP3   OH240969   2.584   6.999   0.971
 6445TIP3    H140970   2.602   7.000   0.876
 6445TIP3    H240971   2.668   6.972   1.011
 6446TIP3   OH240972   2.442   6.525   1.084
 6446TIP3    H140973   2.483   6.523   0.994
 6446TIP3    H240974   2.498   6.591   1.131
 6447TIP3   OH240975   3.134   7.141   1.196
 6447TIP3    H140976   3.064   7.193   1.156
 6447TIP3    H240977   3.099   7.050   1.192
 6448TIP3   OH240978   2.597   7.008   1.534
 6448TIP3    H140979   2.533   7.076   1.561
 6448TIP3    H240980   2.573   6.998   1.441
 6449TIP3   OH240981   3.159   6.578   0.317
 6449TIP3    H140982   3.217   6.584   0.397
 6449TIP3    H240983   3.216   6.613   0.245
 6450TIP3   OH240984   2.266   6.614   1.502
 6450TIP3    H140985   2.230   6.626   1.592
 6450TIP3    H240986   2.187   6.607   1.445
 6451TIP3   OH240987   2.921   7.185   0.717
 6451TIP3    H140988   3.017   7.183   0.710
 6451TIP3    H240989   2.890   7.216   0.631
 6452TIP3   OH240990   2.401   7.183   1.629
 6452TIP3    H140991   2.384   7.226   1.541
 6452TIP3    H240992   2.314   7.196   1.674
 6453TIP3   OH240993   3.570   5.684   0.321
 6453TIP3    H140994   3.474   5.696   0.335
 6453TIP3    H240995   3.596   5.772   0.289
 6454TIP3   OH240996   2.331   6.547   0.415
 6454TIP3    H140997   2.275   6.626   0.396
 6454TIP3    H240998   2.268   6.485   0.453
 6455TIP3   OH240999   3.655   7.112   0.134
 6455TIP3    H141000   3.690   7.188   0.086
 6455TIP3    H241001   3.732   7.054   0.148
 6456TIP3   OH241002   1.964   6.825   1.325
 6456TIP3    H141003   1.891   6.829   1.260
 6456TIP3    H241004   1.994   6.734   1.311
 6457TIP3   OH241005   1.938   7.072   1.040
 6457TIP3    H141006   2.020   7.024   1.021
 6457TIP3    H241007   1.965   7.126   1.116
 6458TIP3   OH241008   3.718   7.170   1.629
 6458TIP3    H141009   3.739   7.084   1.588
 6458TIP3    H241010   3.628   7.151   1.664
 6459TIP3   OH241011   2.851   7.136   1.491
 6459TIP3    H141012   2.834   7.232   1.497
 6459TIP3    H241013   2.766   7.096   1.519
 6460TIP3   OH241014   3.417   6.268   1.679
 6460TIP3    H141015   3.367   6.315   1.609
 6460TIP3    H241016   3.437   6.183   1.635
 6461TIP3   OH241017   2.109   6.956   1.502
 6461TIP3    H141018   2.024   6.946   1.552
 6461TIP3    H241019   2.082   6.903   1.424
 6462TIP3   OH241020   2.432   5.805   1.048
 6462TIP3    H141021   2.335   5.801   1.032
 6462TIP3    H241022   2.435   5.870   1.121
 6463TIP3   OH241023   2.922   5.754   1.390
 6463TIP3    H141024   2.954   5.707   1.469
 6463TIP3    H241025   2.825   5.760   1.401
 6464TIP3   OH241026   3.189   6.153   1.497
 6464TIP3    H141027   3.142   6.130   1.580
 6464TIP3    H241028   3.179   6.250   1.493
 6465TIP3   OH241029   3.297   6.662   0.107
 6465TIP3    H141030   3.292   6.698   0.017
 6465TIP3    H241031   3.385   6.698   0.130
 6466TIP3   OH241032   2.884   6.065   0.140
 6466TIP3    H141033   2.834   6.050   0.223
 6466TIP3    H241034   2.844   5.997   0.083
 6467TIP3   OH241035   2.464   6.267   1.174
 6467TIP3    H141036   2.397   6.287   1.242
 6467TIP3    H241037   2.471   6.356   1.135
 6468TIP3   OH241038   2.447   6.271   0.657
 6468TIP3    H141039   2.350   6.263   0.645
 6468TIP3    H241040   2.483   6.256   0.567
 6469TIP3   OH241041   3.004   6.334   0.515
 6469TIP3    H141042   2.980   6.423   0.482
 6469TIP3    H241043   3.067   6.307   0.446
 6470TIP3   OH241044   2.895   6.406   1.660
 6470TIP3    H141045   2.846   6.328   1.692
 6470TIP3    H241046   2.951   6.422   1.739
 6471TIP3   OH241047   3.092   6.315   0.853
 6471TIP3    H141048   3.092   6.400   0.806
 6471TIP3    H241049   3.090   6.252   0.780
 6472TIP3   OH241050   2.197   6.279   1.299
 6472TIP3    H141051   2.252   6.318   1.370
 6472TIP3    H241052   2.173   6.191   1.334
 6473TIP3   OH241053   2.545   6.073   0.075
 6473TIP3    H141054   2.525   6.036   0.163
 6473TIP3    H241055   2.518   6.167   0.085
 6474TIP3   OH241056   1.912   6.005   0.775
 6474TIP3    H141057   1.989   6.010   0.834
 6474TIP3    H241058   1.938   6.060   0.699
 6475TIP3   OH241059   1.983   6.083   0.263
 6475TIP3    H141060   2.040   6.124   0.195
 6475TIP3    H241061   1.932   6.163   0.288
 6476TIP3   OH241062   3.002   6.443   1.281
 6476TIP3    H141063   3.062   6.383   1.233
 6476TIP3    H241064   2.954   6.383   1.342
 6477TIP3   OH241065   2.747   6.056   0.777
 6477TIP3    H141066   2.656   6.021   0.774
 6477TIP3    H241067   2.787   6.006   0.849
 6478TIP3   OH241068   2.176   6.203   0.666
 6478TIP3    H141069   2.103   6.237   0.608
 6478TIP3    H241070   2.202   6.119   0.622
 6479TIP3   OH241071   2.523   6.230   0.395
 6479TIP3    H141072   2.620   6.222   0.404
 6479TIP3    H241073   2.506   6.283   0.314
 6480TIP3   OH241074   3.140   5.990   1.073
 6480TIP3    H141075   3.087   5.974   1.155
 6480TIP3    H241076   3.092   5.936   1.006
 6481TIP3   OH241077   2.457   6.322   0.149
 6481TIP3    H141078   2.387   6.331   0.082
 6481TIP3    H241079   2.529   6.375   0.110
 6482TIP3   OH241080   2.207   6.725   1.735
 6482TIP3    H141081   2.277   6.732   1.804
 6482TIP3    H241082   2.130   6.763   1.783
 6483TIP3   OH241083   2.782   6.329   0.910
 6483TIP3    H141084   2.875   6.305   0.900
 6483TIP3    H241085   2.744   6.248   0.950
 6484TIP3   OH241086   2.278   5.959   0.595
 6484TIP3    H141087   2.228   5.890   0.645
 6484TIP3    H241088   2.318   5.907   0.524
 6485TIP3   OH241089   2.706   6.145   1.184
 6485TIP3    H141090   2.623   6.196   1.175
 6485TIP3    H241091   2.758   6.201   1.242
 6486TIP3   OH241092   2.758   6.781   0.392
 6486TIP3    H141093   2.685   6.728   0.352
 6486TIP3    H241094   2.716   6.811   0.477
 6487TIP3   OH241095   3.492   6.748   1.267
 6487TIP3    H141096   3.546   6.812   1.212
 6487TIP3    H241097   3.429   6.718   1.200
 6488TIP3   OH241098   3.151   6.086   0.177
 6488TIP3    H141099   3.056   6.085   0.151
 6488TIP3    H241100   3.160   6.173   0.220
 6489TIP3   OH241101   2.852   6.821   1.472
 6489TIP3    H141102   2.855   6.752   1.539
 6489TIP3    H241103   2.875   6.899   1.524
 6490TIP3   OH241104   3.203   6.302   0.333
 6490TIP3    H141105   3.266   6.272   0.403
 6490TIP3    H241106   3.241   6.387   0.306
 6491TIP3   OH241107   2.282   6.733   0.925
 6491TIP3    H141108   2.332   6.739   0.842
 6491TIP3    H241109   2.327   6.661   0.972
 6492TIP3   OH241110   2.960   6.931   0.295
 6492TIP3    H141111   2.912   7.016   0.300
 6492TIP3    H241112   2.889   6.869   0.318
 6493TIP3   OH241113   1.953   6.578   1.475
 6493TIP3    H141114   1.969   6.515   1.547
 6493TIP3    H241115   1.917   6.522   1.404
 6494TIP3   OH241116   2.632   6.528   1.650
 6494TIP3    H141117   2.657   6.526   1.555
 6494TIP3    H241118   2.718   6.513   1.694
 6495TIP3   OH241119   3.116   7.153   1.537
 6495TIP3    H141120   3.024   7.145   1.504
 6495TIP3    H241121   3.115   7.094   1.615
 6496TIP3   OH241122   3.677   6.275   0.342
 6496TIP3    H141123   3.617   6.263   0.265
 6496TIP3    H241124   3.703   6.367   0.322
 6497TIP3   OH241125   3.689   6.875   1.596
 6497TIP3    H141126   3.597   6.901   1.574
 6497TIP3    H241127   3.731   6.869   1.508
 6498TIP3   OH241128   3.558   7.094   0.395
 6498TIP3    H141129   3.492   7.028   0.373
 6498TIP3    H241130   3.575   7.138   0.310
 6499TIP3   OH241131   3.271   6.647   1.070
 6499TIP3    H141132   3.177   6.646   1.044
 6499TIP3    H241133   3.308   6.577   1.013
 6500TIP3   OH241134   2.502   7.065   0.689
 6500TIP3    H141135   2.521   7.158   0.672
 6500TIP3    H241136   2.431   7.045   0.626
 6501TIP3   OH241137   2.073   6.588   0.110
 6501TIP3    H141138   2.123   6.633   0.181
 6501TIP3    H241139   1.986   6.578   0.151
 6502TIP3   OH241140   2.644   6.843   0.631
 6502TIP3    H141141   2.606   6.933   0.642
 6502TIP3    H241142   2.583   6.793   0.688
 6503TIP3   OH241143   2.661   7.178   1.261
 6503TIP3    H141144   2.696   7.269   1.270
 6503TIP3    H241145   2.737   7.126   1.292
 6504TIP3   OH241146   2.466  -0.007   0.522
 6504TIP3    H141147   2.398  -0.033   0.586
 6504TIP3    H241148   2.531   0.038   0.583
 6505TIP3   OH241149   3.005   6.846   1.245
 6505TIP3    H141150   2.967   6.840   1.336
 6505TIP3    H241151   3.021   6.753   1.224
 6506TIP3   OH241152   3.283   6.952   0.191
 6506TIP3    H141153   3.312   6.897   0.266
 6506TIP3    H241154   3.187   6.936   0.195
 6507TIP3   OH241155   3.317   7.303   1.404
 6507TIP3    H141156   3.256   7.227   1.389
 6507TIP3    H241157   3.295   7.362   1.331
 6508TIP3   OH241158   2.154   6.029   1.426
 6508TIP3    H141159   2.079   6.068   1.473
 6508TIP3    H241160   2.173   5.950   1.480
 6509TIP3   OH241161   3.365   6.802   0.408
 6509TIP3    H141162   3.344   6.722   0.460
 6509TIP3    H241163   3.462   6.799   0.412
 6510TIP3   OH241164   2.059   7.143   1.309
 6510TIP3    H141165   2.071   7.087   1.388
 6510TIP3    H241166   2.012   7.222   1.342
 6511TIP3   OH241167   2.572   7.033   0.253
 6511TIP3    H141168   2.637   6.968   0.281
 6511TIP3    H241169   2.608   7.117   0.283
 6512TIP3   OH241170   2.188   6.752   0.305
 6512TIP3    H141171   2.143   6.803   0.374
 6512TIP3    H241172   2.234   6.825   0.257
 6513TIP3   OH241173   3.036   5.994   1.329
 6513TIP3    H141174   3.102   6.029   1.393
 6513TIP3    H241175   2.989   5.925   1.379
 6514TIP3   OH241176   3.082   6.002   0.457
 6514TIP3    H141177   3.147   6.036   0.394
 6514TIP3    H241178   3.113   6.042   0.542
 6515TIP3   OH241179   2.822   7.173   0.322
 6515TIP3    H141180   2.743   7.227   0.303
 6515TIP3    H241181   2.888   7.215   0.262
 6516TIP3   OH241182   2.770   6.179   0.522
 6516TIP3    H141183   2.855   6.227   0.520
 6516TIP3    H241184   2.764   6.147   0.615
 6517TIP3   OH241185   2.871   6.259   1.430
 6517TIP3    H141186   2.863   6.299   1.520
 6517TIP3    H241187   2.920   6.177   1.448
 6518TIP3   OH241188   2.874   5.853   0.554
 6518TIP3    H141189   2.825   5.902   0.623
 6518TIP3    H241190   2.952   5.911   0.536
 6519TIP3   OH241191   2.595  -0.011   0.285
 6519TIP3    H141192   2.636   0.077   0.290
 6519TIP3    H241193   2.534  -0.008   0.362
 6520TIP3   OH241194   2.436   5.965   0.307
 6520TIP3    H141195   2.439   6.046   0.362
 6520TIP3    H241196   2.515   5.917   0.338
 6521TIP3   OH241197   3.442   6.041   1.530
 6521TIP3    H141198   3.348   6.059   1.509
 6521TIP3    H241199   3.484   6.056   1.444
 6522TIP3   OH241200   3.351   6.421   0.906
 6522TIP3    H141201   3.278   6.360   0.928
 6522TIP3    H241202   3.421   6.386   0.965
 6523TIP3   OH241203   2.271   6.976   0.183
 6523TIP3    H141204   2.325   7.055   0.201
 6523TIP3    H241205   2.326   6.939   0.111
 6524TIP3   OH241206   2.085   6.305   0.092
 6524TIP3    H141207   2.110   6.397   0.109
 6524TIP3    H241208   2.020   6.313   0.021
 6525TIP3   OH241209   2.165   5.755   1.012
 6525TIP3    H141210   2.159   5.757   0.914
 6525TIP3    H241211   2.135   5.663   1.031
 6526TIP3   OH241212   2.128   7.146   0.613
 6526TIP3    H141213   2.035   7.127   0.630
 6526TIP3    H241214   2.114   7.212   0.542
 6527TIP3   OH241215   2.468   7.223   1.896
 6527TIP3    H141216   2.510   7.308   1.876
 6527TIP3    H241217   2.475   7.176   1.812
 6528TIP3   OH241218   2.948   7.269   0.103
 6528TIP3    H141219   2.888   7.221   0.042
 6528TIP3    H241220   3.012   7.305   0.042
 6529TIP3   OH241221   3.153   7.076   1.805
 6529TIP3    H141222   3.112   7.003   1.857
 6529TIP3    H241223   3.231   7.095   1.860
 6530TIP3   OH241224   3.360   7.199   0.055
 6530TIP3    H141225   3.359   7.112   0.100
 6530TIP3    H241226   3.448   7.198   0.014
 6531TIP3   OH241227   1.963   6.817   1.817
 6531TIP3    H141228   1.923   6.729   1.819
 6531TIP3    H241229   1.891   6.875   1.785
 6532TIP3   OH241230   2.445   6.782   0.068
 6532TIP3    H141231   2.481   6.742   0.149
 6532TIP3    H241232   2.506   6.751  -0.002
 6533TIP3   OH241233   2.646   6.790   1.711
 6533TIP3    H141234   2.659   6.836   1.627
 6533TIP3    H241235   2.636   6.696   1.685
 6534TIP3   OH241236   3.220   6.807   1.529
 6534TIP3    H141237   3.306   6.852   1.511
 6534TIP3    H241238   3.159   6.881   1.531
 6535TIP3   OH241239   2.051   6.492   1.793
 6535TIP3    H141240   2.132   6.438   1.784
 6535TIP3    H241241   2.081   6.561   1.854
 6536TIP3   OH241242   2.552   6.640   0.267
 6536TIP3    H141243   2.482   6.590   0.316
 6536TIP3    H241244   2.586   6.574   0.203
 6537TIP3   OH241245   2.411   6.417   1.406
 6537TIP3    H141246   2.373   6.475   1.476
 6537TIP3    H241247   2.495   6.462   1.394
 6538TIP3   OH241248   2.657   6.473   0.054
 6538TIP3    H141249   2.688   6.469  -0.038
 6538TIP3    H241250   2.743   6.465   0.102
 6539TIP3   OH241251   3.554   6.737   8.498
 6539TIP3    H141252   3.513   6.755   8.412
 6539TIP3    H241253   3.590   6.823   8.522
 6540TIP3   OH241254   2.516   6.197   1.553
 6540TIP3    H141255   2.536   6.118   1.500
 6540TIP3    H241256   2.499   6.267   1.486
 6541TIP3   OH241257   2.594   5.989   1.366
 6541TIP3    H141258   2.651   6.036   1.301
 6541TIP3    H241259   2.505   5.992   1.327
 6542TIP3   OH241260   2.700   6.579   1.389
 6542TIP3    H141261   2.776   6.543   1.342
 6542TIP3    H241262   2.660   6.640   1.323
 6543TIP3   OH241263   3.187   6.282   1.830
 6543TIP3    H141264   3.241   6.205   1.856
 6543TIP3    H241265   3.254   6.332   1.782
 6544TIP3   OH241266   3.300   6.598   1.677
 6544TIP3    H141267   3.275   6.679   1.627
 6544TIP3    H241268   3.398   6.603   1.679
 6545TIP3   OH241269   2.309   6.296   1.746
 6545TIP3    H141270   2.259   6.213   1.754
 6545TIP3    H241271   2.400   6.265   1.728
 6546TIP3   OH241272   2.651   5.731   1.366
 6546TIP3    H141273   2.624   5.826   1.369
 6546TIP3    H241274   2.576   5.693   1.317
 6547TIP3   OH241275   2.762   6.176   1.761
 6547TIP3    H141276   2.748   6.147   1.853
 6547TIP3    H241277   2.685   6.134   1.718
 6548TIP3   OH241278   3.020   6.069   1.689
 6548TIP3    H141279   2.938   6.109   1.720
 6548TIP3    H241280   3.038   6.011   1.766
 6549TIP3   OH241281   3.170   5.925   1.890
 6549TIP3    H141282   3.171   5.827   1.873
 6549TIP3    H241283   3.150   5.931   1.985
 6550TIP3   OH241284   2.138   6.037   1.791
 6550TIP3    H141285   2.133   5.963   1.726
 6550TIP3    H241286   2.167   5.988   1.869
 6551TIP3   OH241287   2.605   5.699   1.634
 6551TIP3    H141288   2.687   5.667   1.673
 6551TIP3    H241289   2.623   5.698   1.537
 6552TIP3   OH241290   1.993   6.946   0.124
 6552TIP3    H141291   2.089   6.947   0.141
 6552TIP3    H241292   1.994   6.948   0.027
 6553TIP3   OH241293   1.930   7.367   0.846
 6553TIP3    H141294   1.898   7.280   0.872
 6553TIP3    H241295   2.004   7.383   0.908
 6554TIP3   OH241296   3.550   6.976   1.894
 6554TIP3    H141297   3.475   6.953   1.950
 6554TIP3    H241298   3.608   7.023   1.959
 6555TIP3   OH241299   3.652   6.753   0.405
 6555TIP3    H141300   3.715   6.824   0.425
 6555TIP3    H241301   3.652   6.707   0.492
 6556TIP3   OH241302   3.662   6.571   0.609
 6556TIP3    H141303   3.590   6.505   0.625
 6556TIP3    H241304   3.705   6.574   0.697
 6557TIP3   OH241305   3.668   6.881   1.123
 6557TIP3    H141306   3.726   6.813   1.083
 6557TIP3    H241307   3.711   6.964   1.091
 6558TIP3   OH241308   3.535   7.130   1.317
 6558TIP3    H141309   3.457   7.179   1.345
 6558TIP3    H241310   3.512   7.100   1.226
 6559TIP3   OH241311   3.693   6.533   0.232
 6559TIP3    H141312   3.620   6.555   0.172
 6559TIP3    H241313   3.685   6.608   0.296
 6560TIP3   OH241314   3.482   6.276   0.099
 6560TIP3    H141315   3.562   6.308   0.053
 6560TIP3    H241316   3.481   6.183   0.065
 6561TIP3   OH241317   3.471   6.404   0.673
 6561TIP3    H141318   3.440   6.319   0.634
 6561TIP3    H241319   3.431   6.400   0.763
 6562TIP3   OH241320   1.969   6.642   1.070
 6562TIP3    H141321   1.963   6.609   0.977
 6562TIP3    H241322   2.065   6.636   1.091
 6563TIP3   OH241323   3.575   6.629   1.662
 6563TIP3    H141324   3.617   6.542   1.644
 6563TIP3    H241325   3.638   6.695   1.626
 6564TIP3   OH241326   3.653   6.379   1.615
 6564TIP3    H141327   3.571   6.343   1.655
 6564TIP3    H241328   3.721   6.319   1.653
 6565TIP3   OH241329   3.463   6.031  -0.012
 6565TIP3    H141330   3.515   5.976   0.051
 6565TIP3    H241331   3.371   6.022   0.018
 6566TIP3   OH241332   3.390   6.211   0.505
 6566TIP3    H141333   3.428   6.126   0.538
 6566TIP3    H241334   3.451   6.225   0.430
 6567TIP3   OH241335   3.528   6.273   1.056
 6567TIP3    H141336   3.626   6.266   1.071
 6567TIP3    H241337   3.500   6.272   1.149
 6568TIP3   OH241338   3.510   6.341   1.322
 6568TIP3    H141339   3.443   6.357   1.392
 6568TIP3    H241340   3.559   6.426   1.317
 6569TIP3   OH241341   1.900   6.193   1.724
 6569TIP3    H141342   1.989   6.161   1.745
 6569TIP3    H241343   1.852   6.108   1.713
 6570TIP3   OH241344   3.747   5.779   1.830
 6570TIP3    H141345   3.769   5.699   1.779
 6570TIP3    H241346   3.736   5.846   1.759
 6571TIP3   OH241347   3.501   5.969   0.530
 6571TIP3    H141348   3.529   5.912   0.605
 6571TIP3    H241349   3.448   5.904   0.480
 6572TIP3   OH241350   2.058   5.998   1.036
 6572TIP3    H141351   2.089   5.905   1.032
 6572TIP3    H241352   2.143   6.047   1.023
 6573TIP3   OH241353   1.896   6.279   1.114
 6573TIP3    H141354   1.917   6.209   1.050
 6573TIP3    H241355   1.958   6.349   1.087
 6574TIP3   OH241356   3.692   5.959   1.635
 6574TIP3    H141357   3.606   5.988   1.672
 6574TIP3    H241358   3.658   5.897   1.568
 6575TIP3   OH241359   3.658   5.937   0.155
 6575TIP3    H141360   3.725   5.885   0.108
 6575TIP3    H241361   3.712   6.010   0.190
 6576TIP3   OH241362   1.908   5.934   0.483
 6576TIP3    H141363   1.813   5.948   0.493
 6576TIP3    H241364   1.928   5.990   0.405
 6577TIP3   OH241365   1.892   5.785   1.304
 6577TIP3    H141366   1.834   5.768   1.381
 6577TIP3    H241367   1.857   5.869   1.269
 6578TIP3   OH241368   2.159   7.153   1.741
 6578TIP3    H141369   2.070   7.174   1.707
 6578TIP3    H241370   2.138   7.082   1.804
 6579TIP3   OH241371   2.420   7.228   1.368
 6579TIP3    H141372   2.379   7.276   1.295
 6579TIP3    H241373   2.511   7.212   1.333
 6580TIP3   OH241374   3.569   5.724   1.490
 6580TIP3    H141375   3.489   5.750   1.443
 6580TIP3    H241376   3.579   5.632   1.457
 6581TIP3   OH241377   2.324   7.287   0.808
 6581TIP3    H141378   2.301   7.194   0.791
 6581TIP3    H241379   2.372   7.277   0.892
 6582TIP3   OH241380   2.507   7.255   1.045
 6582TIP3    H141381   2.503   7.173   0.992
 6582TIP3    H241382   2.561   7.219   1.120
 6583TIP3   OH241383   2.969   5.856   0.912
 6583TIP3    H141384   2.898   5.831   0.973
 6583TIP3    H241385   2.939   5.814   0.831
 6584TIP3   OH241386   3.447   5.677   0.908
 6584TIP3    H141387   3.507   5.739   0.861
 6584TIP3    H241388   3.359   5.702   0.870
 6585TIP3   OH241389   3.614   5.804   0.732
 6585TIP3    H141390   3.679   5.747   0.684
 6585TIP3    H241391   3.671   5.882   0.752
 6586TIP3   OH241392   2.155   5.752   0.733
 6586TIP3    H141393   2.063   5.740   0.701
 6586TIP3    H241394   2.196   5.665   0.707
 6587TIP3   OH241395   2.021   5.720   0.257
 6587TIP3    H141396   2.080   5.780   0.206
 6587TIP3    H241397   1.984   5.782   0.322
 6588TIP3   OH241398   2.634   5.783   0.681
 6588TIP3    H141399   2.638   5.713   0.613
 6588TIP3    H241400   2.633   5.729   0.761
 6589TIP3   OH241401   3.211   5.724   0.800
 6589TIP3    H141402   3.179   5.745   0.712
 6589TIP3    H241403   3.146   5.655   0.829
 6590TIP3   OH241404   3.334   5.752   0.416
 6590TIP3    H141405   3.285   5.772   0.335
 6590TIP3    H241406   3.291   5.668   0.447
 6591TIP3   OH241407   1.997   7.299   0.458
 6591TIP3    H141408   1.907   7.289   0.424
 6591TIP3    H241409   2.022   7.384   0.419
 6592TIP3   OH241410   2.199   5.866   0.121
 6592TIP3    H141411   2.284   5.820   0.135
 6592TIP3    H241412   2.222   5.957   0.147
 6593TIP3   OH241413   2.730   5.970   0.363
 6593TIP3    H141414   2.760   5.901   0.426
 6593TIP3    H241415   2.754   6.050   0.415
 6594TIP3   OH241416   2.129   5.795   1.652
 6594TIP3    H141417   2.078   5.711   1.651
 6594TIP3    H241418   2.208   5.769   1.704
 6595TIP3   OH241419   2.367   5.728   1.825
 6595TIP3    H141420   2.453   5.762   1.795
 6595TIP3    H241421   2.392   5.633   1.835
 6596TIP3   OH241422   3.196   5.668   1.833
 6596TIP3    H141423   3.203   5.608   1.910
 6596TIP3    H241424   3.283   5.653   1.792
 6597TIP3   OH241425   3.477   7.269   1.656
 6597TIP3    H141426   3.509   7.275   1.564
 6597TIP3    H241427   3.535   7.335   1.697
 6598TIP3   OH241428   4.962   6.672   0.676
 6598TIP3    H141429   4.944   6.769   0.666
 6598TIP3    H241430   4.897   6.636   0.614
 6599TIP3   OH241431   4.840   6.532   1.021
 6599TIP3    H141432   4.859   6.486   1.106
 6599TIP3    H241433   4.772   6.474   0.982
 6600TIP3   OH241434   4.051   6.552   1.169
 6600TIP3    H141435   4.036   6.482   1.235
 6600TIP3    H241436   4.144   6.571   1.184
 6601TIP3   OH241437   5.179   6.862   0.880
 6601TIP3    H141438   5.142   6.789   0.933
 6601TIP3    H241439   5.167   6.938   0.939
 6602TIP3   OH241440   4.208   7.004   1.009
 6602TIP3    H141441   4.166   6.918   0.989
 6602TIP3    H241442   4.301   6.972   1.015
 6603TIP3   OH241443   3.847   6.331   0.565
 6603TIP3    H141444   3.819   6.420   0.591
 6603TIP3    H241445   3.790   6.315   0.487
 6604TIP3   OH241446   3.830   6.552   0.827
 6604TIP3    H141447   3.861   6.460   0.839
 6604TIP3    H241448   3.913   6.602   0.824
 6605TIP3   OH241449   4.671   6.766   1.102
 6605TIP3    H141450   4.700   6.743   1.012
 6605TIP3    H241451   4.748   6.818   1.132
 6606TIP3   OH241452   5.530   6.012   1.081
 6606TIP3    H141453   5.542   6.038   1.175
 6606TIP3    H241454   5.621   6.024   1.049
 6607TIP3   OH241455   5.022   6.270   1.121
 6607TIP3    H141456   5.039   6.177   1.143
 6607TIP3    H241457   5.023   6.263   1.023
 6608TIP3   OH241458   4.315   6.039   0.802
 6608TIP3    H141459   4.322   6.125   0.753
 6608TIP3    H241460   4.264   5.988   0.736
 6609TIP3   OH241461   5.083   6.110   0.673
 6609TIP3    H141462   5.137   6.064   0.741
 6609TIP3    H241463   5.151   6.164   0.628
 6610TIP3   OH241464   3.947   6.311   0.894
 6610TIP3    H141465   4.010   6.278   0.961
 6610TIP3    H241466   3.991   6.278   0.812
 6611TIP3   OH241467   4.421   6.469   0.839
 6611TIP3    H141468   4.510   6.433   0.858
 6611TIP3    H241469   4.386   6.401   0.778
 6612TIP3   OH241470   5.546   6.105   1.354
 6612TIP3    H141471   5.511   6.192   1.321
 6612TIP3    H241472   5.569   6.131   1.444
 6613TIP3   OH241473   4.209   5.977   1.227
 6613TIP3    H141474   4.170   6.026   1.153
 6613TIP3    H241475   4.150   6.006   1.299
 6614TIP3   OH241476   4.894   6.911   0.566
 6614TIP3    H141477   4.895   6.920   0.468
 6614TIP3    H241478   4.862   6.996   0.598
 6615TIP3   OH241479   4.418   6.730   1.204
 6615TIP3    H141480   4.362   6.803   1.239
 6615TIP3    H241481   4.485   6.779   1.152
 6616TIP3   OH241482   5.259   6.021   0.854
 6616TIP3    H141483   5.221   6.023   0.944
 6616TIP3    H241484   5.352   6.043   0.870
 6617TIP3   OH241485   4.158   6.167   1.025
 6617TIP3    H141486   4.223   6.231   1.060
 6617TIP3    H241487   4.203   6.137   0.943
 6618TIP3   OH241488   4.308   6.945   1.319
 6618TIP3    H141489   4.292   7.041   1.311
 6618TIP3    H241490   4.235   6.920   1.380
 6619TIP3   OH241491   3.886   6.938   0.442
 6619TIP3    H141492   3.879   6.957   0.347
 6619TIP3    H241493   3.928   7.018   0.477
 6620TIP3   OH241494   5.257   7.100   1.127
 6620TIP3    H141495   5.159   7.106   1.120
 6620TIP3    H241496   5.283   7.161   1.056
 6621TIP3   OH241497   5.273   5.919   1.205
 6621TIP3    H141498   5.196   5.939   1.147
 6621TIP3    H241499   5.346   5.948   1.146
 6622TIP3   OH241500   4.558   5.724   0.964
 6622TIP3    H141501   4.525   5.633   0.967
 6622TIP3    H241502   4.478   5.773   0.997
 6623TIP3   OH241503   5.115   7.214   0.756
 6623TIP3    H141504   5.132   7.138   0.696
 6623TIP3    H241505   5.203   7.256   0.759
 6624TIP3   OH241506   5.181   6.987   0.599
 6624TIP3    H141507   5.192   6.928   0.523
 6624TIP3    H241508   5.180   6.926   0.675
 6625TIP3   OH241509   5.348   6.924   1.452
 6625TIP3    H141510   5.353   6.851   1.387
 6625TIP3    H241511   5.373   6.998   1.392
 6626TIP3   OH241512   4.813   6.584   0.424
 6626TIP3    H141513   4.747   6.655   0.406
 6626TIP3    H241514   4.894   6.621   0.383
 6627TIP3   OH241515   4.815   6.497   0.139
 6627TIP3    H141516   4.872   6.517   0.216
 6627TIP3    H241517   4.869   6.431   0.093
 6628TIP3   OH241518   5.549   6.548   1.235
 6628TIP3    H141519   5.496   6.628   1.251
 6628TIP3    H241520   5.608   6.580   1.163
 6629TIP3   OH241521   5.192   6.575   0.540
 6629TIP3    H141522   5.126   6.612   0.603
 6629TIP3    H241523   5.253   6.524   0.598
 6630TIP3   OH241524   5.172   6.404   1.471
 6630TIP3    H141525   5.180   6.482   1.530
 6630TIP3    H241526   5.117   6.440   1.399
 6631TIP3   OH241527   4.314   6.662   0.688
 6631TIP3    H141528   4.299   6.616   0.602
 6631TIP3    H241529   4.362   6.595   0.741
 6632TIP3   OH241530   4.466   6.962   0.980
 6632TIP3    H141531   4.485   6.975   0.885
 6632TIP3    H241532   4.554   6.965   1.020
 6633TIP3   OH241533   4.338   6.512   1.086
 6633TIP3    H141534   4.370   6.517   0.993
 6633TIP3    H241535   4.382   6.590   1.126
 6634TIP3   OH241536   4.979   7.122   1.122
 6634TIP3    H141537   4.956   7.191   1.185
 6634TIP3    H241538   4.981   7.042   1.177
 6635TIP3   OH241539   4.452   7.004   1.550
 6635TIP3    H141540   4.384   7.049   1.603
 6635TIP3    H241541   4.402   6.980   1.470
 6636TIP3   OH241542   5.051   6.568   0.314
 6636TIP3    H141543   5.116   6.578   0.388
 6636TIP3    H241544   5.100   6.602   0.236
 6637TIP3   OH241545   4.178   6.594   1.446
 6637TIP3    H141546   4.162   6.687   1.425
 6637TIP3    H241547   4.104   6.577   1.508
 6638TIP3   OH241548   4.819   7.171   0.722
 6638TIP3    H141549   4.898   7.224   0.738
 6638TIP3    H241550   4.780   7.208   0.642
 6639TIP3   OH241551   4.259   7.185   1.620
 6639TIP3    H141552   4.261   7.229   1.532
 6639TIP3    H241553   4.166   7.197   1.645
 6640TIP3   OH241554   5.448   5.683   0.337
 6640TIP3    H141555   5.350   5.697   0.342
 6640TIP3    H241556   5.475   5.762   0.288
 6641TIP3   OH241557   4.214   6.546   0.438
 6641TIP3    H141558   4.164   6.626   0.411
 6641TIP3    H241559   4.145   6.479   0.444
 6642TIP3   OH241560   5.542   7.122   0.131
 6642TIP3    H141561   5.581   7.209   0.134
 6642TIP3    H241562   5.620   7.063   0.140
 6643TIP3   OH241563   3.847   6.823   1.389
 6643TIP3    H141564   3.812   6.811   1.299
 6643TIP3    H241565   3.886   6.734   1.403
 6644TIP3   OH241566   3.836   7.082   1.048
 6644TIP3    H141567   3.915   7.032   1.020
 6644TIP3    H241568   3.865   7.124   1.132
 6645TIP3   OH241569   5.608   7.167   1.609
 6645TIP3    H141570   5.621   7.090   1.551
 6645TIP3    H241571   5.512   7.158   1.629
 6646TIP3   OH241572   4.653   7.160   1.491
 6646TIP3    H141573   4.717   7.141   1.561
 6646TIP3    H241574   4.576   7.110   1.526
 6647TIP3   OH241575   5.338   6.300   1.663
 6647TIP3    H141576   5.268   6.325   1.600
 6647TIP3    H241577   5.354   6.207   1.641
 6648TIP3   OH241578   4.079   6.941   1.473
 6648TIP3    H141579   4.049   7.012   1.533
 6648TIP3    H241580   3.991   6.913   1.437
 6649TIP3   OH241581   4.325   5.813   1.053
 6649TIP3    H141582   4.233   5.814   1.019
 6649TIP3    H241583   4.312   5.858   1.139
 6650TIP3   OH241584   4.818   5.755   1.386
 6650TIP3    H141585   4.846   5.709   1.467
 6650TIP3    H241586   4.720   5.763   1.397
 6651TIP3   OH241587   5.090   6.150   1.474
 6651TIP3    H141588   5.032   6.120   1.549
 6651TIP3    H241589   5.106   6.244   1.497
 6652TIP3   OH241590   5.181   6.654   0.100
 6652TIP3    H141591   5.187   6.682   0.008
 6652TIP3    H241592   5.261   6.699   0.132
 6653TIP3   OH241593   4.762   6.074   0.121
 6653TIP3    H141594   4.727   6.072   0.212
 6653TIP3    H241595   4.747   5.981   0.098
 6654TIP3   OH241596   4.337   6.278   1.203
 6654TIP3    H141597   4.247   6.280   1.241
 6654TIP3    H241598   4.340   6.370   1.165
 6655TIP3   OH241599   4.316   6.269   0.662
 6655TIP3    H141600   4.220   6.270   0.644
 6655TIP3    H241601   4.351   6.249   0.572
 6656TIP3   OH241602   4.893   6.348   0.538
 6656TIP3    H141603   4.866   6.435   0.498
 6656TIP3    H241604   4.947   6.311   0.465
 6657TIP3   OH241605   4.722   6.383   1.741
 6657TIP3    H141606   4.706   6.293   1.779
 6657TIP3    H241607   4.818   6.392   1.748
 6658TIP3   OH241608   4.991   6.318   0.856
 6658TIP3    H141609   4.969   6.403   0.816
 6658TIP3    H241610   4.978   6.256   0.781
 6659TIP3   OH241611   4.093   6.293   1.309
 6659TIP3    H141612   4.118   6.334   1.392
 6659TIP3    H241613   4.055   6.208   1.340
 6660TIP3   OH241614   4.422   6.063   0.081
 6660TIP3    H141615   4.388   6.001   0.148
 6660TIP3    H241616   4.401   6.149   0.123
 6661TIP3   OH241617   3.771   6.016   0.764
 6661TIP3    H141618   3.846   6.006   0.825
 6661TIP3    H241619   3.805   6.072   0.694
 6662TIP3   OH241620   3.865   6.088   0.267
 6662TIP3    H141621   3.929   6.127   0.205
 6662TIP3    H241622   3.823   6.172   0.294
 6663TIP3   OH241623   4.886   6.449   1.277
 6663TIP3    H141624   4.945   6.381   1.238
 6663TIP3    H241625   4.830   6.397   1.340
 6664TIP3   OH241626   4.619   6.035   0.768
 6664TIP3    H141627   4.524   6.038   0.790
 6664TIP3    H241628   4.661   6.001   0.850
 6665TIP3   OH241629   4.053   6.196   0.677
 6665TIP3    H141630   3.976   6.222   0.621
 6665TIP3    H241631   4.084   6.113   0.633
 6666TIP3   OH241632   4.366   6.226   0.402
 6666TIP3    H141633   4.461   6.240   0.419
 6666TIP3    H241634   4.354   6.273   0.316
 6667TIP3   OH241635   5.066   5.985   1.054
 6667TIP3    H141636   4.996   5.984   1.124
 6667TIP3    H241637   5.034   5.916   0.992
 6668TIP3   OH241638   4.352   6.311   0.154
 6668TIP3    H141639   4.284   6.310   0.084
 6668TIP3    H241640   4.424   6.362   0.110
 6669TIP3   OH241641   4.150   6.786   1.738
 6669TIP3    H141642   4.154   6.881   1.720
 6669TIP3    H241643   4.055   6.774   1.758
 6670TIP3   OH241644   4.673   6.314   0.908
 6670TIP3    H141645   4.766   6.298   0.887
 6670TIP3    H241646   4.651   6.236   0.962
 6671TIP3   OH241647   4.155   5.957   0.596
 6671TIP3    H141648   4.110   5.885   0.647
 6671TIP3    H241649   4.191   5.907   0.520
 6672TIP3   OH241650   4.569   6.145   1.173
 6672TIP3    H141651   4.484   6.194   1.171
 6672TIP3    H241652   4.622   6.202   1.230
 6673TIP3   OH241653   4.643   6.783   0.380
 6673TIP3    H141654   4.565   6.738   0.341
 6673TIP3    H241655   4.607   6.805   0.470
 6674TIP3   OH241656   5.372   6.754   1.254
 6674TIP3    H141657   5.429   6.806   1.193
 6674TIP3    H241658   5.292   6.744   1.199
 6675TIP3   OH241659   5.027   6.079   0.176
 6675TIP3    H141660   4.945   6.109   0.132
 6675TIP3    H241661   5.049   6.158   0.230
 6676TIP3   OH241662   4.800   6.891   1.472
 6676TIP3    H141663   4.814   6.807   1.519
 6676TIP3    H241664   4.707   6.908   1.492
 6677TIP3   OH241665   5.085   6.287   0.346
 6677TIP3    H141666   5.150   6.263   0.415
 6677TIP3    H241667   5.114   6.378   0.326
 6678TIP3   OH241668   4.151   6.739   0.912
 6678TIP3    H141669   4.205   6.737   0.831
 6678TIP3    H241670   4.183   6.662   0.961
 6679TIP3   OH241671   4.855   6.925   0.291
 6679TIP3    H141672   4.809   7.011   0.293
 6679TIP3    H241673   4.782   6.866   0.318
 6680TIP3   OH241674   3.870   6.558   1.455
 6680TIP3    H141675   3.845   6.505   1.532
 6680TIP3    H241676   3.804   6.530   1.389
 6681TIP3   OH241677   4.569   6.577   1.635
 6681TIP3    H141678   4.556   6.532   1.549
 6681TIP3    H241679   4.631   6.515   1.681
 6682TIP3   OH241680   5.028   7.132   1.439
 6682TIP3    H141681   4.963   7.062   1.426
 6682TIP3    H241682   5.025   7.142   1.537
 6683TIP3   OH241683   5.571   6.272   0.340
 6683TIP3    H141684   5.508   6.260   0.267
 6683TIP3    H241685   5.595   6.366   0.323
 6684TIP3   OH241686   5.584   6.876   1.586
 6684TIP3    H141687   5.493   6.907   1.568
 6684TIP3    H241688   5.622   6.862   1.496
 6685TIP3   OH241689   5.440   7.093   0.393
 6685TIP3    H141690   5.360   7.039   0.398
 6685TIP3    H241691   5.434   7.136   0.306
 6686TIP3   OH241692   5.128   6.662   1.078
 6686TIP3    H141693   5.048   6.625   1.036
 6686TIP3    H241694   5.199   6.614   1.032
 6687TIP3   OH241695   4.401   7.070   0.673
 6687TIP3    H141696   4.411   7.164   0.653
 6687TIP3    H241697   4.337   7.038   0.607
 6688TIP3   OH241698   3.989   6.587   0.108
 6688TIP3    H141699   4.029   6.611   0.194
 6688TIP3    H241700   3.895   6.589   0.132
 6689TIP3   OH241701   4.537   6.834   0.625
 6689TIP3    H141702   4.500   6.923   0.640
 6689TIP3    H241703   4.479   6.781   0.683
 6690TIP3   OH241704   4.555   7.178   1.243
 6690TIP3    H141705   4.595   7.266   1.249
 6690TIP3    H241706   4.588   7.140   1.326
 6691TIP3   OH241707   4.347  -0.003   0.529
 6691TIP3    H141708   4.283  -0.038   0.591
 6691TIP3    H241709   4.413   0.033   0.594
 6692TIP3   OH241710   4.905   6.850   1.221
 6692TIP3    H141711   4.873   6.850   1.313
 6692TIP3    H241712   4.924   6.756   1.208
 6693TIP3   OH241713   5.168   6.959   0.194
 6693TIP3    H141714   5.202   6.906   0.270
 6693TIP3    H241715   5.073   6.937   0.198
 6694TIP3   OH241716   5.222   7.324   1.473
 6694TIP3    H141717   5.155   7.252   1.471
 6694TIP3    H241718   5.196   7.377   1.397
 6695TIP3   OH241719   4.042   6.053   1.448
 6695TIP3    H141720   3.994   6.095   1.521
 6695TIP3    H241721   4.020   5.960   1.467
 6696TIP3   OH241722   5.260   6.803   0.402
 6696TIP3    H141723   5.233   6.722   0.448
 6696TIP3    H241724   5.357   6.795   0.412
 6697TIP3   OH241725   3.976   7.169   1.300
 6697TIP3    H141726   4.066   7.134   1.305
 6697TIP3    H241727   3.991   7.264   1.299
 6698TIP3   OH241728   4.448   7.049   0.264
 6698TIP3    H141729   4.510   6.977   0.283
 6698TIP3    H241730   4.498   7.130   0.284
 6699TIP3   OH241731   4.078   6.745   0.314
 6699TIP3    H141732   4.033   6.797   0.384
 6699TIP3    H241733   4.120   6.818   0.262
 6700TIP3   OH241734   4.911   6.021   1.303
 6700TIP3    H141735   4.973   6.076   1.355
 6700TIP3    H241736   4.893   5.945   1.362
 6701TIP3   OH241737   4.943   6.003   0.472
 6701TIP3    H141738   4.992   6.045   0.400
 6701TIP3    H241739   4.983   6.050   0.549
 6702TIP3   OH241740   4.711   7.168   0.314
 6702TIP3    H141741   4.636   7.230   0.309
 6702TIP3    H241742   4.771   7.212   0.249
 6703TIP3   OH241743   4.657   6.177   0.536
 6703TIP3    H141744   4.734   6.236   0.539
 6703TIP3    H241745   4.655   6.136   0.625
 6704TIP3   OH241746   4.754   6.295   1.464
 6704TIP3    H141747   4.743   6.311   1.560
 6704TIP3    H241748   4.792   6.206   1.462
 6705TIP3   OH241749   4.745   5.849   0.575
 6705TIP3    H141750   4.705   5.910   0.640
 6705TIP3    H241751   4.825   5.901   0.547
 6706TIP3   OH241752   4.480  -0.012   0.292
 6706TIP3    H141753   4.522   0.075   0.299
 6706TIP3    H241754   4.419  -0.013   0.369
 6707TIP3   OH241755   4.314   5.970   0.314
 6707TIP3    H141756   4.309   6.055   0.362
 6707TIP3    H241757   4.401   5.939   0.345
 6708TIP3   OH241758   5.342   6.054   1.551
 6708TIP3    H141759   5.245   6.055   1.535
 6708TIP3    H241760   5.374   6.048   1.459
 6709TIP3   OH241761   5.241   6.428   0.906
 6709TIP3    H141762   5.160   6.379   0.929
 6709TIP3    H241763   5.306   6.382   0.964
 6710TIP3   OH241764   4.162   6.969   0.178
 6710TIP3    H141765   4.217   7.048   0.195
 6710TIP3    H241766   4.221   6.922   0.117
 6711TIP3   OH241767   3.974   6.305   0.145
 6711TIP3    H141768   4.006   6.396   0.126
 6711TIP3    H241769   3.913   6.291   0.071
 6712TIP3   OH241770   4.065   5.765   0.979
 6712TIP3    H141771   4.061   5.750   0.882
 6712TIP3    H241772   4.043   5.674   1.010
 6713TIP3   OH241773   3.992   7.168   0.660
 6713TIP3    H141774   3.899   7.142   0.659
 6713TIP3    H241775   3.993   7.212   0.572
 6714TIP3   OH241776   4.389   7.300   1.959
 6714TIP3    H141777   4.401   7.204   1.969
 6714TIP3    H241778   4.383   7.312   1.863
 6715TIP3   OH241779   4.824   7.281   0.098
 6715TIP3    H141780   4.766   7.227   0.040
 6715TIP3    H241781   4.887   7.318   0.036
 6716TIP3   OH241782   5.041   7.165   1.708
 6716TIP3    H141783   4.977   7.128   1.771
 6716TIP3    H241784   5.123   7.152   1.760
 6717TIP3   OH241785   5.246   7.199   0.042
 6717TIP3    H141786   5.224   7.118   0.093
 6717TIP3    H241787   5.341   7.183   0.022
 6718TIP3   OH241788   3.863   6.781   1.781
 6718TIP3    H141789   3.826   6.691   1.780
 6718TIP3    H241790   3.813   6.825   1.708
 6719TIP3   OH241791   4.333   6.779   0.066
 6719TIP3    H141792   4.363   6.730   0.145
 6719TIP3    H241793   4.389   6.738  -0.004
 6720TIP3   OH241794   5.114   6.777   1.500
 6720TIP3    H141795   5.200   6.824   1.507
 6720TIP3    H241796   5.052   6.849   1.514
 6721TIP3   OH241797   3.979   6.500   1.751
 6721TIP3    H141798   4.055   6.440   1.749
 6721TIP3    H241799   3.998   6.555   1.828
 6722TIP3   OH241800   4.443   6.634   0.262
 6722TIP3    H141801   4.380   6.580   0.313
 6722TIP3    H241802   4.486   6.568   0.205
 6723TIP3   OH241803   4.378   6.428   1.503
 6723TIP3    H141804   4.294   6.475   1.490
 6723TIP3    H241805   4.428   6.468   1.429
 6724TIP3   OH241806   4.549   6.464   0.059
 6724TIP3    H141807   4.579   6.472  -0.033
 6724TIP3    H241808   4.638   6.461   0.104
 6725TIP3   OH241809   4.875   6.709   1.764
 6725TIP3    H141810   4.967   6.726   1.788
 6725TIP3    H241811   4.834   6.712   1.851
 6726TIP3   OH241812   5.461   6.732   8.484
 6726TIP3    H141813   5.429   6.759   8.398
 6726TIP3    H241814   5.493   6.815   8.523
 6727TIP3   OH241815   4.455   6.183   1.565
 6727TIP3    H141816   4.461   6.128   1.484
 6727TIP3    H241817   4.436   6.273   1.529
 6728TIP3   OH241818   4.458   5.993   1.363
 6728TIP3    H141819   4.503   6.029   1.283
 6728TIP3    H241820   4.364   6.003   1.339
 6729TIP3   OH241821   4.568   6.578   1.365
 6729TIP3    H141822   4.650   6.585   1.313
 6729TIP3    H241823   4.513   6.645   1.319
 6730TIP3   OH241824   5.046   6.268   1.827
 6730TIP3    H141825   4.991   6.224   1.893
 6730TIP3    H241826   5.040   6.361   1.853
 6731TIP3   OH241827   5.176   6.611   1.699
 6731TIP3    H141828   5.136   6.665   1.627
 6731TIP3    H241829   5.272   6.613   1.675
 6732TIP3   OH241830   4.226   6.313   1.791
 6732TIP3    H141831   4.185   6.236   1.746
 6732TIP3    H241832   4.311   6.323   1.746
 6733TIP3   OH241833   4.545   5.738   1.341
 6733TIP3    H141834   4.511   5.829   1.354
 6733TIP3    H241835   4.463   5.689   1.322
 6734TIP3   OH241836   4.659   6.124   1.772
 6734TIP3    H141837   4.603   6.113   1.853
 6734TIP3    H241838   4.589   6.131   1.704
 6735TIP3   OH241839   4.906   6.077   1.652
 6735TIP3    H141840   4.817   6.093   1.690
 6735TIP3    H241841   4.946   6.031   1.729
 6736TIP3   OH241842   5.035   5.933   1.852
 6736TIP3    H141843   5.057   5.837   1.850
 6736TIP3    H241844   5.084   5.964   1.929
 6737TIP3   OH241845   4.065   6.076   1.762
 6737TIP3    H141846   4.045   5.988   1.724
 6737TIP3    H241847   4.062   6.056   1.858
 6738TIP3   OH241848   4.535   5.682   1.635
 6738TIP3    H141849   4.606   5.616   1.647
 6738TIP3    H241850   4.532   5.685   1.538
 6739TIP3   OH241851   4.532   5.816   1.933
 6739TIP3    H141852   4.548   5.787   1.842
 6739TIP3    H241853   4.488   5.902   1.917
 6740TIP3   OH241854   3.877   6.941   0.132
 6740TIP3    H141855   3.974   6.942   0.137
 6740TIP3    H241856   3.863   6.961   0.038
 6741TIP3   OH241857   3.814   7.370   0.844
 6741TIP3    H141858   3.764   7.286   0.837
 6741TIP3    H241859   3.824   7.377   0.941
 6742TIP3   OH241860   5.541   6.748   0.408
 6742TIP3    H141861   5.608   6.814   0.436
 6742TIP3    H241862   5.534   6.693   0.489
 6743TIP3   OH241863   5.547   6.565   0.610
 6743TIP3    H141864   5.475   6.508   0.644
 6743TIP3    H241865   5.602   6.574   0.690
 6744TIP3   OH241866   5.536   6.862   1.079
 6744TIP3    H141867   5.600   6.792   1.056
 6744TIP3    H241868   5.588   6.943   1.063
 6745TIP3   OH241869   5.431   7.150   1.325
 6745TIP3    H141870   5.359   7.194   1.372
 6745TIP3    H241871   5.389   7.132   1.238
 6746TIP3   OH241872   5.578   6.532   0.232
 6746TIP3    H141873   5.508   6.555   0.169
 6746TIP3    H241874   5.572   6.609   0.293
 6747TIP3   OH241875   5.364   6.276   0.102
 6747TIP3    H141876   5.445   6.310   0.059
 6747TIP3    H241877   5.364   6.185   0.065
 6748TIP3   OH241878   5.357   6.396   0.674
 6748TIP3    H141879   5.331   6.305   0.650
 6748TIP3    H241880   5.320   6.404   0.765
 6749TIP3   OH241881   3.839   6.677   1.057
 6749TIP3    H141882   3.822   6.624   0.977
 6749TIP3    H241883   3.933   6.656   1.077
 6750TIP3   OH241884   5.433   6.640   1.623
 6750TIP3    H141885   5.488   6.560   1.645
 6750TIP3    H241886   5.502   6.709   1.614
 6751TIP3   OH241887   5.583   6.434   1.675
 6751TIP3    H141888   5.514   6.365   1.665
 6751TIP3    H241889   5.660   6.384   1.709
 6752TIP3   OH241890   5.353   6.030  -0.014
 6752TIP3    H141891   5.411   5.982   0.050
 6752TIP3    H241892   5.263   6.019   0.023
 6753TIP3   OH241893   5.279   6.204   0.512
 6753TIP3    H141894   5.320   6.119   0.543
 6753TIP3    H241895   5.337   6.221   0.435
 6754TIP3   OH241896   5.399   6.278   1.066
 6754TIP3    H141897   5.497   6.268   1.067
 6754TIP3    H241898   5.383   6.279   1.161
 6755TIP3   OH241899   5.419   6.334   1.340
 6755TIP3    H141900   5.334   6.354   1.386
 6755TIP3    H241901   5.452   6.423   1.311
 6756TIP3   OH241902   3.843   6.187   1.681
 6756TIP3    H141903   3.922   6.167   1.736
 6756TIP3    H241904   3.797   6.100   1.678
 6757TIP3   OH241905   5.600   5.734   1.824
 6757TIP3    H141906   5.628   5.640   1.816
 6757TIP3    H241907   5.647   5.759   1.905
 6758TIP3   OH241908   5.376   5.953   0.544
 6758TIP3    H141909   5.414   5.891   0.610
 6758TIP3    H241910   5.331   5.893   0.483
 6759TIP3   OH241911   3.933   5.988   1.043
 6759TIP3    H141912   3.980   5.903   1.029
 6759TIP3    H241913   4.004   6.055   1.039
 6760TIP3   OH241914   3.785   6.302   1.099
 6760TIP3    H141915   3.832   6.278   1.016
 6760TIP3    H241916   3.815   6.393   1.110
 6761TIP3   OH241917   5.553   5.983   1.683
 6761TIP3    H141918   5.466   5.983   1.636
 6761TIP3    H241919   5.576   5.889   1.681
 6762TIP3   OH241920   5.551   5.937   0.155
 6762TIP3    H141921   5.597   5.886   0.086
 6762TIP3    H241922   5.625   5.997   0.182
 6763TIP3   OH241923   3.790   5.906   0.458
 6763TIP3    H141924   3.710   5.941   0.498
 6763TIP3    H241925   3.802   5.968   0.383
 6764TIP3   OH241926   3.786   5.786   1.315
 6764TIP3    H141927   3.719   5.745   1.373
 6764TIP3    H241928   3.736   5.855   1.269
 6765TIP3   OH241929   3.983   7.100   1.686
 6765TIP3    H141930   3.895   7.141   1.689
 6765TIP3    H241931   3.998   7.085   1.782
 6766TIP3   OH241932   4.304   7.213   1.354
 6766TIP3    H141933   4.288   7.254   1.268
 6766TIP3    H241934   4.401   7.215   1.358
 6767TIP3   OH241935   5.476   5.732   1.499
 6767TIP3    H141936   5.398   5.766   1.454
 6767TIP3    H241937   5.488   5.645   1.454
 6768TIP3   OH241938   4.209   7.288   0.812
 6768TIP3    H141939   4.182   7.196   0.796
 6768TIP3    H241940   4.263   7.276   0.893
 6769TIP3   OH241941   4.385   7.233   1.039
 6769TIP3    H141942   4.376   7.147   0.993
 6769TIP3    H241943   4.438   7.204   1.117
 6770TIP3   OH241944   4.781   5.859   0.926
 6770TIP3    H141945   4.696   5.819   0.955
 6770TIP3    H241946   4.814   5.793   0.864
 6771TIP3   OH241947   5.359   5.697   0.920
 6771TIP3    H141948   5.424   5.753   0.872
 6771TIP3    H241949   5.275   5.737   0.889
 6772TIP3   OH241950   5.522   5.793   0.722
 6772TIP3    H141951   5.591   5.742   0.672
 6772TIP3    H241952   5.572   5.877   0.740
 6773TIP3   OH241953   4.056   5.728   0.703
 6773TIP3    H141954   3.969   5.711   0.663
 6773TIP3    H241955   4.097   5.639   0.691
 6774TIP3   OH241956   3.913   5.720   0.263
 6774TIP3    H141957   3.969   5.783   0.213
 6774TIP3    H241958   3.872   5.775   0.333
 6775TIP3   OH241959   4.481   5.692   0.689
 6775TIP3    H141960   4.569   5.686   0.649
 6775TIP3    H241961   4.498   5.740   0.772
 6776TIP3   OH241962   5.087   5.729   0.811
 6776TIP3    H141963   5.065   5.741   0.718
 6776TIP3    H241964   5.029   5.654   0.836
 6777TIP3   OH241965   5.196   5.741   0.359
 6777TIP3    H141966   5.135   5.731   0.284
 6777TIP3    H241967   5.162   5.671   0.420
 6778TIP3   OH241968   3.902   7.296   0.448
 6778TIP3    H141969   3.816   7.294   0.402
 6778TIP3    H241970   3.918   7.392   0.449
 6779TIP3   OH241971   4.089   5.855   0.117
 6779TIP3    H141972   4.174   5.810   0.116
 6779TIP3    H241973   4.111   5.941   0.156
 6780TIP3   OH241974   4.617   5.976   0.361
 6780TIP3    H141975   4.657   5.911   0.420
 6780TIP3    H241976   4.635   6.057   0.415
 6781TIP3   OH241977   4.023   5.795   1.632
 6781TIP3    H141978   3.963   5.719   1.647
 6781TIP3    H241979   4.094   5.779   1.698
 6782TIP3   OH241980   4.208   5.725   1.836
 6782TIP3    H141981   4.298   5.717   1.797
 6782TIP3    H241982   4.190   5.631   1.854
 6783TIP3   OH241983   5.105   5.672   1.848
 6783TIP3    H141984   5.114   5.590   1.899
 6783TIP3    H241985   5.185   5.666   1.792
 6784TIP3   OH241986   5.349   7.227   1.706
 6784TIP3    H141987   5.289   7.269   1.641
 6784TIP3    H241988   5.394   7.304   1.744
 6785TIP3   OH241989   6.868   6.664   0.656
 6785TIP3    H141990   6.835   6.754   0.633
 6785TIP3    H241991   6.806   6.609   0.606
 6786TIP3   OH241992   6.739   6.545   1.011
 6786TIP3    H141993   6.739   6.510   1.103
 6786TIP3    H241994   6.662   6.503   0.970
 6787TIP3   OH241995   5.942   6.553   1.171
 6787TIP3    H141996   5.935   6.487   1.242
 6787TIP3    H241997   6.023   6.598   1.200
 6788TIP3   OH241998   7.100   6.857   0.865
 6788TIP3    H141999   7.060   6.777   0.903
 6788TIP3    H242000   7.100   6.917   0.941
 6789TIP3   OH242001   6.094   7.013   1.015
 6789TIP3    H142002   6.057   6.924   1.005
 6789TIP3    H242003   6.189   6.990   1.014
 6790TIP3   OH242004   5.730   6.329   0.568
 6790TIP3    H142005   5.700   6.419   0.589
 6790TIP3    H242006   5.667   6.304   0.498
 6791TIP3   OH242007   5.731   6.567   0.812
 6791TIP3    H142008   5.755   6.472   0.825
 6791TIP3    H242009   5.819   6.610   0.814
 6792TIP3   OH242010   6.557   6.773   1.108
 6792TIP3    H142011   6.576   6.762   1.014
 6792TIP3    H242012   6.635   6.824   1.137
 6793TIP3   OH242013   6.906   6.266   1.135
 6793TIP3    H142014   6.906   6.172   1.162
 6793TIP3    H242015   6.903   6.253   1.038
 6794TIP3   OH242016   6.211   6.049   0.802
 6794TIP3    H142017   6.221   6.129   0.746
 6794TIP3    H242018   6.161   5.992   0.739
 6795TIP3   OH242019   6.948   6.101   0.677
 6795TIP3    H142020   7.014   6.070   0.744
 6795TIP3    H242021   6.991   6.179   0.641
 6796TIP3   OH242022   5.831   6.318   0.891
 6796TIP3    H142023   5.894   6.289   0.959
 6796TIP3    H242024   5.871   6.277   0.811
 6797TIP3   OH242025   6.312   6.478   0.847
 6797TIP3    H142026   6.400   6.445   0.875
 6797TIP3    H242027   6.290   6.408   0.782
 6798TIP3   OH242028   6.114   5.972   1.214
 6798TIP3    H142029   6.076   6.029   1.144
 6798TIP3    H242030   6.060   5.999   1.290
 6799TIP3   OH242031   6.784   6.908   0.569
 6799TIP3    H142032   6.769   6.901   0.473
 6799TIP3    H242033   6.776   7.004   0.582
 6800TIP3   OH242034   6.304   6.731   1.208
 6800TIP3    H142035   6.250   6.806   1.244
 6800TIP3    H242036   6.376   6.777   1.160
 6801TIP3   OH242037   7.113   6.067   0.893
 6801TIP3    H142038   7.106   5.971   0.906
 6801TIP3    H242039   7.170   6.094   0.968
 6802TIP3   OH242040   6.052   6.159   1.030
 6802TIP3    H142041   6.110   6.231   1.063
 6802TIP3    H242042   6.105   6.123   0.956
 6803TIP3   OH242043   6.180   6.930   1.326
 6803TIP3    H142044   6.179   7.027   1.332
 6803TIP3    H242045   6.092   6.909   1.366
 6804TIP3   OH242046   5.770   6.923   0.450
 6804TIP3    H142047   5.760   6.947   0.356
 6804TIP3    H242048   5.802   7.006   0.489
 6805TIP3   OH242049   7.161   7.051   1.099
 6805TIP3    H142050   7.065   7.047   1.116
 6805TIP3    H242051   7.166   7.144   1.071
 6806TIP3   OH242052   7.172   5.943   1.202
 6806TIP3    H142053   7.077   5.965   1.184
 6806TIP3    H242054   7.215   6.016   1.155
 6807TIP3   OH242055   6.458   5.727   0.978
 6807TIP3    H142056   6.423   5.639   0.959
 6807TIP3    H242057   6.377   5.769   1.019
 6808TIP3   OH242058   6.958   7.187   0.708
 6808TIP3    H142059   7.013   7.111   0.677
 6808TIP3    H242060   7.025   7.256   0.708
 6809TIP3   OH242061   7.122   6.996   0.605
 6809TIP3    H142062   7.091   6.935   0.535
 6809TIP3    H242063   7.122   6.938   0.685
 6810TIP3   OH242064   7.193   6.912   1.455
 6810TIP3    H142065   7.228   6.836   1.404
 6810TIP3    H242066   7.249   6.984   1.424
 6811TIP3   OH242067   6.703   6.590   0.424
 6811TIP3    H142068   6.643   6.665   0.405
 6811TIP3    H242069   6.787   6.621   0.383
 6812TIP3   OH242070   6.706   6.476   0.154
 6812TIP3    H142071   6.759   6.510   0.228
 6812TIP3    H242072   6.765   6.411   0.114
 6813TIP3   OH242073   7.096   6.612   0.530
 6813TIP3    H142074   7.026   6.642   0.593
 6813TIP3    H242075   7.145   6.546   0.584
 6814TIP3   OH242076   7.010   6.416   1.441
 6814TIP3    H142077   7.043   6.485   1.503
 6814TIP3    H242078   6.944   6.467   1.391
 6815TIP3   OH242079   6.197   6.661   0.688
 6815TIP3    H142080   6.186   6.619   0.600
 6815TIP3    H242081   6.245   6.593   0.741
 6816TIP3   OH242082   6.347   6.984   0.973
 6816TIP3    H142083   6.363   6.972   0.878
 6816TIP3    H242084   6.433   6.976   1.015
 6817TIP3   OH242085   6.219   6.511   1.097
 6817TIP3    H142086   6.245   6.515   1.003
 6817TIP3    H242087   6.267   6.588   1.137
 6818TIP3   OH242088   6.894   7.110   1.148
 6818TIP3    H142089   6.824   7.174   1.165
 6818TIP3    H242090   6.852   7.027   1.176
 6819TIP3   OH242091   6.338   6.930   1.557
 6819TIP3    H142092   6.267   6.988   1.593
 6819TIP3    H242093   6.299   6.908   1.470
 6820TIP3   OH242094   6.937   6.584   0.316
 6820TIP3    H142095   7.000   6.595   0.391
 6820TIP3    H242096   6.989   6.614   0.239
 6821TIP3   OH242097   6.038   6.594   1.443
 6821TIP3    H142098   6.053   6.672   1.498
 6821TIP3    H242099   5.960   6.557   1.488
 6822TIP3   OH242100   6.672   7.222   0.729
 6822TIP3    H142101   6.762   7.193   0.705
 6822TIP3    H242102   6.632   7.243   0.644
 6823TIP3   OH242103   6.174   7.138   1.629
 6823TIP3    H142104   6.160   7.164   1.535
 6823TIP3    H242105   6.082   7.111   1.653
 6824TIP3   OH242106   7.314   5.680   0.280
 6824TIP3    H142107   7.236   5.684   0.339
 6824TIP3    H242108   7.274   5.694   0.192
 6825TIP3   OH242109   6.109   6.545   0.426
 6825TIP3    H142110   6.062   6.626   0.392
 6825TIP3    H242111   6.038   6.482   0.439
 6826TIP3   OH242112   5.734   6.815   1.377
 6826TIP3    H142113   5.710   6.799   1.285
 6826TIP3    H242114   5.769   6.726   1.400
 6827TIP3   OH242115   5.720   7.088   1.025
 6827TIP3    H142116   5.804   7.046   1.000
 6827TIP3    H242117   5.745   7.142   1.102
 6828TIP3   OH242118   6.519   7.140   1.527
 6828TIP3    H142119   6.570   7.140   1.609
 6828TIP3    H242120   6.446   7.078   1.548
 6829TIP3   OH242121   7.177   6.286   1.693
 6829TIP3    H142122   7.147   6.289   1.601
 6829TIP3    H242123   7.272   6.275   1.676
 6830TIP3   OH242124   5.961   6.910   1.473
 6830TIP3    H142125   5.951   6.864   1.559
 6830TIP3    H242126   5.871   6.895   1.435
 6831TIP3   OH242127   6.216   5.806   1.043
 6831TIP3    H142128   6.127   5.809   1.003
 6831TIP3    H242129   6.198   5.857   1.126
 6832TIP3   OH242130   6.700   5.768   1.398
 6832TIP3    H142131   6.737   5.711   1.468
 6832TIP3    H242132   6.603   5.757   1.410
 6833TIP3   OH242133   6.996   6.155   1.489
 6833TIP3    H142134   6.950   6.127   1.571
 6833TIP3    H242135   6.982   6.251   1.484
 6834TIP3   OH242136   7.084   6.666   0.106
 6834TIP3    H142137   7.090   6.680   0.010
 6834TIP3    H242138   7.109   6.755   0.138
 6835TIP3   OH242139   6.641   6.063   0.142
 6835TIP3    H142140   6.600   6.052   0.230
 6835TIP3    H242141   6.641   5.973   0.110
 6836TIP3   OH242142   6.237   6.273   1.201
 6836TIP3    H142143   6.150   6.286   1.245
 6836TIP3    H242144   6.246   6.363   1.161
 6837TIP3   OH242145   6.225   6.274   0.651
 6837TIP3    H142146   6.129   6.283   0.639
 6837TIP3    H242147   6.257   6.269   0.558
 6838TIP3   OH242148   6.795   6.383   0.566
 6838TIP3    H142149   6.752   6.449   0.507
 6838TIP3    H242150   6.858   6.342   0.502
 6839TIP3   OH242151   6.715   6.344   1.653
 6839TIP3    H142152   6.661   6.276   1.701
 6839TIP3    H242153   6.790   6.358   1.713
 6840TIP3   OH242154   6.866   6.325   0.856
 6840TIP3    H142155   6.842   6.406   0.806
 6840TIP3    H242156   6.856   6.259   0.786
 6841TIP3   OH242157   5.977   6.291   1.302
 6841TIP3    H142158   6.001   6.316   1.393
 6841TIP3    H242159   5.935   6.205   1.320
 6842TIP3   OH242160   6.308   6.068   0.084
 6842TIP3    H142161   6.269   6.008   0.151
 6842TIP3    H242162   6.286   6.156   0.120
 6843TIP3   OH242163   5.673   6.010   0.766
 6843TIP3    H142164   5.743   6.014   0.834
 6843TIP3    H242165   5.707   6.066   0.695
 6844TIP3   OH242166   5.755   6.087   0.263
 6844TIP3    H142167   5.818   6.134   0.204
 6844TIP3    H242168   5.701   6.162   0.291
 6845TIP3   OH242169   6.791   6.472   1.274
 6845TIP3    H142170   6.849   6.404   1.232
 6845TIP3    H242171   6.731   6.414   1.326
 6846TIP3   OH242172   6.512   6.045   0.770
 6846TIP3    H142173   6.420   6.039   0.803
 6846TIP3    H242174   6.566   6.021   0.847
 6847TIP3   OH242175   5.953   6.195   0.670
 6847TIP3    H142176   5.877   6.223   0.615
 6847TIP3    H242177   5.977   6.109   0.630
 6848TIP3   OH242178   6.297   6.239   0.397
 6848TIP3    H142179   6.393   6.242   0.394
 6848TIP3    H242180   6.272   6.287   0.314
 6849TIP3   OH242181   6.904   5.974   1.097
 6849TIP3    H142182   6.832   5.957   1.160
 6849TIP3    H242183   6.862   5.944   1.014
 6850TIP3   OH242184   6.235   6.325   0.155
 6850TIP3    H142185   6.168   6.325   0.085
 6850TIP3    H242186   6.307   6.376   0.111
 6851TIP3   OH242187   6.007   6.754   1.687
 6851TIP3    H142188   6.079   6.800   1.738
 6851TIP3    H242189   5.934   6.752   1.752
 6852TIP3   OH242190   6.534   6.332   0.926
 6852TIP3    H142191   6.626   6.304   0.909
 6852TIP3    H242192   6.497   6.256   0.973
 6853TIP3   OH242193   6.056   5.937   0.611
 6853TIP3    H142194   5.990   5.879   0.655
 6853TIP3    H242195   6.098   5.872   0.552
 6854TIP3   OH242196   6.475   6.132   1.178
 6854TIP3    H142197   6.396   6.190   1.182
 6854TIP3    H242198   6.534   6.181   1.237
 6855TIP3   OH242199   6.538   6.789   0.397
 6855TIP3    H142200   6.464   6.734   0.361
 6855TIP3    H242201   6.500   6.815   0.485
 6856TIP3   OH242202   7.223   6.710   1.271
 6856TIP3    H142203   7.265   6.685   1.187
 6856TIP3    H242204   7.131   6.720   1.239
 6857TIP3   OH242205   6.902   6.087   0.195
 6857TIP3    H142206   6.807   6.086   0.173
 6857TIP3    H242207   6.920   6.182   0.193
 6858TIP3   OH242208   6.699   6.883   1.507
 6858TIP3    H142209   6.687   6.833   1.589
 6858TIP3    H242210   6.681   6.973   1.537
 6859TIP3   OH242211   6.976   6.307   0.381
 6859TIP3    H142212   7.057   6.257   0.406
 6859TIP3    H242213   7.013   6.386   0.340
 6860TIP3   OH242214   6.038   6.728   0.916
 6860TIP3    H142215   6.093   6.736   0.835
 6860TIP3    H242216   6.083   6.658   0.966
 6861TIP3   OH242217   6.728   6.942   0.302
 6861TIP3    H142218   6.682   7.028   0.309
 6861TIP3    H242219   6.658   6.881   0.333
 6862TIP3   OH242220   5.731   6.561   1.477
 6862TIP3    H142221   5.711   6.513   1.560
 6862TIP3    H242222   5.669   6.520   1.415
 6863TIP3   OH242223   6.466   6.509   1.644
 6863TIP3    H142224   6.404   6.494   1.571
 6863TIP3    H242225   6.532   6.439   1.627
 6864TIP3   OH242226   6.895   7.160   1.495
 6864TIP3    H142227   6.873   7.076   1.451
 6864TIP3    H242228   6.883   7.137   1.590
 6865TIP3   OH242229   7.281   7.163   0.372
 6865TIP3    H142230   7.250   7.106   0.444
 6865TIP3    H242231   7.275   7.105   0.295
 6866TIP3   OH242232   6.987   6.658   1.074
 6866TIP3    H142233   6.899   6.626   1.045
 6866TIP3    H242234   7.043   6.595   1.026
 6867TIP3   OH242235   6.267   7.067   0.686
 6867TIP3    H142236   6.302   7.150   0.652
 6867TIP3    H242237   6.182   7.060   0.642
 6868TIP3   OH242238   5.877   6.573   0.109
 6868TIP3    H142239   5.918   6.615   0.188
 6868TIP3    H242240   5.783   6.573   0.135
 6869TIP3   OH242241   6.411   6.839   0.632
 6869TIP3    H142242   6.359   6.921   0.640
 6869TIP3    H242243   6.352   6.771   0.671
 6870TIP3   OH242244   6.460   7.181   1.271
 6870TIP3    H142245   6.476   7.275   1.252
 6870TIP3    H242246   6.501   7.172   1.361
 6871TIP3   OH242247   6.231   7.348   0.534
 6871TIP3    H142248   6.166   7.316   0.597
 6871TIP3    H242249   6.298   7.382   0.597
 6872TIP3   OH242250   6.787   6.850   1.220
 6872TIP3    H142251   6.753   6.810   1.303
 6872TIP3    H242252   6.835   6.773   1.183
 6873TIP3   OH242253   7.074   6.950   0.169
 6873TIP3    H142254   7.070   6.909   0.258
 6873TIP3    H242255   6.980   6.950   0.144
 6874TIP3   OH242256   7.118   7.305   1.429
 6874TIP3    H142257   7.025   7.273   1.444
 6874TIP3    H242258   7.107   7.401   1.428
 6875TIP3   OH242259   5.946   6.049   1.449
 6875TIP3    H142260   5.888   6.076   1.521
 6875TIP3    H242261   5.957   5.955   1.470
 6876TIP3   OH242262   7.144   6.824   0.386
 6876TIP3    H142263   7.126   6.742   0.439
 6876TIP3    H242264   7.241   6.830   0.394
 6877TIP3   OH242265   5.862   7.172   1.282
 6877TIP3    H142266   5.939   7.140   1.329
 6877TIP3    H242267   5.853   7.265   1.313
 6878TIP3   OH242268   6.335   7.048   0.263
 6878TIP3    H142269   6.390   6.973   0.289
 6878TIP3    H242270   6.391   7.126   0.281
 6879TIP3   OH242271   5.966   6.748   0.310
 6879TIP3    H142272   5.909   6.796   0.374
 6879TIP3    H242273   6.007   6.823   0.262
 6880TIP3   OH242274   6.748   6.031   1.368
 6880TIP3    H142275   6.823   6.041   1.429
 6880TIP3    H242276   6.730   5.935   1.382
 6881TIP3   OH242277   6.837   5.983   0.467
 6881TIP3    H142278   6.872   6.044   0.401
 6881TIP3    H242279   6.901   5.996   0.541
 6882TIP3   OH242280   6.613   7.183   0.348
 6882TIP3    H142281   6.543   7.248   0.364
 6882TIP3    H242282   6.655   7.220   0.268
 6883TIP3   OH242283   6.579   6.157   0.521
 6883TIP3    H142284   6.638   6.232   0.538
 6883TIP3    H242285   6.543   6.134   0.609
 6884TIP3   OH242286   6.655   6.280   1.403
 6884TIP3    H142287   6.683   6.293   1.496
 6884TIP3    H242288   6.696   6.193   1.381
 6885TIP3   OH242289   6.643   5.848   0.590
 6885TIP3    H142290   6.604   5.915   0.649
 6885TIP3    H242291   6.717   5.902   0.550
 6886TIP3   OH242292   6.356  -0.012   0.290
 6886TIP3    H142293   6.392   0.077   0.289
 6886TIP3    H242294   6.297  -0.011   0.367
 6887TIP3   OH242295   6.209   5.966   0.308
 6887TIP3    H142296   6.209   6.048   0.361
 6887TIP3    H242297   6.293   5.926   0.338
 6888TIP3   OH242298   7.247   6.030   1.518
 6888TIP3    H142299   7.156   6.069   1.524
 6888TIP3    H242300   7.274   6.058   1.429
 6889TIP3   OH242301   7.124   6.446   0.946
 6889TIP3    H142302   7.036   6.405   0.934
 6889TIP3    H242303   7.174   6.372   0.983
 6890TIP3   OH242304   6.042   6.989   0.183
 6890TIP3    H142305   6.105   7.057   0.210
 6890TIP3    H242306   6.092   6.952   0.108
 6891TIP3   OH242307   5.868   6.300   0.125
 6891TIP3    H142308   5.887   6.396   0.118
 6891TIP3    H242309   5.803   6.290   0.054
 6892TIP3   OH242310   5.955   5.767   0.976
 6892TIP3    H142311   5.940   5.755   0.880
 6892TIP3    H242312   5.930   5.676   1.007
 6893TIP3   OH242313   5.879   7.161   0.641
 6893TIP3    H142314   5.788   7.131   0.652
 6893TIP3    H242315   5.871   7.207   0.555
 6894TIP3   OH242316   6.277   7.246   1.844
 6894TIP3    H142317   6.344   7.181   1.873
 6894TIP3    H242318   6.226   7.194   1.778
 6895TIP3   OH242319   6.723   7.267   0.096
 6895TIP3    H142320   6.663   7.211   0.042
 6895TIP3    H242321   6.782   7.300   0.026
 6896TIP3   OH242322   6.850   7.083   1.746
 6896TIP3    H142323   6.806   7.076   1.832
 6896TIP3    H242324   6.940   7.107   1.781
 6897TIP3   OH242325   7.151   7.222   0.022
 6897TIP3    H142326   7.111   7.185   0.102
 6897TIP3    H242327   7.243   7.196   0.034
 6898TIP3   OH242328   5.735   6.774   1.789
 6898TIP3    H142329   5.706   6.682   1.776
 6898TIP3    H242330   5.674   6.822   1.727
 6899TIP3   OH242331   6.220   6.784   0.077
 6899TIP3    H142332   6.259   6.741   0.156
 6899TIP3    H242333   6.279   6.751   0.005
 6900TIP3   OH242334   6.496   6.791   1.740
 6900TIP3    H142335   6.452   6.831   1.662
 6900TIP3    H242336   6.509   6.698   1.709
 6901TIP3   OH242337   6.982   6.759   1.489
 6901TIP3    H142338   7.065   6.813   1.489
 6901TIP3    H242339   6.914   6.828   1.480
 6902TIP3   OH242340   5.846   6.498   1.757
 6902TIP3    H142341   5.925   6.447   1.778
 6902TIP3    H242342   5.848   6.559   1.832
 6903TIP3   OH242343   6.340   6.638   0.270
 6903TIP3    H142344   6.271   6.582   0.311
 6903TIP3    H242345   6.383   6.574   0.209
 6904TIP3   OH242346   6.225   6.397   1.459
 6904TIP3    H142347   6.161   6.470   1.464
 6904TIP3    H242348   6.296   6.441   1.410
 6905TIP3   OH242349   6.448   6.463   0.072
 6905TIP3    H142350   6.464   6.484  -0.021
 6905TIP3    H242351   6.540   6.464   0.109
 6906TIP3   OH242352   6.300   6.173   1.583
 6906TIP3    H142353   6.329   6.106   1.519
 6906TIP3    H242354   6.259   6.240   1.524
 6907TIP3   OH242355   6.350   5.988   1.370
 6907TIP3    H142356   6.414   6.035   1.313
 6907TIP3    H242357   6.265   6.008   1.326
 6908TIP3   OH242358   6.434   6.558   1.362
 6908TIP3    H142359   6.524   6.564   1.326
 6908TIP3    H242360   6.388   6.635   1.320
 6909TIP3   OH242361   6.883   6.304   1.872
 6909TIP3    H142362   6.909   6.224   1.922
 6909TIP3    H242363   6.958   6.318   1.812
 6910TIP3   OH242364   7.054   6.579   1.662
 6910TIP3    H142365   7.012   6.657   1.621
 6910TIP3    H242366   7.149   6.607   1.666
 6911TIP3   OH242367   6.135   6.319   1.811
 6911TIP3    H142368   6.068   6.249   1.800
 6911TIP3    H242369   6.205   6.287   1.750
 6912TIP3   OH242370   6.435   5.726   1.337
 6912TIP3    H142371   6.405   5.817   1.362
 6912TIP3    H242372   6.353   5.691   1.299
 6913TIP3   OH242373   6.531   6.176   1.744
 6913TIP3    H142374   6.501   6.169   1.838
 6913TIP3    H242375   6.445   6.173   1.697
 6914TIP3   OH242376   6.826   6.026   1.684
 6914TIP3    H142377   6.730   6.037   1.696
 6914TIP3    H242378   6.849   5.974   1.763
 6915TIP3   OH242379   5.926   6.056   1.779
 6915TIP3    H142380   5.949   5.972   1.736
 6915TIP3    H242381   5.920   6.035   1.874
 6916TIP3   OH242382   6.393   5.684   1.597
 6916TIP3    H142383   6.466   5.628   1.624
 6916TIP3    H242384   6.403   5.683   1.500
 6917TIP3   OH242385   6.434   5.814   1.935
 6917TIP3    H142386   6.435   5.733   1.882
 6917TIP3    H242387   6.345   5.846   1.915
 6918TIP3   OH242388   5.764   6.936   0.128
 6918TIP3    H142389   5.859   6.934   0.149
 6918TIP3    H242390   5.768   6.939   0.031
 6919TIP3   OH242391   5.707   7.381   0.848
 6919TIP3    H142392   5.667   7.293   0.860
 6919TIP3    H242393   5.764   7.388   0.927
 6920TIP3   OH242394   7.261   6.939   1.907
 6920TIP3    H142395   7.174   6.950   1.950
 6920TIP3    H242396   7.247   6.993   1.828
 6921TIP3   OH242397   7.315   7.134   1.342
 6921TIP3    H142398   7.244   7.185   1.387
 6921TIP3    H242399   7.272   7.113   1.256
 6922TIP3   OH242400   7.331   6.272   0.105
 6922TIP3    H142401   7.351   6.340   0.039
 6922TIP3    H242402   7.286   6.207   0.048
 6923TIP3   OH242403   7.233   6.445   0.687
 6923TIP3    H142404   7.201   6.366   0.734
 6923TIP3    H242405   7.232   6.508   0.761
 6924TIP3   OH242406   5.726   6.662   1.065
 6924TIP3    H142407   5.719   6.619   0.977
 6924TIP3    H242408   5.822   6.647   1.083
 6925TIP3   OH242409   7.311   6.635   1.664
 6925TIP3    H142410   7.369   6.562   1.693
 6925TIP3    H242411   7.349   6.658   1.577
 6926TIP3   OH242412   7.174   6.073  -0.008
 6926TIP3    H142413   7.241   6.023   0.042
 6926TIP3    H242414   7.090   6.045   0.033
 6927TIP3   OH242415   7.189   6.149   0.473
 6927TIP3    H142416   7.206   6.081   0.541
 6927TIP3    H242417   7.275   6.162   0.431
 6928TIP3   OH242418   7.254   6.177   1.094
 6928TIP3    H142419   7.329   6.196   1.035
 6928TIP3    H242420   7.266   6.246   1.161
 6929TIP3   OH242421   7.263   6.334   1.412
 6929TIP3    H142422   7.165   6.348   1.418
 6929TIP3    H242423   7.280   6.369   1.323
 6930TIP3   OH242424   5.714   6.181   1.680
 6930TIP3    H142425   5.803   6.159   1.717
 6930TIP3    H242426   5.673   6.091   1.685
 6931TIP3   OH242427   7.174   5.883   0.561
 6931TIP3    H142428   7.259   5.833   0.564
 6931TIP3    H242429   7.123   5.819   0.505
 6932TIP3   OH242430   5.834   6.001   1.016
 6932TIP3    H142431   5.867   5.910   1.005
 6932TIP3    H242432   5.916   6.054   1.027
 6933TIP3   OH242433   5.661   6.289   1.098
 6933TIP3    H142434   5.714   6.254   1.024
 6933TIP3    H242435   5.705   6.373   1.115
 6934TIP3   OH242436   5.675   5.908   0.451
 6934TIP3    H142437   5.584   5.928   0.476
 6934TIP3    H242438   5.689   5.969   0.376
 6935TIP3   OH242439   5.671   5.785   1.303
 6935TIP3    H142440   5.618   5.760   1.381
 6935TIP3    H242441   5.618   5.857   1.266
 6936TIP3   OH242442   5.899   7.108   1.707
 6936TIP3    H142443   5.807   7.132   1.691
 6936TIP3    H242444   5.894   7.064   1.793
 6937TIP3   OH242445   6.203   7.188   1.367
 6937TIP3    H142446   6.172   7.254   1.304
 6937TIP3    H242447   6.300   7.194   1.354
 6938TIP3   OH242448   6.082   7.280   0.820
 6938TIP3    H142449   6.065   7.186   0.803
 6938TIP3    H242450   6.146   7.274   0.893
 6939TIP3   OH242451   6.298   7.251   1.052
 6939TIP3    H142452   6.276   7.173   0.999
 6939TIP3    H242453   6.348   7.207   1.124
 6940TIP3   OH242454   6.690   5.876   0.927
 6940TIP3    H142455   6.605   5.837   0.954
 6940TIP3    H242456   6.728   5.806   0.873
 6941TIP3   OH242457   7.211   5.642   0.905
 6941TIP3    H142458   7.268   5.713   0.937
 6941TIP3    H242459   7.134   5.694   0.872
 6942TIP3   OH242460   5.920   5.716   0.706
 6942TIP3    H142461   5.840   5.697   0.654
 6942TIP3    H242462   5.971   5.632   0.693
 6943TIP3   OH242463   5.787   5.714   0.257
 6943TIP3    H142464   5.843   5.777   0.207
 6943TIP3    H242465   5.751   5.767   0.332
 6944TIP3   OH242466   6.366   5.703   0.719
 6944TIP3    H142467   6.443   5.722   0.665
 6944TIP3    H242468   6.384   5.753   0.800
 6945TIP3   OH242469   6.974   5.733   0.791
 6945TIP3    H142470   6.971   5.719   0.696
 6945TIP3    H242471   6.907   5.668   0.824
 6946TIP3   OH242472   7.047   5.712   0.411
 6946TIP3    H142473   6.964   5.742   0.367
 6946TIP3    H242474   7.026   5.619   0.433
 6947TIP3   OH242475   5.774   7.301   0.439
 6947TIP3    H142476   5.678   7.300   0.421
 6947TIP3    H242477   5.788   7.394   0.463
 6948TIP3   OH242478   5.970   5.851   0.122
 6948TIP3    H142479   6.060   5.826   0.100
 6948TIP3    H242480   5.985   5.932   0.173
 6949TIP3   OH242481   6.501   5.954   0.363
 6949TIP3    H142482   6.537   5.894   0.430
 6949TIP3    H242483   6.528   6.039   0.406
 6950TIP3   OH242484   5.924   5.804   1.619
 6950TIP3    H142485   5.860   5.734   1.641
 6950TIP3    H242486   5.997   5.787   1.684
 6951TIP3   OH242487   6.122   5.758   1.794
 6951TIP3    H142488   6.194   5.702   1.759
 6951TIP3    H242489   6.104   5.705   1.876
 6952TIP3   OH242490   6.976   5.687   1.832
 6952TIP3    H142491   6.987   5.643   1.919
 6952TIP3    H242492   7.061   5.666   1.789
 6953TIP3   OH242493   7.271   7.272   1.663
 6953TIP3    H142494   7.194   7.263   1.604
 6953TIP3    H242495   7.251   7.352   1.715
 6954TIP3   OH242496   1.598   0.116   2.105
 6954TIP3    H142497   1.551   0.056   2.164
 6954TIP3    H242498   1.627   0.188   2.164
 6955TIP3   OH242499   1.821   1.487   1.974
 6955TIP3    H142500   1.810   1.570   2.023
 6955TIP3    H242501   1.897   1.450   2.025
 6956TIP3   OH242502   1.425   1.017   1.987
 6956TIP3    H142503   1.425   1.001   1.891
 6956TIP3    H242504   1.519   1.010   2.008
 6957TIP3   OH242505   0.184   0.451   2.134
 6957TIP3    H142506   0.246   0.514   2.174
 6957TIP3    H242507   0.184   0.483   2.043
 6958TIP3   OH242508   1.824   1.766   2.102
 6958TIP3    H142509   1.888   1.837   2.093
 6958TIP3    H242510   1.788   1.777   2.191
 6959TIP3   OH242511   1.442   1.551   1.878
 6959TIP3    H142512   1.490   1.516   1.955
 6959TIP3    H242513   1.514   1.563   1.814
 6960TIP3   OH242514   0.555   1.145   1.863
 6960TIP3    H142515   0.551   1.090   1.943
 6960TIP3    H242516   0.649   1.141   1.838
 6961TIP3   OH242517   1.082   1.278   1.889
 6961TIP3    H142518   1.024   1.211   1.930
 6961TIP3    H242519   1.123   1.216   1.825
 6962TIP3   OH242520   1.722   1.018   1.903
 6962TIP3    H142521   1.693   0.994   1.812
 6962TIP3    H242522   1.740   1.114   1.890
 6963TIP3   OH242523   0.830   1.817   2.031
 6963TIP3    H142524   0.899   1.857   2.083
 6963TIP3    H242525   0.788   1.897   1.993
 6964TIP3   OH242526   0.152   1.388   2.008
 6964TIP3    H142527   0.172   1.386   2.103
 6964TIP3    H242528   0.138   1.294   1.986
 6965TIP3   OH242529   1.820   0.920   2.148
 6965TIP3    H142530   1.782   0.943   2.060
 6965TIP3    H242531   1.793   0.996   2.200
 6966TIP3   OH242532   0.203   0.025   2.177
 6966TIP3    H142533   0.116   0.060   2.156
 6966TIP3    H242534   0.238   0.076   2.254
 6967TIP3   OH242535   2.936   0.847   1.979
 6967TIP3    H142536   2.916   0.791   2.056
 6967TIP3    H242537   2.984   0.782   1.924
 6968TIP3   OH242538   3.175   1.738   2.045
 6968TIP3    H142539   3.204   1.652   2.012
 6968TIP3    H242540   3.216   1.740   2.134
 6969TIP3   OH242541   3.319   1.058   2.016
 6969TIP3    H142542   3.279   1.056   1.928
 6969TIP3    H242543   3.414   1.058   1.992
 6970TIP3   OH242544   3.682   1.731   2.053
 6970TIP3    H142545   3.777   1.736   2.042
 6970TIP3    H242546   3.674   1.667   2.127
 6971TIP3   OH242547   2.706   1.410   1.874
 6971TIP3    H142548   2.696   1.336   1.813
 6971TIP3    H242549   2.645   1.383   1.943
 6972TIP3   OH242550   2.067   0.664   1.971
 6972TIP3    H142551   2.102   0.635   2.056
 6972TIP3    H242552   2.019   0.585   1.944
 6973TIP3   OH242553   2.891   1.647   1.875
 6973TIP3    H142554   2.843   1.566   1.902
 6973TIP3    H242555   2.971   1.609   1.833
 6974TIP3   OH242556   3.344   1.579   1.888
 6974TIP3    H142557   3.380   1.533   1.966
 6974TIP3    H242558   3.419   1.571   1.826
 6975TIP3   OH242559   2.431   1.155   1.890
 6975TIP3    H142560   2.464   1.155   1.982
 6975TIP3    H242561   2.511   1.133   1.838
 6976TIP3   OH242562   2.649   0.820   1.936
 6976TIP3    H142563   2.616   0.844   1.846
 6976TIP3    H242564   2.743   0.839   1.927
 6977TIP3   OH242565   3.567   1.038   1.908
 6977TIP3    H142566   3.582   1.006   1.818
 6977TIP3    H242567   3.588   1.134   1.901
 6978TIP3   OH242568   2.660   1.839   2.137
 6978TIP3    H142569   2.753   1.864   2.138
 6978TIP3    H242570   2.631   1.890   2.059
 6979TIP3   OH242571   2.931   1.857   2.059
 6979TIP3    H142572   3.024   1.828   2.056
 6979TIP3    H242573   2.893   1.789   2.000
 6980TIP3   OH242574   2.157   1.688   1.897
 6980TIP3    H142575   2.181   1.683   1.991
 6980TIP3    H242576   2.241   1.665   1.853
 6981TIP3   OH242577   5.539   1.511   1.966
 6981TIP3    H142578   5.567   1.597   2.003
 6981TIP3    H242579   5.623   1.464   1.953
 6982TIP3   OH242580   5.148   0.944   1.947
 6982TIP3    H142581   5.199   0.926   1.867
 6982TIP3    H242582   5.209   0.993   2.004
 6983TIP3   OH242583   5.191   1.329   2.045
 6983TIP3    H142584   5.214   1.274   2.122
 6983TIP3    H242585   5.101   1.299   2.022
 6984TIP3   OH242586   5.599   1.767   2.061
 6984TIP3    H142587   5.644   1.846   2.022
 6984TIP3    H242588   5.507   1.793   2.048
 6985TIP3   OH242589   4.600   1.440   1.879
 6985TIP3    H142590   4.563   1.402   1.798
 6985TIP3    H242591   4.544   1.398   1.946
 6986TIP3   OH242592   4.154   1.362   2.042
 6986TIP3    H142593   4.226   1.401   2.094
 6986TIP3    H242594   4.208   1.308   1.981
 6987TIP3   OH242595   4.779   1.668   1.866
 6987TIP3    H142596   4.743   1.582   1.895
 6987TIP3    H242597   4.868   1.645   1.832
 6988TIP3   OH242598   5.220   1.577   1.877
 6988TIP3    H142599   5.216   1.498   1.933
 6988TIP3    H242600   5.310   1.572   1.841
 6989TIP3   OH242601   4.313   1.183   1.887
 6989TIP3    H142602   4.265   1.100   1.909
 6989TIP3    H242603   4.388   1.148   1.835
 6990TIP3   OH242604   4.897   1.327   1.859
 6990TIP3    H142605   4.822   1.319   1.919
 6990TIP3    H242606   4.906   1.232   1.835
 6991TIP3   OH242607   4.529   0.875   1.922
 6991TIP3    H142608   4.538   0.888   1.825
 6991TIP3    H242609   4.588   0.802   1.941
 6992TIP3   OH242610   4.570   1.873   2.141
 6992TIP3    H142611   4.656   1.830   2.130
 6992TIP3    H242612   4.558   1.910   2.052
 6993TIP3   OH242613   3.863   1.375   1.940
 6993TIP3    H142614   3.939   1.347   1.995
 6993TIP3    H242615   3.840   1.293   1.895
 6994TIP3   OH242616   5.428   0.633   1.933
 6994TIP3    H142617   5.459   0.676   1.853
 6994TIP3    H242618   5.398   0.545   1.904
 6995TIP3   OH242619   5.328   0.366   1.924
 6995TIP3    H142620   5.406   0.320   1.891
 6995TIP3    H242621   5.256   0.311   1.886
 6996TIP3   OH242622   4.056   1.722   1.903
 6996TIP3    H142623   4.028   1.694   1.991
 6996TIP3    H242624   4.140   1.675   1.894
 6997TIP3   OH242625   7.000   1.787   2.086
 6997TIP3    H142626   7.025   1.704   2.042
 6997TIP3    H242627   6.916   1.762   2.131
 6998TIP3   OH242628   7.056   1.080   1.943
 6998TIP3    H142629   7.059   1.060   1.849
 6998TIP3    H242630   7.097   1.169   1.943
 6999TIP3   OH242631   6.167   0.688   2.035
 6999TIP3    H142632   6.148   0.633   1.957
 6999TIP3    H242633   6.252   0.725   2.011
 7000TIP3   OH242634   7.075   1.350   2.060
 7000TIP3    H142635   7.059   1.347   2.155
 7000TIP3    H242636   6.986   1.333   2.026
 7001TIP3   OH242637   6.591   1.631   1.851
 7001TIP3    H142638   6.551   1.593   1.934
 7001TIP3    H242639   6.683   1.616   1.874
 7002TIP3   OH242640   7.074   1.574   1.916
 7002TIP3    H142641   7.083   1.502   1.983
 7002TIP3    H242642   7.165   1.578   1.880
 7003TIP3   OH242643   6.775   1.320   1.876
 7003TIP3    H142644   6.736   1.308   1.964
 7003TIP3    H242645   6.759   1.234   1.830
 7004TIP3   OH242646   6.423   0.798   1.922
 7004TIP3    H142647   6.390   0.821   1.833
 7004TIP3    H242648   6.397   0.874   1.977
 7005TIP3   OH242649   0.007   0.556   1.928
 7005TIP3    H142650   0.077   0.603   1.879
 7005TIP3    H242651  -0.056   0.544   1.855
 7006TIP3   OH242652   6.734   1.800   2.149
 7006TIP3    H142653   6.747   1.830   2.058
 7006TIP3    H242654   6.649   1.753   2.147
 7007TIP3   OH242655   6.023   1.750   1.988
 7007TIP3    H142656   6.013   1.715   2.077
 7007TIP3    H242657   6.071   1.679   1.942
 7008TIP3   OH242658   1.332   3.657   2.040
 7008TIP3    H142659   1.371   3.606   1.965
 7008TIP3    H242660   1.365   3.605   2.114
 7009TIP3   OH242661   1.431   2.932   1.993
 7009TIP3    H142662   1.418   2.864   1.925
 7009TIP3    H242663   1.527   2.938   1.998
 7010TIP3   OH242664   0.996   2.233   2.013
 7010TIP3    H142665   0.934   2.276   2.072
 7010TIP3    H242666   0.939   2.190   1.948
 7011TIP3   OH242667   0.638   2.346   1.938
 7011TIP3    H142668   0.552   2.366   1.896
 7011TIP3    H242669   0.672   2.436   1.962
 7012TIP3   OH242670   1.229   2.368   2.050
 7012TIP3    H142671   1.146   2.314   2.051
 7012TIP3    H242672   1.211   2.431   2.123
 7013TIP3   OH242673   1.089   3.183   2.105
 7013TIP3    H142674   1.018   3.232   2.148
 7013TIP3    H242675   1.073   3.091   2.129
 7014TIP3   OH242676   1.408   3.246   2.015
 7014TIP3    H142677   1.411   3.157   2.053
 7014TIP3    H242678   1.314   3.266   2.030
 7015TIP3   OH242679   1.854   3.665   2.110
 7015TIP3    H142680   1.866   3.730   2.037
 7015TIP3    H242681   1.758   3.655   2.114
 7016TIP3   OH242682   0.803   3.318   1.891
 7016TIP3    H142683   0.792   3.287   1.800
 7016TIP3    H242684   0.773   3.240   1.940
 7017TIP3   OH242685   0.699   3.213   2.135
 7017TIP3    H142686   0.789   3.223   2.168
 7017TIP3    H242687   0.673   3.306   2.132
 7018TIP3   OH242688   0.936   3.397   2.165
 7018TIP3    H142689   0.927   3.489   2.137
 7018TIP3    H242690   1.032   3.391   2.165
 7019TIP3   OH242691   0.149   2.530   1.957
 7019TIP3    H142692   0.182   2.527   2.048
 7019TIP3    H242693   0.113   2.441   1.945
 7020TIP3   OH242694   1.008   3.537   1.877
 7020TIP3    H142695   0.961   3.450   1.878
 7020TIP3    H242696   1.089   3.512   1.826
 7021TIP3   OH242697   1.449   3.477   1.865
 7021TIP3    H142698   1.476   3.414   1.934
 7021TIP3    H242699   1.525   3.473   1.803
 7022TIP3   OH242700   1.110   3.202   1.819
 7022TIP3    H142701   1.083   3.189   1.912
 7022TIP3    H242702   1.112   3.107   1.795
 7023TIP3   OH242703   0.773   3.687   2.080
 7023TIP3    H142704   0.865   3.713   2.092
 7023TIP3    H242705   0.749   3.745   2.007
 7024TIP3   OH242706   1.596   2.561   1.956
 7024TIP3    H142707   1.647   2.637   1.987
 7024TIP3    H242708   1.638   2.492   2.009
 7025TIP3   OH242709   1.058   3.705   2.091
 7025TIP3    H142710   1.153   3.692   2.076
 7025TIP3    H242711   1.026   3.645   2.020
 7026TIP3   OH242712   0.302   3.640   1.983
 7026TIP3    H142713   0.304   3.677   2.072
 7026TIP3    H242714   0.373   3.574   1.986
 7027TIP3   OH242715   3.313   2.824   1.932
 7027TIP3    H142716   3.314   2.837   1.835
 7027TIP3    H242717   3.370   2.899   1.957
 7028TIP3   OH242718   2.875   2.224   2.017
 7028TIP3    H142719   2.824   2.226   2.099
 7028TIP3    H242720   2.855   2.135   1.985
 7029TIP3   OH242721   2.555   2.301   1.928
 7029TIP3    H142722   2.537   2.283   2.023
 7029TIP3    H242723   2.474   2.348   1.899
 7030TIP3   OH242724   3.134   2.249   2.086
 7030TIP3    H142725   3.038   2.241   2.064
 7030TIP3    H242726   3.143   2.344   2.104
 7031TIP3   OH242727   3.201   2.498   2.197
 7031TIP3    H142728   3.143   2.535   2.266
 7031TIP3    H242729   3.222   2.575   2.142
 7032TIP3   OH242730   3.708   3.660   2.100
 7032TIP3    H142731   3.786   3.603   2.092
 7032TIP3    H242732   3.745   3.746   2.130
 7033TIP3   OH242733   2.499   2.207   2.175
 7033TIP3    H142734   2.483   2.287   2.227
 7033TIP3    H242735   2.550   2.150   2.234
 7034TIP3   OH242736   2.085   2.530   1.965
 7034TIP3    H142737   2.006   2.574   2.001
 7034TIP3    H242738   2.079   2.439   2.002
 7035TIP3   OH242739   2.861   3.484   1.917
 7035TIP3    H142740   2.787   3.496   1.978
 7035TIP3    H242741   2.909   3.416   1.966
 7036TIP3   OH242742   2.411   3.029   1.860
 7036TIP3    H142743   2.423   3.025   1.956
 7036TIP3    H242744   2.502   3.041   1.830
 7037TIP3   OH242745   2.957   3.200   1.895
 7037TIP3    H142746   3.002   3.165   1.975
 7037TIP3    H242747   2.864   3.195   1.921
 7038TIP3   OH242748   2.567   2.797   2.093
 7038TIP3    H142749   2.600   2.871   2.145
 7038TIP3    H242750   2.625   2.721   2.117
 7039TIP3   OH242751   3.699   2.144   2.060
 7039TIP3    H142752   3.713   2.102   1.972
 7039TIP3    H242753   3.783   2.120   2.101
 7040TIP3   OH242754   2.274   2.199   2.005
 7040TIP3    H142755   2.240   2.111   1.979
 7040TIP3    H242756   2.360   2.177   2.044
 7041TIP3   OH242757   4.840   2.663   1.981
 7041TIP3    H142758   4.894   2.693   2.057
 7041TIP3    H242759   4.894   2.585   1.953
 7042TIP3   OH242760   5.057   2.768   2.160
 7042TIP3    H142761   5.099   2.820   2.230
 7042TIP3    H242762   5.115   2.791   2.085
 7043TIP3   OH242763   5.202   2.914   1.970
 7043TIP3    H142764   5.169   2.895   1.879
 7043TIP3    H242765   5.297   2.895   1.954
 7044TIP3   OH242766   4.420   2.283   1.923
 7044TIP3    H142767   4.382   2.256   2.009
 7044TIP3    H242768   4.363   2.360   1.901
 7045TIP3   OH242769   4.370   2.189   2.171
 7045TIP3    H142770   4.357   2.234   2.256
 7045TIP3    H242771   4.393   2.098   2.196
 7046TIP3   OH242772   4.016   2.536   1.965
 7046TIP3    H142773   4.022   2.564   2.057
 7046TIP3    H242774   3.994   2.441   1.972
 7047TIP3   OH242775   4.879   3.201   1.868
 7047TIP3    H142776   4.920   3.217   1.957
 7047TIP3    H242777   4.861   3.105   1.870
 7048TIP3   OH242778   5.472   2.910   1.890
 7048TIP3    H142779   5.452   2.889   1.796
 7048TIP3    H242780   5.477   3.009   1.889
 7049TIP3   OH242781   5.600   2.794   2.107
 7049TIP3    H142782   5.525   2.816   2.049
 7049TIP3    H242783   5.566   2.811   2.196
 7050TIP3   OH242784   5.411   2.549   1.915
 7050TIP3    H142785   5.474   2.606   1.870
 7050TIP3    H242786   5.412   2.468   1.864
 7051TIP3   OH242787   4.159   2.220   1.999
 7051TIP3    H142788   4.166   2.138   1.947
 7051TIP3    H242789   4.233   2.207   2.061
 7052TIP3   OH242790   6.702   2.626   1.993
 7052TIP3    H142791   6.724   2.717   2.018
 7052TIP3    H242792   6.782   2.595   1.945
 7053TIP3   OH242793   7.204   2.007   2.032
 7053TIP3    H142794   7.194   1.938   2.100
 7053TIP3    H242795   7.299   2.028   2.038
 7054TIP3   OH242796   6.308   2.262   1.964
 7054TIP3    H142797   6.310   2.245   2.062
 7054TIP3    H242798   6.248   2.337   1.964
 7055TIP3   OH242799   5.862   2.807   2.020
 7055TIP3    H142800   5.881   2.816   2.116
 7055TIP3    H242801   5.764   2.810   2.027
 7056TIP3   OH242802   6.994   3.114   1.999
 7056TIP3    H142803   6.975   3.207   2.015
 7056TIP3    H242804   6.922   3.098   1.936
 7057TIP3   OH242805   6.464   3.355   1.846
 7057TIP3    H142806   6.397   3.327   1.783
 7057TIP3    H242807   6.412   3.351   1.930
 7058TIP3   OH242808   5.823   2.512   1.957
 7058TIP3    H142809   5.879   2.578   2.002
 7058TIP3    H242810   5.765   2.486   2.030
 7059TIP3   OH242811   7.077   3.456   1.898
 7059TIP3    H142812   7.154   3.426   1.950
 7059TIP3    H242813   7.132   3.493   1.824
 7060TIP3   OH242814   6.769   3.180   1.881
 7060TIP3    H142815   6.688   3.219   1.919
 7060TIP3    H242816   6.741   3.086   1.871
 7061TIP3   OH242817   7.250   2.287   1.875
 7061TIP3    H142818   7.324   2.261   1.934
 7061TIP3    H242819   7.192   2.213   1.894
 7062TIP3   OH242820   5.980   3.672   2.002
 7062TIP3    H142821   5.934   3.607   2.058
 7062TIP3    H242822   6.052   3.617   1.969
 7063TIP3   OH242823   1.093   4.526   1.976
 7063TIP3    H142824   1.122   4.549   2.066
 7063TIP3    H242825   1.086   4.430   1.982
 7064TIP3   OH242826   1.766   5.253   2.000
 7064TIP3    H142827   1.792   5.314   2.073
 7064TIP3    H242828   1.844   5.195   2.008
 7065TIP3   OH242829   1.393   4.786   1.969
 7065TIP3    H142830   1.399   4.787   1.871
 7065TIP3    H242831   1.485   4.799   1.996
 7066TIP3   OH242832   0.944   4.117   1.940
 7066TIP3    H142833   0.946   4.125   2.036
 7066TIP3    H242834   0.952   4.021   1.927
 7067TIP3   OH242835   1.090   5.046   2.117
 7067TIP3    H142836   1.055   5.114   2.176
 7067TIP3    H242837   1.066   4.964   2.161
 7068TIP3   OH242838   0.806   5.242   1.893
 7068TIP3    H142839   0.798   5.192   1.810
 7068TIP3    H242840   0.753   5.186   1.952
 7069TIP3   OH242841   0.684   5.117   2.140
 7069TIP3    H142842   0.770   5.079   2.160
 7069TIP3    H242843   0.685   5.193   2.200
 7070TIP3   OH242844   0.372   5.142   2.037
 7070TIP3    H142845   0.413   5.122   2.121
 7070TIP3    H242846   0.429   5.090   1.977
 7071TIP3   OH242847   1.012   5.418   1.878
 7071TIP3    H142848   0.948   5.343   1.884
 7071TIP3    H242849   1.090   5.372   1.837
 7072TIP3   OH242850   1.461   5.351   1.884
 7072TIP3    H142851   1.515   5.305   1.950
 7072TIP3    H242852   1.530   5.364   1.815
 7073TIP3   OH242853   0.542   4.976   1.872
 7073TIP3    H142854   0.543   4.883   1.896
 7073TIP3    H242855   0.632   4.986   1.834
 7074TIP3   OH242856   1.129   5.062   1.846
 7074TIP3    H142857   1.118   5.048   1.943
 7074TIP3    H242858   1.104   4.974   1.815
 7075TIP3   OH242859   0.790   4.573   1.901
 7075TIP3    H142860   0.772   4.599   1.809
 7075TIP3    H242861   0.883   4.598   1.911
 7076TIP3   OH242862   1.701   4.766   1.879
 7076TIP3    H142863   1.684   4.752   1.784
 7076TIP3    H242864   1.709   4.864   1.882
 7077TIP3   OH242865   1.831   4.668   2.104
 7077TIP3    H142866   1.815   4.700   2.013
 7077TIP3    H242867   1.748   4.695   2.145
 7078TIP3   OH242868   1.684   4.378   1.968
 7078TIP3    H142869   1.679   4.474   1.960
 7078TIP3    H242870   1.590   4.353   1.970
 7079TIP3   OH242871   1.080   5.556   2.099
 7079TIP3    H142872   1.156   5.508   2.064
 7079TIP3    H242873   1.007   5.500   2.069
 7080TIP3   OH242874   0.304   5.531   1.975
 7080TIP3    H142875   0.245   5.596   2.020
 7080TIP3    H242876   0.309   5.460   2.041
 7081TIP3   OH242877   2.963   4.555   1.975
 7081TIP3    H142878   2.975   4.547   2.071
 7081TIP3    H242879   3.029   4.488   1.945
 7082TIP3   OH242880   3.703   5.218   2.009
 7082TIP3    H142881   3.725   5.312   2.027
 7082TIP3    H242882   3.750   5.170   2.078
 7083TIP3   OH242883   3.180   5.509   2.057
 7083TIP3    H142884   3.187   5.429   2.001
 7083TIP3    H242885   3.220   5.479   2.139
 7084TIP3   OH242886   3.333   4.790   2.013
 7084TIP3    H142887   3.311   4.786   1.919
 7084TIP3    H242888   3.431   4.784   2.007
 7085TIP3   OH242889   3.291   5.110   2.033
 7085TIP3    H142890   3.300   5.048   2.107
 7085TIP3    H242891   3.220   5.068   1.981
 7086TIP3   OH242892   3.725   5.496   2.057
 7086TIP3    H142893   3.778   5.577   2.060
 7086TIP3    H242894   3.646   5.524   2.106
 7087TIP3   OH242895   2.710   5.172   1.896
 7087TIP3    H142896   2.679   5.164   1.805
 7087TIP3    H242897   2.656   5.102   1.937
 7088TIP3   OH242898   2.518   4.156   2.125
 7088TIP3    H142899   2.515   4.252   2.141
 7088TIP3    H242900   2.509   4.121   2.214
 7089TIP3   OH242901   2.884   5.387   1.877
 7089TIP3    H142902   2.836   5.302   1.882
 7089TIP3    H242903   2.964   5.362   1.827
 7090TIP3   OH242904   3.337   5.345   1.884
 7090TIP3    H142905   3.364   5.283   1.954
 7090TIP3    H242906   3.415   5.350   1.826
 7091TIP3   OH242907   3.044   5.067   1.894
 7091TIP3    H142908   2.979   5.078   1.965
 7091TIP3    H242909   3.020   4.977   1.861
 7092TIP3   OH242910   2.665   4.537   1.936
 7092TIP3    H142911   2.602   4.608   1.917
 7092TIP3    H242912   2.752   4.581   1.929
 7093TIP3   OH242913   3.599   4.795   1.908
 7093TIP3    H142914   3.574   4.772   1.817
 7093TIP3    H242915   3.608   4.893   1.902
 7094TIP3   OH242916   1.973   5.057   1.994
 7094TIP3    H142917   2.034   4.995   2.038
 7094TIP3    H242918   1.958   5.009   1.909
 7095TIP3   OH242919   3.554   4.391   1.959
 7095TIP3    H142920   3.579   4.461   1.896
 7095TIP3    H242921   3.520   4.319   1.903
 7096TIP3   OH242922   3.469   4.115   1.884
 7096TIP3    H142923   3.537   4.049   1.864
 7096TIP3    H242924   3.388   4.062   1.881
 7097TIP3   OH242925   5.538   5.275   1.963
 7097TIP3    H142926   5.566   5.367   1.979
 7097TIP3    H242927   5.614   5.227   1.999
 7098TIP3   OH242928   4.454   4.228   1.945
 7098TIP3    H142929   4.415   4.170   2.014
 7098TIP3    H242930   4.374   4.260   1.898
 7099TIP3   OH242931   3.939   4.203   2.216
 7099TIP3    H142932   3.985   4.145   2.153
 7099TIP3    H242933   3.851   4.161   2.218
 7100TIP3   OH242934   4.288   4.501   2.049
 7100TIP3    H142935   4.266   4.422   1.998
 7100TIP3    H242936   4.379   4.517   2.016
 7101TIP3   OH242937   5.626   5.526   2.056
 7101TIP3    H142938   5.715   5.503   2.085
 7101TIP3    H242939   5.584   5.534   2.143
 7102TIP3   OH242940   4.561   5.218   1.866
 7102TIP3    H142941   4.568   5.133   1.820
 7102TIP3    H242942   4.527   5.190   1.955
 7103TIP3   OH242943   4.486   5.144   2.118
 7103TIP3    H142944   4.508   5.060   2.162
 7103TIP3    H242945   4.468   5.198   2.196
 7104TIP3   OH242946   4.805   5.326   2.191
 7104TIP3    H142947   4.755   5.337   2.272
 7104TIP3    H242948   4.755   5.375   2.124
 7105TIP3   OH242949   4.331   4.093   2.176
 7105TIP3    H142950   4.279   4.058   2.252
 7105TIP3    H242951   4.369   4.170   2.221
 7106TIP3   OH242952   4.756   5.406   1.879
 7106TIP3    H142953   4.686   5.336   1.879
 7106TIP3    H242954   4.834   5.354   1.854
 7107TIP3   OH242955   4.310   4.944   1.892
 7107TIP3    H142956   4.305   4.964   1.988
 7107TIP3    H242957   4.403   4.924   1.876
 7108TIP3   OH242958   4.415   4.778   2.132
 7108TIP3    H142959   4.327   4.772   2.092
 7108TIP3    H242960   4.472   4.739   2.066
 7109TIP3   OH242961   4.530   4.585   1.915
 7109TIP3    H142962   4.491   4.590   1.825
 7109TIP3    H242963   4.622   4.608   1.900
 7110TIP3   OH242964   4.591   5.610   2.092
 7110TIP3    H142965   4.640   5.564   2.023
 7110TIP3    H242966   4.556   5.687   2.041
 7111TIP3   OH242967   5.452   4.474   1.916
 7111TIP3    H142968   5.489   4.486   1.825
 7111TIP3    H242969   5.509   4.407   1.955
 7112TIP3   OH242970   4.112   4.066   2.017
 7112TIP3    H142971   4.111   3.985   1.962
 7112TIP3    H242972   4.194   4.054   2.069
 7113TIP3   OH242973   4.037   5.478   1.900
 7113TIP3    H142974   4.021   5.464   1.995
 7113TIP3    H242975   4.112   5.417   1.884
 7114TIP3   OH242976   6.724   4.564   2.003
 7114TIP3    H142977   6.799   4.581   2.063
 7114TIP3    H242978   6.744   4.474   1.972
 7115TIP3   OH242979   6.969   4.652   2.166
 7115TIP3    H142980   6.998   4.718   2.229
 7115TIP3    H242981   7.020   4.681   2.087
 7116TIP3   OH242982   7.327   3.942   2.133
 7116TIP3    H142983   7.275   4.021   2.113
 7116TIP3    H242984   7.409   3.963   2.085
 7117TIP3   OH242985   6.975   5.507   2.025
 7117TIP3    H142986   7.023   5.441   1.968
 7117TIP3    H242987   6.913   5.449   2.070
 7118TIP3   OH242988   7.102   4.774   1.965
 7118TIP3    H142989   7.040   4.788   1.892
 7118TIP3    H242990   7.125   4.865   1.988
 7119TIP3   OH242991   6.653   4.112   2.019
 7119TIP3    H142992   6.590   4.179   2.049
 7119TIP3    H242993   6.588   4.049   1.983
 7120TIP3   OH242994   6.171   4.466   2.023
 7120TIP3    H142995   6.191   4.383   1.976
 7120TIP3    H242996   6.253   4.514   1.998
 7121TIP3   OH242997   6.672   5.080   2.082
 7121TIP3    H142998   6.650   5.149   2.149
 7121TIP3    H242999   6.597   5.019   2.091
 7122TIP3   OH243000   6.990   5.062   1.891
 7122TIP3    H143001   6.997   5.065   1.990
 7122TIP3    H243002   6.895   5.047   1.882
 7123TIP3   OH243003   6.474   5.211   1.877
 7123TIP3    H143004   6.438   5.179   1.793
 7123TIP3    H243005   6.433   5.147   1.937
 7124TIP3   OH243006   6.578   5.316   2.180
 7124TIP3    H143007   6.507   5.322   2.114
 7124TIP3    H243008   6.648   5.373   2.140
 7125TIP3   OH243009   6.034   5.087   2.040
 7125TIP3    H143010   6.048   5.172   2.083
 7125TIP3    H243011   6.101   5.084   1.971
 7126TIP3   OH243012   5.876   4.405   1.932
 7126TIP3    H143013   5.956   4.433   1.980
 7126TIP3    H243014   5.809   4.455   1.980
 7127TIP3   OH243015   6.674   5.412   1.875
 7127TIP3    H143016   6.620   5.329   1.877
 7127TIP3    H243017   6.757   5.380   1.833
 7128TIP3   OH243018   7.117   5.337   1.892
 7128TIP3    H143019   7.176   5.288   1.956
 7128TIP3    H243020   7.182   5.347   1.819
 7129TIP3   OH243021   6.732   5.068   1.807
 7129TIP3    H143022   6.684   5.062   1.892
 7129TIP3    H243023   6.748   4.972   1.788
 7130TIP3   OH243024   6.421   4.566   1.913
 7130TIP3    H143025   6.388   4.588   1.823
 7130TIP3    H243026   6.516   4.580   1.903
 7131TIP3   OH243027   5.766   5.117   1.970
 7131TIP3    H143028   5.856   5.108   2.007
 7131TIP3    H243029   5.753   5.031   1.925
 7132TIP3   OH243030   7.277   4.400   1.939
 7132TIP3    H143031   7.258   4.423   1.845
 7132TIP3    H243032   7.257   4.306   1.940
 7133TIP3   OH243033   7.280   4.108   1.902
 7133TIP3    H143034   7.300   4.072   1.815
 7133TIP3    H243035   7.182   4.097   1.901
 7134TIP3   OH243036   6.709   5.554   2.091
 7134TIP3    H143037   6.776   5.611   2.050
 7134TIP3    H243038   6.671   5.513   2.010
 7135TIP3   OH243039   1.059   6.427   2.017
 7135TIP3    H143040   1.080   6.371   2.093
 7135TIP3    H243041   1.127   6.396   1.954
 7136TIP3   OH243042   1.821   7.153   1.961
 7136TIP3    H143043   1.847   7.243   1.931
 7136TIP3    H243044   1.902   7.122   2.004
 7137TIP3   OH243045   0.653   6.044   1.948
 7137TIP3    H143046   0.619   5.989   2.021
 7137TIP3    H243047   0.579   6.105   1.932
 7138TIP3   OH243048   0.157   6.080   2.155
 7138TIP3    H143049   0.201   6.117   2.075
 7138TIP3    H243050   0.066   6.069   2.121
 7139TIP3   OH243051   0.538   6.329   2.045
 7139TIP3    H143052   0.500   6.324   1.956
 7139TIP3    H243053   0.631   6.355   2.024
 7140TIP3   OH243054   1.269   6.109   2.047
 7140TIP3    H143055   1.179   6.117   2.081
 7140TIP3    H243056   1.314   6.179   2.099
 7141TIP3   OH243057   0.208   6.585   2.027
 7141TIP3    H143058   0.261   6.657   2.066
 7141TIP3    H243059   0.123   6.601   2.070
 7142TIP3   OH243060   0.794   7.087   1.861
 7142TIP3    H143061   0.719   7.028   1.835
 7142TIP3    H243062   0.781   7.085   1.958
 7143TIP3   OH243063   0.685   7.014   2.128
 7143TIP3    H143064   0.735   6.964   2.193
 7143TIP3    H243065   0.675   7.102   2.173
 7144TIP3   OH243066   0.944   7.162   2.189
 7144TIP3    H143067   0.865   7.218   2.184
 7144TIP3    H243068   1.010   7.220   2.232
 7145TIP3   OH243069   0.680   7.276   2.162
 7145TIP3    H143070   0.621   7.261   2.084
 7145TIP3    H243071   0.631   7.353   2.200
 7146TIP3   OH243072   0.386   6.995   2.080
 7146TIP3    H143073   0.356   7.070   2.133
 7146TIP3    H243074   0.478   6.986   2.111
 7147TIP3   OH243075   0.217   6.298   1.956
 7147TIP3    H143076   0.238   6.390   1.979
 7147TIP3    H243077   0.123   6.304   1.926
 7148TIP3   OH243078   1.020   7.285   1.885
 7148TIP3    H143079   0.955   7.214   1.880
 7148TIP3    H243080   1.095   7.242   1.840
 7149TIP3   OH243081   1.471   7.208   1.896
 7149TIP3    H143082   1.491   7.225   1.989
 7149TIP3    H243083   1.556   7.220   1.848
 7150TIP3   OH243084   0.587   6.832   1.839
 7150TIP3    H143085   0.569   6.813   1.933
 7150TIP3    H243086   0.620   6.748   1.804
 7151TIP3   OH243087   0.674   6.622   2.157
 7151TIP3    H143088   0.598   6.569   2.187
 7151TIP3    H243089   0.707   6.565   2.086
 7152TIP3   OH243090   0.758   6.447   1.951
 7152TIP3    H143091   0.719   6.462   1.862
 7152TIP3    H243092   0.853   6.437   1.932
 7153TIP3   OH243093   1.782   5.926   2.075
 7153TIP3    H143094   1.832   5.916   1.994
 7153TIP3    H243095   1.837   5.988   2.127
 7154TIP3   OH243096   0.168   5.733   2.102
 7154TIP3    H143097   0.204   5.818   2.070
 7154TIP3    H243098   0.089   5.763   2.149
 7155TIP3   OH243099   0.344   5.937   2.000
 7155TIP3    H143100   0.377   5.856   1.956
 7155TIP3    H243101   0.379   5.927   2.090
 7156TIP3   OH243102   2.910   6.457   1.937
 7156TIP3    H143103   2.900   6.504   2.022
 7156TIP3    H243104   2.963   6.380   1.962
 7157TIP3   OH243105   3.546   5.695   2.169
 7157TIP3    H143106   3.482   5.748   2.217
 7157TIP3    H243107   3.610   5.765   2.142
 7158TIP3   OH243108   3.693   7.143   2.052
 7158TIP3    H143109   3.693   7.210   1.981
 7158TIP3    H243110   3.783   7.105   2.043
 7159TIP3   OH243111   2.868   6.023   1.987
 7159TIP3    H143112   2.858   6.056   2.077
 7159TIP3    H243113   2.812   5.944   1.989
 7160TIP3   OH243114   2.497   6.100   1.908
 7160TIP3    H143115   2.466   6.035   1.974
 7160TIP3    H243116   2.435   6.173   1.923
 7161TIP3   OH243117   1.958   6.125   2.168
 7161TIP3    H143118   2.020   6.177   2.112
 7161TIP3    H243119   1.974   6.158   2.257
 7162TIP3   OH243120   2.126   6.654   2.050
 7162TIP3    H143121   2.185   6.632   2.125
 7162TIP3    H243122   2.094   6.740   2.084
 7163TIP3   OH243123   2.403   5.979   2.130
 7163TIP3    H143124   2.398   6.063   2.182
 7163TIP3    H243125   2.499   5.964   2.139
 7164TIP3   OH243126   2.108   6.313   2.002
 7164TIP3    H143127   2.156   6.392   2.033
 7164TIP3    H243128   2.035   6.352   1.952
 7165TIP3   OH243129   3.378   7.251   1.897
 7165TIP3    H143130   3.437   7.206   1.959
 7165TIP3    H243131   3.422   7.232   1.811
 7166TIP3   OH243132   2.424   6.823   1.860
 7166TIP3    H143133   2.427   6.793   1.954
 7166TIP3    H243134   2.517   6.808   1.833
 7167TIP3   OH243135   2.529   6.647   2.120
 7167TIP3    H143136   2.466   6.580   2.155
 7167TIP3    H243137   2.587   6.590   2.066
 7168TIP3   OH243138   2.631   6.488   1.929
 7168TIP3    H143139   2.588   6.485   1.842
 7168TIP3    H243140   2.725   6.476   1.909
 7169TIP3   OH243141   3.604   6.703   1.926
 7169TIP3    H143142   3.599   6.651   1.843
 7169TIP3    H243143   3.598   6.794   1.891
 7170TIP3   OH243144   3.478   5.974   1.823
 7170TIP3    H143145   3.474   6.057   1.872
 7170TIP3    H243146   3.384   5.958   1.807
 7171TIP3   OH243147   3.668   5.904   2.067
 7171TIP3    H143148   3.690   5.866   1.978
 7171TIP3    H243149   3.681   5.999   2.054
 7172TIP3   OH243150   5.590   7.192   2.058
 7172TIP3    H143151   5.630   7.245   1.985
 7172TIP3    H243152   5.638   7.108   2.046
 7173TIP3   OH243153   4.437   6.064   1.915
 7173TIP3    H143154   4.396   6.054   2.003
 7173TIP3    H243155   4.368   6.107   1.863
 7174TIP3   OH243156   4.287   6.262   2.083
 7174TIP3    H143157   4.241   6.282   2.000
 7174TIP3    H243158   4.378   6.288   2.058
 7175TIP3   OH243159   3.980   6.596   2.041
 7175TIP3    H143160   4.027   6.662   2.094
 7175TIP3    H243161   3.890   6.631   2.036
 7176TIP3   OH243162   4.555   6.980   1.825
 7176TIP3    H143163   4.596   7.055   1.780
 7176TIP3    H243164   4.576   7.000   1.918
 7177TIP3   OH243165   4.647   7.093   2.059
 7177TIP3    H143166   4.610   7.091   2.149
 7177TIP3    H243167   4.738   7.120   2.081
 7178TIP3   OH243168   4.434   7.272   2.235
 7178TIP3    H143169   4.364   7.249   2.170
 7178TIP3    H243170   4.446   7.184   2.275
 7179TIP3   OH243171   4.305   5.992   2.139
 7179TIP3    H143172   4.278   6.084   2.159
 7179TIP3    H243173   4.355   5.970   2.219
 7180TIP3   OH243174   3.958   6.285   2.005
 7180TIP3    H143175   3.986   6.377   2.022
 7180TIP3    H243176   3.865   6.291   1.979
 7181TIP3   OH243177   4.724   7.202   1.783
 7181TIP3    H143178   4.693   7.177   1.871
 7181TIP3    H243179   4.788   7.270   1.817
 7182TIP3   OH243180   4.531   6.361   1.943
 7182TIP3    H143181   4.613   6.398   1.909
 7182TIP3    H243182   4.575   6.305   2.011
 7183TIP3   OH243183   5.477   6.683   1.903
 7183TIP3    H143184   5.433   6.678   1.816
 7183TIP3    H243185   5.429   6.758   1.942
 7184TIP3   OH243186   3.929   7.019   1.951
 7184TIP3    H143187   4.000   6.985   2.009
 7184TIP3    H243188   3.897   6.937   1.907
 7185TIP3   OH243189   5.623   6.590   2.103
 7185TIP3    H143190   5.585   6.626   2.018
 7185TIP3    H243191   5.627   6.669   2.157
 7186TIP3   OH243192   3.932   5.762   2.157
 7186TIP3    H143193   3.968   5.820   2.087
 7186TIP3    H243194   3.902   5.822   2.227
 7187TIP3   OH243195   4.101   5.935   1.981
 7187TIP3    H143196   4.134   5.861   1.926
 7187TIP3    H243197   4.176   5.947   2.043
 7188TIP3   OH243198   7.079   6.613   1.915
 7188TIP3    H143199   7.080   6.596   1.819
 7188TIP3    H243200   7.152   6.559   1.945
 7189TIP3   OH243201   6.647   6.001   1.953
 7189TIP3    H143202   6.704   5.982   2.029
 7189TIP3    H243203   6.578   5.930   1.954
 7190TIP3   OH243204   5.878   6.576   2.021
 7190TIP3    H143205   5.931   6.586   2.100
 7190TIP3    H243206   5.787   6.578   2.057
 7191TIP3   OH243207   6.501   7.078   1.878
 7191TIP3    H143208   6.511   6.982   1.888
 7191TIP3    H243209   6.565   7.105   1.950
 7192TIP3   OH243210   6.306   7.010   2.136
 7192TIP3    H143211   6.387   7.056   2.170
 7192TIP3    H243212   6.254   7.092   2.125
 7193TIP3   OH243213   6.213   7.277   2.189
 7193TIP3    H143214   6.282   7.322   2.138
 7193TIP3    H243215   6.264   7.258   2.269
 7194TIP3   OH243216   6.014   6.983   2.066
 7194TIP3    H143217   6.010   7.073   2.103
 7194TIP3    H243218   6.103   6.978   2.029
 7195TIP3   OH243219   5.870   6.268   2.003
 7195TIP3    H143220   5.913   6.353   2.012
 7195TIP3    H243221   5.824   6.257   2.090
 7196TIP3   OH243222   6.706   7.301   1.866
 7196TIP3    H143223   6.629   7.246   1.844
 7196TIP3    H243224   6.723   7.273   1.958
 7197TIP3   OH243225   7.068   7.134   1.880
 7197TIP3    H143226   7.037   7.150   1.971
 7197TIP3    H243227   7.149   7.190   1.881
 7198TIP3   OH243228   6.185   6.843   1.861
 7198TIP3    H143229   6.191   6.773   1.926
 7198TIP3    H243230   6.277   6.864   1.845
 7199TIP3   OH243231   5.742   6.971   1.982
 7199TIP3    H143232   5.836   6.956   2.006
 7199TIP3    H243233   5.723   6.903   1.913
 7200TIP3   OH243234   7.292   6.270   1.945
 7200TIP3    H143235   7.267   6.237   1.856
 7200TIP3    H243236   7.227   6.227   2.003
   7.34166   7.34166   8.50000   0.00000   0.00000   0.00000   0.00000   0.00000   0.00000
