;;
;; Generated by CHARMM-GUI (http://www.charmm-gui.org) v1.7
;;
;; psf2itp_mol.py
;;
;; Correspondance:
;; jul316@lehigh.edu or wonpil@lehigh.edu
;;
;; GROMACS topology file for LIG
;;


[ moleculetype ]
; name	nrexcl
LIG	     3

[ atoms ]
; nr	type	resnr	residu	atom	cgnr	charge	mass
     1      SG311      1      LIG     S1      1     -0.236    32.0600   ; qtot -0.236
     2      SG311      1      LIG     S2      2     -0.165    32.0600   ; qtot -0.401
     3      SG311      1      LIG     S3      3     -0.145    32.0600   ; qtot -0.546
     4      OG301      1      LIG     O1      4     -0.307    15.9994   ; qtot -0.853
     5      OG2D1      1      LIG     O2      5     -0.469    15.9994   ; qtot -1.322
     6      OG311      1      LIG     O3      6     -0.671    15.9994   ; qtot -1.993
     7      OG2D1      1      LIG     O4      7     -0.461    15.9994   ; qtot -2.454
     8      OG2D1      1      LIG     O5      8     -0.508    15.9994   ; qtot -2.962
     9     NG2R43      1      LIG     N1      9     -0.125    14.0070   ; qtot -3.087
    10      NG2S1      1      LIG     N2     10     -0.548    14.0070   ; qtot -3.635
    11     NG2R51      1      LIG     N3     11      0.247    14.0070   ; qtot -3.388
    12     NG2R50      1      LIG     N4     12     -0.583    14.0070   ; qtot -3.971
    13     NG2R50      1      LIG     N5     13     -0.321    14.0070   ; qtot -4.292
    14     NG2R50      1      LIG     N6     14     -0.093    14.0070   ; qtot -4.385
    15     CG3RC1      1      LIG     C1     15      0.024    12.0110   ; qtot -4.361
    16     CG3C41      1      LIG     C2     16     -0.033    12.0110   ; qtot -4.394
    17     CG2R53      1      LIG     C3     17      0.288    12.0110   ; qtot -4.106
    18     CG2D1O      1      LIG     C4     18      0.368    12.0110   ; qtot -3.738
    19      CG311      1      LIG     C5     19      0.437    12.0110   ; qtot -3.301
    20     CG2DC1      1      LIG     C6     20     -0.061    12.0110   ; qtot -3.362
    21      CG321      1      LIG     C7     21     -0.093    12.0110   ; qtot -3.455
    22      CG2O2      1      LIG     C8     22      0.393    12.0110   ; qtot -3.062
    23      CG311      1      LIG     C9     23      0.366    12.0110   ; qtot -2.696
    24     CG2R53      1      LIG    C10     24      0.670    12.0110   ; qtot -2.026
    25      CG321      1      LIG    C11     25     -0.181    12.0110   ; qtot -2.207
    26      CG2O1      1      LIG    C12     26      0.567    12.0110   ; qtot -1.640
    27      CG331      1      LIG    C13     27     -0.281    12.0110   ; qtot -1.921
    28      CG331      1      LIG    C14     28     -0.272    12.0110   ; qtot -2.193
    29      CG331      1      LIG    C15     29     -0.180    12.0110   ; qtot -2.373
    30       HGA1      1      LIG     H1     30      0.090     1.0080   ; qtot -2.283
    31       HGA2      1      LIG     H2     31      0.090     1.0080   ; qtot -2.193
    32       HGA2      1      LIG     H3     32      0.090     1.0080   ; qtot -2.103
    33       HGA1      1      LIG     H4     33      0.090     1.0080   ; qtot -2.013
    34       HGA2      1      LIG     H5     34      0.090     1.0080   ; qtot -1.923
    35       HGA2      1      LIG     H6     35      0.090     1.0080   ; qtot -1.833
    36       HGA1      1      LIG     H7     36      0.090     1.0080   ; qtot -1.743
    37       HGP1      1      LIG     H8     37      0.314     1.0080   ; qtot -1.429
    38       HGP1      1      LIG     H9     38      0.439     1.0080   ; qtot -0.990
    39       HGA2      1      LIG    H10     39      0.090     1.0080   ; qtot -0.900
    40       HGA2      1      LIG    H11     40      0.090     1.0080   ; qtot -0.810
    41       HGA3      1      LIG    H12     41      0.090     1.0080   ; qtot -0.720
    42       HGA3      1      LIG    H13     42      0.090     1.0080   ; qtot -0.630
    43       HGA3      1      LIG    H14     43      0.090     1.0080   ; qtot -0.540
    44       HGA3      1      LIG    H15     44      0.090     1.0080   ; qtot -0.450
    45       HGA3      1      LIG    H16     45      0.090     1.0080   ; qtot -0.360
    46       HGA3      1      LIG    H17     46      0.090     1.0080   ; qtot -0.270
    47       HGA3      1      LIG    H18     47      0.090     1.0080   ; qtot -0.180
    48       HGA3      1      LIG    H19     48      0.090     1.0080   ; qtot -0.090
    49       HGA3      1      LIG    H20     49      0.090     1.0080   ; qtot -0.000

[ bonds ]
; ai	aj	funct	b0	Kb
    1    15     1
    1    19     1
    2    21     1
    2    24     1
    3    23     1
    3    25     1
    4    19     1
    4    23     1
    5    17     1
    6    22     1
    6    38     1
    7    22     1
    8    26     1
    9    15     1
    9    17     1
    9    18     1
   10    23     1
   10    26     1
   10    37     1
   11    13     1
   11    24     1
   11    29     1
   12    14     1
   12    24     1
   13    14     1
   15    16     1
   15    30     1
   16    17     1
   16    31     1
   16    32     1
   18    20     1
   18    22     1
   19    20     1
   19    33     1
   20    21     1
   21    34     1
   21    35     1
   23    36     1
   25    27     1
   25    39     1
   25    40     1
   26    28     1
   27    41     1
   27    42     1
   27    43     1
   28    44     1
   28    45     1
   28    46     1
   29    47     1
   29    48     1
   29    49     1

[ pairs ]
; ai	aj	funct	c6	c12
    1    17     1 
    1    18     1 
    1    21     1 
    1    23     1 
    1    31     1 
    1    32     1 
    2    13     1 
    2    14     1 
    2    18     1 
    2    19     1 
    2    29     1 
    3    19     1 
    3    26     1 
    3    37     1 
    3    41     1 
    3    42     1 
    3    43     1 
    4    15     1 
    4    18     1 
    4    21     1 
    4    25     1 
    4    26     1 
    4    37     1 
    5    15     1 
    5    18     1 
    5    31     1 
    5    32     1 
    6     9     1 
    6    20     1 
    7     9     1 
    7    20     1 
    7    38     1 
    8    23     1 
    8    37     1 
    8    44     1 
    8    45     1 
    8    46     1 
    9    15     1 
    9    17     1 
    9    19     1 
    9    21     1 
    9    31     1 
    9    32     1 
   10    19     1 
   10    25     1 
   10    44     1 
   10    45     1 
   10    46     1 
   11    21     1 
   12    21     1 
   12    29     1 
   13    47     1 
   13    48     1 
   13    49     1 
   14    29     1 
   15    16     1 
   15    20     1 
   15    22     1 
   15    33     1 
   16    17     1 
   16    18     1 
   16    19     1 
   17    20     1 
   17    22     1 
   17    30     1 
   18    30     1 
   18    33     1 
   18    34     1 
   18    35     1 
   18    38     1 
   19    22     1 
   19    30     1 
   19    34     1 
   19    35     1 
   19    36     1 
   20    23     1 
   20    24     1 
   21    22     1 
   21    33     1 
   23    27     1 
   23    28     1 
   23    33     1 
   23    39     1 
   23    40     1 
   24    34     1 
   24    35     1 
   24    47     1 
   24    48     1 
   24    49     1 
   25    36     1 
   26    36     1 
   28    37     1 
   30    31     1 
   30    32     1 
   36    37     1 
   39    41     1 
   39    42     1 
   39    43     1 
   40    41     1 
   40    42     1 
   40    43     1 

[ angles ] 
; ai	aj	ak	funct	th0	cth	S0	Kub
   15     1    19     5
   21     2    24     5
   23     3    25     5
   19     4    23     5
   22     6    38     5
   15     9    17     5
   15     9    18     5
   17     9    18     5
   23    10    26     5
   23    10    37     5
   26    10    37     5
   13    11    24     5
   13    11    29     5
   24    11    29     5
   14    12    24     5
   11    13    14     5
   12    14    13     5
    1    15     9     5
    1    15    16     5
    1    15    30     5
    9    15    16     5
    9    15    30     5
   16    15    30     5
   15    16    17     5
   15    16    31     5
   15    16    32     5
   17    16    31     5
   17    16    32     5
   31    16    32     5
    5    17     9     5
    5    17    16     5
    9    17    16     5
    9    18    20     5
    9    18    22     5
   20    18    22     5
    1    19     4     5
    1    19    20     5
    1    19    33     5
    4    19    20     5
    4    19    33     5
   20    19    33     5
   18    20    19     5
   18    20    21     5
   19    20    21     5
    2    21    20     5
    2    21    34     5
    2    21    35     5
   20    21    34     5
   20    21    35     5
   34    21    35     5
    6    22     7     5
    6    22    18     5
    7    22    18     5
    3    23     4     5
    3    23    10     5
    3    23    36     5
    4    23    10     5
    4    23    36     5
   10    23    36     5
    2    24    11     5
    2    24    12     5
   11    24    12     5
    3    25    27     5
    3    25    39     5
    3    25    40     5
   27    25    39     5
   27    25    40     5
   39    25    40     5
    8    26    10     5
    8    26    28     5
   10    26    28     5
   25    27    41     5
   25    27    42     5
   25    27    43     5
   41    27    42     5
   41    27    43     5
   42    27    43     5
   26    28    44     5
   26    28    45     5
   26    28    46     5
   44    28    45     5
   44    28    46     5
   45    28    46     5
   11    29    47     5
   11    29    48     5
   11    29    49     5
   47    29    48     5
   47    29    49     5
   48    29    49     5

[ dihedrals ]
; ai	aj	ak	al	funct	phi0	cp	mult
   19     1    15    30     9
   15     1    19    20     9
   15     1    19    33     9
   24     2    21    34     9
   24     2    21    35     9
   25     3    23    36     9
   23     3    25    27     9
   23     3    25    39     9
   23     3    25    40     9
   23     4    19    33     9
   19     4    23    36     9
   17     9    15    30     9
   18     9    15    30     9
   15     9    17    16     9
   15     9    18    20     9
   15     9    18    22     9
   17     9    18    20     9
   17     9    18    22     9
   26    10    23    36     9
   23    10    26    28     9
   13    11    29    47     9
   13    11    29    48     9
   13    11    29    49     9
   24    11    29    47     9
   24    11    29    48     9
   24    11    29    49     9
   14    13    11    24     9
   14    13    11    29     9
   11    13    14    12     9
   13    14    12    24     9
    9    15     1    19     9
   16    15     1    19     9
    1    15     9    17     9
    1    15     9    18     9
   16    15     9    17     9
   16    15     9    18     9
    1    15    16    17     9
    1    15    16    31     9
    1    15    16    32     9
    9    15    16    17     9
    9    15    16    31     9
    9    15    16    32     9
   30    15    16    31     9
   30    15    16    32     9
   17    16    15    30     9
    5    17     9    15     9
    5    17     9    18     9
   16    17     9    18     9
    5    17    16    15     9
    5    17    16    31     9
    5    17    16    32     9
    9    17    16    15     9
    9    17    16    31     9
    9    17    16    32     9
    9    18    20    19     9
    9    18    20    21     9
    4    19     1    15     9
    1    19     4    23     9
   20    19     4    23     9
    1    19    20    18     9
    1    19    20    21     9
    4    19    20    18     9
    4    19    20    21     9
   19    20    18    22     9
   21    20    18    22     9
   18    20    19    33     9
   21    20    19    33     9
   18    20    21    34     9
   18    20    21    35     9
   19    20    21    34     9
   19    20    21    35     9
   20    21     2    24     9
    2    21    20    18     9
    2    21    20    19     9
    7    22     6    38     9
   18    22     6    38     9
    6    22    18     9     9
    6    22    18    20     9
    7    22    18     9     9
    7    22    18    20     9
    4    23     3    25     9
   10    23     3    25     9
    3    23     4    19     9
   10    23     4    19     9
    3    23    10    26     9
    3    23    10    37     9
    4    23    10    26     9
    4    23    10    37     9
   36    23    10    37     9
   11    24     2    21     9
   12    24     2    21     9
    2    24    11    13     9
    2    24    11    29     9
   12    24    11    13     9
   12    24    11    29     9
    2    24    12    14     9
   11    24    12    14     9
    3    25    27    41     9
    3    25    27    42     9
    3    25    27    43     9
   39    25    27    41     9
   39    25    27    42     9
   39    25    27    43     9
   40    25    27    41     9
   40    25    27    42     9
   40    25    27    43     9
    8    26    10    23     9
    8    26    10    37     9
   28    26    10    37     9
    8    26    28    44     9
    8    26    28    45     9
    8    26    28    46     9
   10    26    28    44     9
   10    26    28    45     9
   10    26    28    46     9

[ dihedrals ]
; ai	aj	ak	al	funct	q0	cq
   17    16     9     5     2
   18    20    22     9     2
   22    18     7     6     2
   26    28    10     8     2
